PROCAR lm decomposed
# of k-points:  120         # of bands:   20         # of ions:    2

 k-point     1 :    0.00000000 0.00000000 0.00000000     weight = 0.00029630

band     1 # energy   -2.59765423 # occ.  1.00000000
 
ion      s     py     pz     px    dxy    dyz    dz2    dxz  x2-y2    tot
    1  0.366  0.000  0.000  0.000  0.000  0.000  0.000  0.000  0.000  0.366
    2  0.366  0.000  0.000  0.000  0.000  0.000  0.000  0.000  0.000  0.366
tot    0.733  0.000  0.000  0.000  0.000  0.000  0.000  0.000  0.000  0.733
 
band     2 # energy    0.98681829 # occ.  1.00000000
 
ion      s     py     pz     px    dxy    dyz    dz2    dxz  x2-y2    tot
    1  0.000  0.000  0.000  0.000  0.000  0.000  0.108  0.000  0.330  0.438
    2  0.000  0.000  0.000  0.000  0.000  0.000  0.108  0.000  0.330  0.438
tot    0.000  0.000  0.000  0.000  0.000  0.000  0.216  0.000  0.661  0.877
 
band     3 # energy    0.98681847 # occ.  1.00000000
 
ion      s     py     pz     px    dxy    dyz    dz2    dxz  x2-y2    tot
    1  0.000  0.000  0.000  0.000  0.000  0.000  0.330  0.000  0.108  0.438
    2  0.000  0.000  0.000  0.000  0.000  0.000  0.330  0.000  0.108  0.438
tot    0.000  0.000  0.000  0.000  0.000  0.000  0.661  0.000  0.216  0.877
 
band     4 # energy    3.53852180 # occ.  1.00000000
 
ion      s     py     pz     px    dxy    dyz    dz2    dxz  x2-y2    tot
    1  0.000  0.000  0.000  0.000  0.489  0.000  0.000  0.000  0.000  0.489
    2  0.000  0.000  0.000  0.000  0.489  0.000  0.000  0.000  0.000  0.489
tot    0.000  0.000  0.000  0.000  0.979  0.000  0.000  0.000  0.000  0.979
 
band     5 # energy    3.53852264 # occ.  1.00000000
 
ion      s     py     pz     px    dxy    dyz    dz2    dxz  x2-y2    tot
    1  0.000  0.000  0.000  0.000  0.000  0.000  0.000  0.489  0.000  0.489
    2  0.000  0.000  0.000  0.000  0.000  0.000  0.000  0.489  0.000  0.489
tot    0.000  0.000  0.000  0.000  0.000  0.000  0.000  0.979  0.000  0.979
 
band     6 # energy    3.53852266 # occ.  1.00000000
 
ion      s     py     pz     px    dxy    dyz    dz2    dxz  x2-y2    tot
    1  0.000  0.000  0.000  0.000  0.000  0.489  0.000  0.000  0.000  0.489
    2  0.000  0.000  0.000  0.000  0.000  0.489  0.000  0.000  0.000  0.489
tot    0.000  0.000  0.000  0.000  0.000  0.979  0.000  0.000  0.000  0.979
 
band     7 # energy    4.75133542 # occ.  1.00000000
 
ion      s     py     pz     px    dxy    dyz    dz2    dxz  x2-y2    tot
    1  0.000  0.000  0.000  0.000  0.000  0.000  0.481  0.000  0.004  0.485
    2  0.000  0.000  0.000  0.000  0.000  0.000  0.481  0.000  0.004  0.485
tot    0.000  0.000  0.000  0.000  0.000  0.000  0.962  0.000  0.008  0.971
 
band     8 # energy    4.75133635 # occ.  1.00000000
 
ion      s     py     pz     px    dxy    dyz    dz2    dxz  x2-y2    tot
    1  0.000  0.000  0.000  0.000  0.000  0.000  0.004  0.000  0.481  0.485
    2  0.000  0.000  0.000  0.000  0.000  0.000  0.004  0.000  0.481  0.485
tot    0.000  0.000  0.000  0.000  0.000  0.000  0.008  0.000  0.962  0.971
 
band     9 # energy    5.96360911 # occ.  0.07237783
 
ion      s     py     pz     px    dxy    dyz    dz2    dxz  x2-y2    tot
    1  0.000  0.000  0.000  0.000  0.494  0.000  0.000  0.000  0.000  0.494
    2  0.000  0.000  0.000  0.000  0.494  0.000  0.000  0.000  0.000  0.494
tot    0.000  0.000  0.000  0.000  0.988  0.000  0.000  0.000  0.000  0.988
 
band    10 # energy    5.96361068 # occ.  0.07237444
 
ion      s     py     pz     px    dxy    dyz    dz2    dxz  x2-y2    tot
    1  0.000  0.000  0.000  0.000  0.000  0.000  0.000  0.494  0.000  0.494
    2  0.000  0.000  0.000  0.000  0.000  0.000  0.000  0.494  0.000  0.494
tot    0.000  0.000  0.000  0.000  0.000  0.000  0.000  0.988  0.000  0.988
 
band    11 # energy    5.96361070 # occ.  0.07237440
 
ion      s     py     pz     px    dxy    dyz    dz2    dxz  x2-y2    tot
    1  0.000  0.000  0.000  0.000  0.000  0.494  0.000  0.000  0.000  0.494
    2  0.000  0.000  0.000  0.000  0.000  0.494  0.000  0.000  0.000  0.494
tot    0.000  0.000  0.000  0.000  0.000  0.988  0.000  0.000  0.000  0.988
 
band    12 # energy   15.79473676 # occ.  0.00000000
 
ion      s     py     pz     px    dxy    dyz    dz2    dxz  x2-y2    tot
    1  0.000  0.000  0.000  0.376  0.000  0.000  0.000  0.000  0.000  0.376
    2  0.000  0.000  0.000  0.376  0.000  0.000  0.000  0.000  0.000  0.376
tot    0.000  0.000  0.000  0.751  0.000  0.000  0.000  0.000  0.000  0.751
 
band    13 # energy   15.79473686 # occ.  0.00000000
 
ion      s     py     pz     px    dxy    dyz    dz2    dxz  x2-y2    tot
    1  0.000  0.376  0.000  0.000  0.000  0.000  0.000  0.000  0.000  0.376
    2  0.000  0.376  0.000  0.000  0.000  0.000  0.000  0.000  0.000  0.376
tot    0.000  0.751  0.000  0.000  0.000  0.000  0.000  0.000  0.000  0.751
 
band    14 # energy   15.79473696 # occ.  0.00000000
 
ion      s     py     pz     px    dxy    dyz    dz2    dxz  x2-y2    tot
    1  0.000  0.000  0.376  0.000  0.000  0.000  0.000  0.000  0.000  0.376
    2  0.000  0.000  0.376  0.000  0.000  0.000  0.000  0.000  0.000  0.376
tot    0.000  0.000  0.751  0.000  0.000  0.000  0.000  0.000  0.000  0.751
 
band    15 # energy   21.51088850 # occ.  0.00000000
 
ion      s     py     pz     px    dxy    dyz    dz2    dxz  x2-y2    tot
    1  0.000  0.000  0.000  0.000  0.000  0.000  0.475  0.000  0.000  0.475
    2  0.000  0.000  0.000  0.000  0.000  0.000  0.475  0.000  0.000  0.475
tot    0.000  0.000  0.000  0.000  0.000  0.000  0.951  0.000  0.000  0.951
 
band    16 # energy   21.51089021 # occ.  0.00000000
 
ion      s     py     pz     px    dxy    dyz    dz2    dxz  x2-y2    tot
    1  0.000  0.000  0.000  0.000  0.000  0.000  0.000  0.000  0.475  0.475
    2  0.000  0.000  0.000  0.000  0.000  0.000  0.000  0.000  0.475  0.475
tot    0.000  0.000  0.000  0.000  0.000  0.000  0.000  0.000  0.951  0.951
 
band    17 # energy   26.64943209 # occ.  0.00000000
 
ion      s     py     pz     px    dxy    dyz    dz2    dxz  x2-y2    tot
    1  0.391  0.000  0.000  0.000  0.000  0.000  0.000  0.000  0.000  0.391
    2  0.391  0.000  0.000  0.000  0.000  0.000  0.000  0.000  0.000  0.391
tot    0.782  0.000  0.000  0.000  0.000  0.000  0.000  0.000  0.000  0.782
 
band    18 # energy   30.88645941 # occ.  0.00000000
 
ion      s     py     pz     px    dxy    dyz    dz2    dxz  x2-y2    tot
    1  0.000  0.000  0.000  0.000  0.000  0.000  0.000  0.000  0.000  0.000
    2  0.000  0.000  0.000  0.000  0.000  0.000  0.000  0.000  0.000  0.000
tot    0.000  0.000  0.000  0.000  0.000  0.000  0.000  0.000  0.000  0.000
 
band    19 # energy   30.88645941 # occ.  0.00000000
 
ion      s     py     pz     px    dxy    dyz    dz2    dxz  x2-y2    tot
    1  0.000  0.000  0.000  0.000  0.000  0.000  0.000  0.000  0.000  0.000
    2  0.000  0.000  0.000  0.000  0.000  0.000  0.000  0.000  0.000  0.000
tot    0.000  0.000  0.000  0.000  0.000  0.000  0.000  0.000  0.000  0.000
 
band    20 # energy   30.88645941 # occ.  0.00000000
 
ion      s     py     pz     px    dxy    dyz    dz2    dxz  x2-y2    tot
    1  0.000  0.000  0.000  0.000  0.000  0.000  0.000  0.000  0.000  0.000
    2  0.000  0.000  0.000  0.000  0.000  0.000  0.000  0.000  0.000  0.000
tot    0.000  0.000  0.000  0.000  0.000  0.000  0.000  0.000  0.000  0.000
 

 k-point     2 :    0.06666667 0.00000000 0.00000000     weight = 0.00177778

band     1 # energy   -2.50515418 # occ.  1.00000000
 
ion      s     py     pz     px    dxy    dyz    dz2    dxz  x2-y2    tot
    1  0.363  0.000  0.000  0.003  0.000  0.000  0.000  0.000  0.000  0.366
    2  0.363  0.000  0.000  0.003  0.000  0.000  0.000  0.000  0.000  0.366
tot    0.726  0.000  0.000  0.007  0.000  0.000  0.000  0.000  0.000  0.733
 
band     2 # energy    1.02629817 # occ.  1.00000000
 
ion      s     py     pz     px    dxy    dyz    dz2    dxz  x2-y2    tot
    1  0.000  0.000  0.000  0.000  0.000  0.000  0.329  0.000  0.110  0.439
    2  0.000  0.000  0.000  0.000  0.000  0.000  0.329  0.000  0.110  0.439
tot    0.000  0.000  0.000  0.000  0.000  0.000  0.658  0.000  0.219  0.877
 
band     3 # energy    1.02801297 # occ.  1.00000000
 
ion      s     py     pz     px    dxy    dyz    dz2    dxz  x2-y2    tot
    1  0.000  0.000  0.000  0.002  0.000  0.000  0.109  0.000  0.327  0.438
    2  0.000  0.000  0.000  0.002  0.000  0.000  0.109  0.000  0.327  0.438
tot    0.000  0.000  0.000  0.005  0.000  0.000  0.218  0.000  0.654  0.877
 
band     4 # energy    3.53772313 # occ.  1.00000000
 
ion      s     py     pz     px    dxy    dyz    dz2    dxz  x2-y2    tot
    1  0.000  0.000  0.000  0.000  0.489  0.000  0.000  0.000  0.000  0.489
    2  0.000  0.000  0.000  0.000  0.489  0.000  0.000  0.000  0.000  0.489
tot    0.000  0.001  0.000  0.000  0.977  0.000  0.000  0.000  0.000  0.978
 
band     5 # energy    3.53772397 # occ.  1.00000000
 
ion      s     py     pz     px    dxy    dyz    dz2    dxz  x2-y2    tot
    1  0.000  0.000  0.000  0.000  0.000  0.000  0.000  0.489  0.000  0.489
    2  0.000  0.000  0.000  0.000  0.000  0.000  0.000  0.489  0.000  0.489
tot    0.000  0.000  0.001  0.000  0.000  0.000  0.000  0.977  0.000  0.978
 
band     6 # energy    3.56384562 # occ.  1.00000000
 
ion      s     py     pz     px    dxy    dyz    dz2    dxz  x2-y2    tot
    1  0.000  0.000  0.000  0.000  0.000  0.489  0.000  0.000  0.000  0.489
    2  0.000  0.000  0.000  0.000  0.000  0.489  0.000  0.000  0.000  0.489
tot    0.000  0.000  0.000  0.000  0.000  0.979  0.000  0.000  0.000  0.979
 
band     7 # energy    4.71002061 # occ.  1.00000000
 
ion      s     py     pz     px    dxy    dyz    dz2    dxz  x2-y2    tot
    1  0.000  0.000  0.000  0.000  0.000  0.000  0.363  0.000  0.121  0.484
    2  0.000  0.000  0.000  0.000  0.000  0.000  0.363  0.000  0.121  0.484
tot    0.000  0.000  0.000  0.000  0.000  0.000  0.727  0.000  0.242  0.969
 
band     8 # energy    4.76767168 # occ.  1.00000000
 
ion      s     py     pz     px    dxy    dyz    dz2    dxz  x2-y2    tot
    1  0.000  0.000  0.000  0.000  0.000  0.000  0.121  0.000  0.364  0.486
    2  0.000  0.000  0.000  0.000  0.000  0.000  0.121  0.000  0.364  0.486
tot    0.000  0.000  0.000  0.000  0.000  0.000  0.243  0.000  0.728  0.971
 
band     9 # energy    5.88526030 # occ.  0.31440480
 
ion      s     py     pz     px    dxy    dyz    dz2    dxz  x2-y2    tot
    1  0.000  0.002  0.000  0.000  0.491  0.000  0.000  0.000  0.000  0.493
    2  0.000  0.002  0.000  0.000  0.491  0.000  0.000  0.000  0.000  0.493
tot    0.000  0.004  0.000  0.000  0.981  0.000  0.000  0.000  0.000  0.986
 
band    10 # energy    5.88526184 # occ.  0.31439883
 
ion      s     py     pz     px    dxy    dyz    dz2    dxz  x2-y2    tot
    1  0.000  0.000  0.002  0.000  0.000  0.000  0.000  0.491  0.000  0.493
    2  0.000  0.000  0.002  0.000  0.000  0.000  0.000  0.491  0.000  0.493
tot    0.000  0.000  0.004  0.000  0.000  0.000  0.000  0.981  0.000  0.986
 
band    11 # energy    5.93600688 # occ.  0.14149438
 
ion      s     py     pz     px    dxy    dyz    dz2    dxz  x2-y2    tot
    1  0.000  0.000  0.000  0.000  0.000  0.494  0.000  0.000  0.000  0.494
    2  0.000  0.000  0.000  0.000  0.000  0.494  0.000  0.000  0.000  0.494
tot    0.000  0.000  0.000  0.000  0.000  0.988  0.000  0.000  0.000  0.988
 
band    12 # energy   15.12384989 # occ.  0.00000000
 
ion      s     py     pz     px    dxy    dyz    dz2    dxz  x2-y2    tot
    1  0.016  0.000  0.000  0.340  0.000  0.000  0.007  0.000  0.022  0.385
    2  0.016  0.000  0.000  0.340  0.000  0.000  0.007  0.000  0.022  0.385
tot    0.032  0.000  0.000  0.679  0.000  0.000  0.015  0.000  0.045  0.771
 
band    13 # energy   15.97019988 # occ.  0.00000000
 
ion      s     py     pz     px    dxy    dyz    dz2    dxz  x2-y2    tot
    1  0.000  0.372  0.000  0.000  0.007  0.000  0.000  0.000  0.000  0.379
    2  0.000  0.372  0.000  0.000  0.007  0.000  0.000  0.000  0.000  0.379
tot    0.000  0.743  0.000  0.000  0.014  0.000  0.000  0.000  0.000  0.757
 
band    14 # energy   15.97020002 # occ.  0.00000000
 
ion      s     py     pz     px    dxy    dyz    dz2    dxz  x2-y2    tot
    1  0.000  0.000  0.372  0.000  0.000  0.000  0.000  0.007  0.000  0.379
    2  0.000  0.000  0.372  0.000  0.000  0.000  0.000  0.007  0.000  0.379
tot    0.000  0.000  0.743  0.000  0.000  0.000  0.000  0.014  0.000  0.757
 
band    15 # energy   21.53751714 # occ.  0.00000000
 
ion      s     py     pz     px    dxy    dyz    dz2    dxz  x2-y2    tot
    1  0.000  0.000  0.000  0.000  0.000  0.000  0.355  0.000  0.118  0.474
    2  0.000  0.000  0.000  0.000  0.000  0.000  0.355  0.000  0.118  0.474
tot    0.000  0.000  0.000  0.000  0.000  0.000  0.710  0.000  0.237  0.947
 
band    16 # energy   22.01740143 # occ.  0.00000000
 
ion      s     py     pz     px    dxy    dyz    dz2    dxz  x2-y2    tot
    1  0.005  0.000  0.000  0.014  0.000  0.000  0.110  0.000  0.331  0.461
    2  0.005  0.000  0.000  0.014  0.000  0.000  0.110  0.000  0.331  0.461
tot    0.010  0.000  0.000  0.028  0.000  0.000  0.221  0.000  0.662  0.922
 
band    17 # energy   26.94948019 # occ.  0.00000000
 
ion      s     py     pz     px    dxy    dyz    dz2    dxz  x2-y2    tot
    1  0.369  0.000  0.000  0.020  0.000  0.000  0.001  0.000  0.002  0.392
    2  0.369  0.000  0.000  0.020  0.000  0.000  0.001  0.000  0.002  0.392
tot    0.738  0.000  0.000  0.040  0.000  0.000  0.001  0.000  0.004  0.783
 
band    18 # energy   30.25277121 # occ.  0.00000000
 
ion      s     py     pz     px    dxy    dyz    dz2    dxz  x2-y2    tot
    1  0.000  0.000  0.000  0.000  0.000  0.000  0.046  0.000  0.015  0.061
    2  0.000  0.000  0.000  0.000  0.000  0.000  0.046  0.000  0.015  0.061
tot    0.000  0.000  0.000  0.000  0.000  0.000  0.092  0.000  0.031  0.123
 
band    19 # energy   30.80546049 # occ.  0.00000000
 
ion      s     py     pz     px    dxy    dyz    dz2    dxz  x2-y2    tot
    1  0.000  0.001  0.000  0.000  0.037  0.000  0.000  0.000  0.000  0.038
    2  0.000  0.001  0.000  0.000  0.037  0.000  0.000  0.000  0.000  0.038
tot    0.000  0.002  0.000  0.000  0.073  0.000  0.000  0.000  0.000  0.075
 
band    20 # energy   30.80546056 # occ.  0.00000000
 
ion      s     py     pz     px    dxy    dyz    dz2    dxz  x2-y2    tot
    1  0.000  0.000  0.001  0.000  0.000  0.000  0.000  0.037  0.000  0.038
    2  0.000  0.000  0.001  0.000  0.000  0.000  0.000  0.037  0.000  0.038
tot    0.000  0.000  0.002  0.000  0.000  0.000  0.000  0.073  0.000  0.075
 

 k-point     3 :    0.13333333 0.00000000 0.00000000     weight = 0.00177778

band     1 # energy   -2.23123995 # occ.  1.00000000
 
ion      s     py     pz     px    dxy    dyz    dz2    dxz  x2-y2    tot
    1  0.353  0.000  0.000  0.013  0.000  0.000  0.000  0.000  0.000  0.367
    2  0.353  0.000  0.000  0.013  0.000  0.000  0.000  0.000  0.000  0.367
tot    0.707  0.000  0.000  0.026  0.000  0.000  0.000  0.000  0.001  0.733
 
band     2 # energy    1.14335627 # occ.  1.00000000
 
ion      s     py     pz     px    dxy    dyz    dz2    dxz  x2-y2    tot
    1  0.000  0.000  0.000  0.000  0.000  0.000  0.329  0.000  0.110  0.439
    2  0.000  0.000  0.000  0.000  0.000  0.000  0.329  0.000  0.110  0.439
tot    0.000  0.000  0.000  0.000  0.000  0.000  0.659  0.000  0.220  0.878
 
band     3 # energy    1.14406509 # occ.  1.00000000
 
ion      s     py     pz     px    dxy    dyz    dz2    dxz  x2-y2    tot
    1  0.001  0.000  0.000  0.010  0.000  0.000  0.107  0.000  0.321  0.438
    2  0.001  0.000  0.000  0.010  0.000  0.000  0.107  0.000  0.321  0.438
tot    0.001  0.000  0.000  0.019  0.000  0.000  0.214  0.000  0.641  0.875
 
band     4 # energy    3.53805019 # occ.  1.00000000
 
ion      s     py     pz     px    dxy    dyz    dz2    dxz  x2-y2    tot
    1  0.000  0.001  0.000  0.000  0.487  0.000  0.000  0.000  0.000  0.488
    2  0.000  0.001  0.000  0.000  0.487  0.000  0.000  0.000  0.000  0.488
tot    0.000  0.003  0.000  0.000  0.973  0.000  0.000  0.000  0.000  0.976
 
band     5 # energy    3.53805102 # occ.  1.00000000
 
ion      s     py     pz     px    dxy    dyz    dz2    dxz  x2-y2    tot
    1  0.000  0.000  0.001  0.000  0.000  0.000  0.000  0.487  0.000  0.488
    2  0.000  0.000  0.001  0.000  0.000  0.000  0.000  0.487  0.000  0.488
tot    0.000  0.000  0.003  0.000  0.000  0.000  0.000  0.973  0.000  0.976
 
band     6 # energy    3.63893363 # occ.  1.00000000
 
ion      s     py     pz     px    dxy    dyz    dz2    dxz  x2-y2    tot
    1  0.000  0.000  0.000  0.000  0.000  0.489  0.000  0.000  0.000  0.489
    2  0.000  0.000  0.000  0.000  0.000  0.489  0.000  0.000  0.000  0.489
tot    0.000  0.000  0.000  0.000  0.000  0.978  0.000  0.000  0.000  0.978
 
band     7 # energy    4.58769541 # occ.  1.00000000
 
ion      s     py     pz     px    dxy    dyz    dz2    dxz  x2-y2    tot
    1  0.000  0.000  0.000  0.000  0.000  0.000  0.361  0.000  0.120  0.482
    2  0.000  0.000  0.000  0.000  0.000  0.000  0.361  0.000  0.120  0.482
tot    0.000  0.000  0.000  0.000  0.000  0.000  0.723  0.000  0.241  0.964
 
band     8 # energy    4.81557917 # occ.  1.00000000
 
ion      s     py     pz     px    dxy    dyz    dz2    dxz  x2-y2    tot
    1  0.000  0.000  0.000  0.000  0.000  0.000  0.122  0.000  0.365  0.487
    2  0.000  0.000  0.000  0.000  0.000  0.000  0.122  0.000  0.365  0.487
tot    0.001  0.000  0.000  0.000  0.000  0.000  0.243  0.000  0.729  0.973
 
band     9 # energy    5.66974150 # occ.  1.00219077
 
ion      s     py     pz     px    dxy    dyz    dz2    dxz  x2-y2    tot
    1  0.000  0.007  0.000  0.000  0.482  0.000  0.000  0.000  0.000  0.490
    2  0.000  0.007  0.000  0.000  0.482  0.000  0.000  0.000  0.000  0.490
tot    0.000  0.014  0.000  0.000  0.965  0.000  0.000  0.000  0.000  0.979
 
band    10 # energy    5.66974294 # occ.  1.00218924
 
ion      s     py     pz     px    dxy    dyz    dz2    dxz  x2-y2    tot
    1  0.000  0.000  0.007  0.000  0.000  0.000  0.000  0.482  0.000  0.490
    2  0.000  0.000  0.007  0.000  0.000  0.000  0.000  0.482  0.000  0.490
tot    0.000  0.000  0.014  0.000  0.000  0.000  0.000  0.965  0.000  0.979
 
band    11 # energy    5.85457563 # occ.  0.43913961
 
ion      s     py     pz     px    dxy    dyz    dz2    dxz  x2-y2    tot
    1  0.000  0.000  0.000  0.000  0.000  0.493  0.000  0.000  0.000  0.493
    2  0.000  0.000  0.000  0.000  0.000  0.493  0.000  0.000  0.000  0.493
tot    0.000  0.000  0.000  0.000  0.000  0.986  0.000  0.000  0.000  0.986
 
band    12 # energy   13.65085412 # occ.  0.00000000
 
ion      s     py     pz     px    dxy    dyz    dz2    dxz  x2-y2    tot
    1  0.046  0.000  0.000  0.286  0.000  0.000  0.017  0.000  0.050  0.398
    2  0.046  0.000  0.000  0.286  0.000  0.000  0.017  0.000  0.050  0.398
tot    0.091  0.000  0.000  0.573  0.000  0.000  0.033  0.000  0.100  0.797
 
band    13 # energy   16.47619544 # occ.  0.00000000
 
ion      s     py     pz     px    dxy    dyz    dz2    dxz  x2-y2    tot
    1  0.000  0.360  0.000  0.000  0.026  0.000  0.000  0.000  0.000  0.386
    2  0.000  0.360  0.000  0.000  0.026  0.000  0.000  0.000  0.000  0.386
tot    0.000  0.721  0.000  0.000  0.052  0.000  0.000  0.000  0.000  0.773
 
band    14 # energy   16.47619567 # occ.  0.00000000
 
ion      s     py     pz     px    dxy    dyz    dz2    dxz  x2-y2    tot
    1  0.000  0.000  0.360  0.000  0.000  0.000  0.000  0.026  0.000  0.386
    2  0.000  0.000  0.360  0.000  0.000  0.000  0.000  0.026  0.000  0.386
tot    0.000  0.000  0.721  0.000  0.000  0.000  0.000  0.052  0.000  0.773
 
band    15 # energy   21.61899423 # occ.  0.00000000
 
ion      s     py     pz     px    dxy    dyz    dz2    dxz  x2-y2    tot
    1  0.000  0.000  0.000  0.000  0.000  0.000  0.351  0.000  0.117  0.468
    2  0.000  0.000  0.000  0.000  0.000  0.000  0.351  0.000  0.117  0.468
tot    0.000  0.000  0.000  0.000  0.000  0.000  0.701  0.000  0.234  0.935
 
band    16 # energy   22.89835158 # occ.  0.00000000
 
ion      s     py     pz     px    dxy    dyz    dz2    dxz  x2-y2    tot
    1  0.046  0.000  0.000  0.011  0.000  0.000  0.093  0.000  0.280  0.430
    2  0.046  0.000  0.000  0.011  0.000  0.000  0.093  0.000  0.280  0.430
tot    0.091  0.000  0.000  0.022  0.000  0.000  0.187  0.000  0.560  0.860
 
band    17 # energy   27.95812828 # occ.  0.00000000
 
ion      s     py     pz     px    dxy    dyz    dz2    dxz  x2-y2    tot
    1  0.296  0.000  0.000  0.072  0.000  0.000  0.007  0.000  0.022  0.398
    2  0.296  0.000  0.000  0.072  0.000  0.000  0.007  0.000  0.022  0.398
tot    0.592  0.000  0.000  0.144  0.000  0.000  0.015  0.000  0.045  0.796
 
band    18 # energy   28.98646497 # occ.  0.00000000
 
ion      s     py     pz     px    dxy    dyz    dz2    dxz  x2-y2    tot
    1  0.000  0.000  0.000  0.000  0.000  0.000  0.105  0.000  0.035  0.140
    2  0.000  0.000  0.000  0.000  0.000  0.000  0.105  0.000  0.035  0.140
tot    0.000  0.000  0.000  0.000  0.000  0.000  0.211  0.000  0.070  0.281
 
band    19 # energy   30.44568695 # occ.  0.00000000
 
ion      s     py     pz     px    dxy    dyz    dz2    dxz  x2-y2    tot
    1  0.000  0.016  0.000  0.000  0.143  0.000  0.000  0.000  0.000  0.158
    2  0.000  0.016  0.000  0.000  0.143  0.000  0.000  0.000  0.000  0.158
tot    0.000  0.031  0.000  0.000  0.285  0.000  0.000  0.000  0.000  0.316
 
band    20 # energy   30.44568725 # occ.  0.00000000
 
ion      s     py     pz     px    dxy    dyz    dz2    dxz  x2-y2    tot
    1  0.000  0.000  0.016  0.000  0.000  0.000  0.000  0.143  0.000  0.158
    2  0.000  0.000  0.016  0.000  0.000  0.000  0.000  0.143  0.000  0.158
tot    0.000  0.000  0.031  0.000  0.000  0.000  0.000  0.285  0.000  0.316
 

 k-point     4 :    0.20000000-0.00000000 0.00000000     weight = 0.00177778

band     1 # energy   -1.78769058 # occ.  1.00000000
 
ion      s     py     pz     px    dxy    dyz    dz2    dxz  x2-y2    tot
    1  0.336  0.000  0.000  0.029  0.000  0.000  0.001  0.000  0.002  0.367
    2  0.336  0.000  0.000  0.029  0.000  0.000  0.001  0.000  0.002  0.367
tot    0.673  0.000  0.000  0.057  0.000  0.000  0.001  0.000  0.003  0.734
 
band     2 # energy    1.31183009 # occ.  1.00000000
 
ion      s     py     pz     px    dxy    dyz    dz2    dxz  x2-y2    tot
    1  0.003  0.000  0.000  0.021  0.000  0.000  0.103  0.000  0.309  0.436
    2  0.003  0.000  0.000  0.021  0.000  0.000  0.103  0.000  0.309  0.436
tot    0.006  0.000  0.000  0.043  0.000  0.000  0.206  0.000  0.618  0.873
 
band     3 # energy    1.33377461 # occ.  1.00000000
 
ion      s     py     pz     px    dxy    dyz    dz2    dxz  x2-y2    tot
    1  0.000  0.000  0.000  0.000  0.000  0.000  0.330  0.000  0.110  0.440
    2  0.000  0.000  0.000  0.000  0.000  0.000  0.330  0.000  0.110  0.440
tot    0.000  0.000  0.000  0.000  0.000  0.000  0.660  0.000  0.220  0.881
 
band     4 # energy    3.54681038 # occ.  1.00000000
 
ion      s     py     pz     px    dxy    dyz    dz2    dxz  x2-y2    tot
    1  0.000  0.003  0.000  0.000  0.484  0.000  0.000  0.000  0.000  0.487
    2  0.000  0.003  0.000  0.000  0.484  0.000  0.000  0.000  0.000  0.487
tot    0.000  0.006  0.000  0.000  0.967  0.000  0.000  0.000  0.000  0.973
 
band     5 # energy    3.54681121 # occ.  1.00000000
 
ion      s     py     pz     px    dxy    dyz    dz2    dxz  x2-y2    tot
    1  0.000  0.000  0.003  0.000  0.000  0.000  0.000  0.484  0.000  0.487
    2  0.000  0.000  0.003  0.000  0.000  0.000  0.000  0.484  0.000  0.487
tot    0.000  0.000  0.006  0.000  0.000  0.000  0.000  0.967  0.000  0.973
 
band     6 # energy    3.76090696 # occ.  1.00000000
 
ion      s     py     pz     px    dxy    dyz    dz2    dxz  x2-y2    tot
    1  0.000  0.000  0.000  0.000  0.000  0.488  0.000  0.000  0.000  0.488
    2  0.000  0.000  0.000  0.000  0.000  0.488  0.000  0.000  0.000  0.488
tot    0.000  0.000  0.000  0.000  0.000  0.977  0.000  0.000  0.000  0.977
 
band     7 # energy    4.38909281 # occ.  1.00000000
 
ion      s     py     pz     px    dxy    dyz    dz2    dxz  x2-y2    tot
    1  0.000  0.000  0.000  0.000  0.000  0.000  0.358  0.000  0.119  0.478
    2  0.000  0.000  0.000  0.000  0.000  0.000  0.358  0.000  0.119  0.478
tot    0.000  0.000  0.000  0.000  0.000  0.000  0.717  0.000  0.239  0.956
 
band     8 # energy    4.89272106 # occ.  1.00000000
 
ion      s     py     pz     px    dxy    dyz    dz2    dxz  x2-y2    tot
    1  0.001  0.000  0.000  0.000  0.000  0.000  0.122  0.000  0.365  0.488
    2  0.001  0.000  0.000  0.000  0.000  0.000  0.122  0.000  0.365  0.488
tot    0.003  0.000  0.000  0.001  0.000  0.000  0.243  0.000  0.729  0.976
 
band     9 # energy    5.36345469 # occ.  1.00191809
 
ion      s     py     pz     px    dxy    dyz    dz2    dxz  x2-y2    tot
    1  0.000  0.013  0.000  0.000  0.473  0.000  0.000  0.000  0.000  0.486
    2  0.000  0.013  0.000  0.000  0.473  0.000  0.000  0.000  0.000  0.486
tot    0.000  0.025  0.000  0.000  0.947  0.000  0.000  0.000  0.000  0.972
 
band    10 # energy    5.36345602 # occ.  1.00191814
 
ion      s     py     pz     px    dxy    dyz    dz2    dxz  x2-y2    tot
    1  0.000  0.000  0.013  0.000  0.000  0.000  0.000  0.473  0.000  0.486
    2  0.000  0.000  0.013  0.000  0.000  0.000  0.000  0.473  0.000  0.486
tot    0.000  0.000  0.025  0.000  0.000  0.000  0.000  0.947  0.000  0.972
 
band    11 # energy    5.72321886 # occ.  0.91301257
 
ion      s     py     pz     px    dxy    dyz    dz2    dxz  x2-y2    tot
    1  0.000  0.000  0.000  0.000  0.000  0.492  0.000  0.000  0.000  0.492
    2  0.000  0.000  0.000  0.000  0.000  0.492  0.000  0.000  0.000  0.492
tot    0.000  0.000  0.000  0.000  0.000  0.984  0.000  0.000  0.000  0.984
 
band    12 # energy   11.96103238 # occ.  0.00000000
 
ion      s     py     pz     px    dxy    dyz    dz2    dxz  x2-y2    tot
    1  0.075  0.000  0.000  0.240  0.000  0.000  0.023  0.000  0.070  0.408
    2  0.075  0.000  0.000  0.240  0.000  0.000  0.023  0.000  0.070  0.408
tot    0.149  0.000  0.000  0.481  0.000  0.000  0.047  0.000  0.140  0.816
 
band    13 # energy   17.26338789 # occ.  0.00000000
 
ion      s     py     pz     px    dxy    dyz    dz2    dxz  x2-y2    tot
    1  0.000  0.345  0.000  0.000  0.052  0.000  0.000  0.000  0.000  0.398
    2  0.000  0.345  0.000  0.000  0.052  0.000  0.000  0.000  0.000  0.398
tot    0.000  0.690  0.000  0.000  0.105  0.000  0.000  0.000  0.000  0.795
 
band    14 # energy   17.26338825 # occ.  0.00000000
 
ion      s     py     pz     px    dxy    dyz    dz2    dxz  x2-y2    tot
    1  0.000  0.000  0.345  0.000  0.000  0.000  0.000  0.052  0.000  0.398
    2  0.000  0.000  0.345  0.000  0.000  0.000  0.000  0.052  0.000  0.398
tot    0.000  0.000  0.690  0.000  0.000  0.000  0.000  0.105  0.000  0.795
 
band    15 # energy   21.76003783 # occ.  0.00000000
 
ion      s     py     pz     px    dxy    dyz    dz2    dxz  x2-y2    tot
    1  0.000  0.000  0.000  0.000  0.000  0.000  0.343  0.000  0.114  0.458
    2  0.000  0.000  0.000  0.000  0.000  0.000  0.343  0.000  0.114  0.458
tot    0.000  0.000  0.000  0.000  0.000  0.000  0.687  0.000  0.229  0.916
 
band    16 # energy   23.53828975 # occ.  0.00000000
 
ion      s     py     pz     px    dxy    dyz    dz2    dxz  x2-y2    tot
    1  0.105  0.000  0.000  0.000  0.000  0.000  0.072  0.000  0.216  0.392
    2  0.105  0.000  0.000  0.000  0.000  0.000  0.072  0.000  0.216  0.392
tot    0.209  0.000  0.000  0.001  0.000  0.000  0.144  0.000  0.431  0.785
 
band    17 # energy   27.66089179 # occ.  0.00000000
 
ion      s     py     pz     px    dxy    dyz    dz2    dxz  x2-y2    tot
    1  0.000  0.000  0.000  0.000  0.000  0.000  0.149  0.000  0.050  0.199
    2  0.000  0.000  0.000  0.000  0.000  0.000  0.149  0.000  0.050  0.199
tot    0.000  0.000  0.000  0.000  0.000  0.000  0.298  0.000  0.099  0.397
 
band    18 # energy   29.60407497 # occ.  0.00000000
 
ion      s     py     pz     px    dxy    dyz    dz2    dxz  x2-y2    tot
    1  0.000  0.060  0.000  0.000  0.256  0.000  0.000  0.000  0.000  0.316
    2  0.000  0.060  0.000  0.000  0.256  0.000  0.000  0.000  0.000  0.316
tot    0.000  0.120  0.000  0.000  0.512  0.000  0.000  0.000  0.000  0.632
 
band    19 # energy   29.60407556 # occ.  0.00000000
 
ion      s     py     pz     px    dxy    dyz    dz2    dxz  x2-y2    tot
    1  0.000  0.000  0.060  0.000  0.000  0.000  0.000  0.256  0.000  0.316
    2  0.000  0.000  0.060  0.000  0.000  0.000  0.000  0.256  0.000  0.316
tot    0.000  0.000  0.120  0.000  0.000  0.000  0.000  0.512  0.000  0.632
 
band    20 # energy   29.73390992 # occ.  0.00000000
 
ion      s     py     pz     px    dxy    dyz    dz2    dxz  x2-y2    tot
    1  0.202  0.000  0.000  0.120  0.000  0.000  0.022  0.000  0.065  0.409
    2  0.202  0.000  0.000  0.120  0.000  0.000  0.022  0.000  0.065  0.409
tot    0.405  0.000  0.000  0.240  0.000  0.000  0.044  0.000  0.131  0.819
 

 k-point     5 :    0.26666667 0.00000000 0.00000000     weight = 0.00177778

band     1 # energy   -1.19691830 # occ.  1.00000000
 
ion      s     py     pz     px    dxy    dyz    dz2    dxz  x2-y2    tot
    1  0.312  0.000  0.000  0.049  0.000  0.000  0.002  0.000  0.006  0.368
    2  0.312  0.000  0.000  0.049  0.000  0.000  0.002  0.000  0.006  0.368
tot    0.624  0.000  0.000  0.097  0.000  0.000  0.004  0.000  0.012  0.736
 
band     2 # energy    1.49107060 # occ.  1.00000000
 
ion      s     py     pz     px    dxy    dyz    dz2    dxz  x2-y2    tot
    1  0.009  0.000  0.000  0.037  0.000  0.000  0.097  0.000  0.290  0.433
    2  0.009  0.000  0.000  0.037  0.000  0.000  0.097  0.000  0.290  0.433
tot    0.019  0.000  0.000  0.075  0.000  0.000  0.193  0.000  0.580  0.866
 
band     3 # energy    1.59051886 # occ.  1.00000000
 