<?xml version="1.0" encoding="ISO-8859-1"?>
<modeling>
 <generator>
  <i name="program" type="string">vasp </i>
  <i name="version" type="string">6.2.0  </i>
  <i name="subversion" type="string">18Jan21 (build Aug 12 2022 13:00:08) complex                          parallel </i>
  <i name="platform" type="string">LinuxIFC </i>
  <i name="date" type="string">2024 11 04 </i>
  <i name="time" type="string">07:08:29 </i>
 </generator>
 <incar>
  <i type="int" name="ISTART">     0</i>
  <i type="string" name="PREC">Accurate      (Accurate strictly avoids</i>
  <i type="logical" name="ADDGRID"> T  </i>
  <i type="int" name="ISPIN">     2</i>
  <i type="int" name="NELM">    90</i>
  <i type="int" name="NELMIN">     6</i>
  <i type="int" name="IBRION">     2</i>
  <i name="EDIFF">      0.00000100</i>
  <i name="EDIFFG">     -0.00200000</i>
  <i type="int" name="NSW">   100</i>
  <i type="int" name="ISIF">     3</i>
  <i type="int" name="ISYM">     2</i>
  <i name="ENCUT">    550.00000000</i>
  <v name="MAGMOM">      5.00000000      5.00000000</v>
  <i type="logical" name="LREAL"> F  </i>
  <i type="int" name="ISMEAR">     1</i>
  <i name="SIGMA">      0.20000000</i>
  <i type="int" name="LMAXMIX">     4</i>
  <i type="int" name="LORBIT">    11</i>
  <i type="logical" name="LASPH"> T  </i>
  <i type="logical" name="GGA_COMPAT"> F  </i>
  <i type="int" name="VOSKOWN">     1</i>
 </incar>
 <primitive_cell>
  <structure name="primitive_cell" >
   <crystal>
    <varray name="basis" >
     <v>       1.43151775       1.43151775      -1.43151775 </v>
     <v>      -1.43151775       1.43151775       1.43151775 </v>
     <v>       1.43151775      -1.43151775       1.43151775 </v>
    </varray>
    <i name="volume">     11.73411129 </i>
    <varray name="rec_basis" >
     <v>       0.34927964       0.34927964       0.00000000 </v>
     <v>       0.00000000       0.34927964       0.34927964 </v>
     <v>       0.34927964      -0.00000000       0.34927964 </v>
    </varray>
   </crystal>
   <varray name="positions" >
    <v>       0.00000000       0.00000000       0.00000000 </v>
   </varray>
  </structure>
  <varray name="primitive_index" >
   <v type="int" >        1 </v>
  </varray>
 </primitive_cell>
 <kpoints>
  <generation param="Monkhorst-Pack">
   <v type="int" name="divisions">      15       15       15 </v>
   <v name="usershift">      0.00000000       0.00000000       0.00000000 </v>
   <v name="genvec1">      0.06666667       0.00000000       0.00000000 </v>
   <v name="genvec2">      0.00000000       0.06666667       0.00000000 </v>
   <v name="genvec3">      0.00000000       0.00000000       0.06666667 </v>
   <v name="shift">      0.00000000       0.00000000       0.00000000 </v>
  </generation>
  <varray name="kpointlist" >
   <v>       0.00000000       0.00000000       0.00000000 </v>
   <v>       0.06666667       0.00000000       0.00000000 </v>
   <v>       0.13333333       0.00000000       0.00000000 </v>
   <v>       0.20000000      -0.00000000       0.00000000 </v>
   <v>       0.26666667       0.00000000       0.00000000 </v>
   <v>       0.33333333       0.00000000       0.00000000 </v>
   <v>       0.40000000       0.00000000       0.00000000 </v>
   <v>       0.46666667      -0.00000000       0.00000000 </v>
   <v>       0.06666667       0.06666667       0.00000000 </v>
   <v>       0.13333333       0.06666667       0.00000000 </v>
   <v>       0.20000000       0.06666667       0.00000000 </v>
   <v>       0.26666667       0.06666667       0.00000000 </v>
   <v>       0.33333333       0.06666667       0.00000000 </v>
   <v>       0.40000000       0.06666667       0.00000000 </v>
   <v>       0.46666667       0.06666667       0.00000000 </v>
   <v>       0.13333333       0.13333333       0.00000000 </v>
   <v>       0.20000000       0.13333333       0.00000000 </v>
   <v>       0.26666667       0.13333333       0.00000000 </v>
   <v>       0.33333333       0.13333333       0.00000000 </v>
   <v>       0.40000000       0.13333333       0.00000000 </v>
   <v>       0.46666667       0.13333333       0.00000000 </v>
   <v>       0.20000000       0.20000000       0.00000000 </v>
   <v>       0.26666667       0.20000000       0.00000000 </v>
   <v>       0.33333333       0.20000000       0.00000000 </v>
   <v>       0.40000000       0.20000000       0.00000000 </v>
   <v>       0.46666667       0.20000000       0.00000000 </v>
   <v>       0.26666667       0.26666667       0.00000000 </v>
   <v>       0.33333333       0.26666667       0.00000000 </v>
   <v>       0.40000000       0.26666667       0.00000000 </v>
   <v>       0.46666667       0.26666667       0.00000000 </v>
   <v>       0.33333333       0.33333333       0.00000000 </v>
   <v>       0.40000000       0.33333333       0.00000000 </v>
   <v>       0.46666667       0.33333333       0.00000000 </v>
   <v>       0.40000000       0.40000000       0.00000000 </v>
   <v>       0.46666667       0.40000000       0.00000000 </v>
   <v>       0.46666667       0.46666667       0.00000000 </v>
   <v>       0.06666667       0.06666667       0.06666667 </v>
   <v>       0.13333333       0.06666667       0.06666667 </v>
   <v>       0.20000000       0.06666667       0.06666667 </v>
   <v>       0.26666667       0.06666667       0.06666667 </v>
   <v>       0.33333333       0.06666667       0.06666667 </v>
   <v>       0.40000000       0.06666667       0.06666667 </v>
   <v>       0.46666667       0.06666667       0.06666667 </v>
   <v>       0.13333333       0.13333333       0.06666667 </v>
   <v>       0.20000000       0.13333333       0.06666667 </v>
   <v>       0.26666667       0.13333333       0.06666667 </v>
   <v>       0.33333333       0.13333333       0.06666667 </v>
   <v>       0.40000000       0.13333333       0.06666667 </v>
   <v>       0.46666667       0.13333333       0.06666667 </v>
   <v>       0.20000000       0.20000000       0.06666667 </v>
   <v>       0.26666667       0.20000000       0.06666667 </v>
   <v>       0.33333333       0.20000000       0.06666667 </v>
   <v>       0.40000000       0.20000000       0.06666667 </v>
   <v>       0.46666667       0.20000000       0.06666667 </v>
   <v>       0.26666667       0.26666667       0.06666667 </v>
   <v>       0.33333333       0.26666667       0.06666667 </v>
   <v>       0.40000000       0.26666667       0.06666667 </v>
   <v>       0.46666667       0.26666667       0.06666667 </v>
   <v>       0.33333333       0.33333333       0.06666667 </v>
   <v>       0.40000000       0.33333333       0.06666667 </v>
   <v>       0.46666667       0.33333333       0.06666667 </v>
   <v>       0.40000000       0.40000000       0.06666667 </v>
   <v>       0.46666667       0.40000000       0.06666667 </v>
   <v>       0.46666667       0.46666667       0.06666667 </v>
   <v>       0.13333333       0.13333333       0.13333333 </v>
   <v>       0.20000000       0.13333333       0.13333333 </v>
   <v>       0.26666667       0.13333333       0.13333333 </v>
   <v>       0.33333333       0.13333333       0.13333333 </v>
   <v>       0.40000000       0.13333333       0.13333333 </v>
   <v>       0.46666667       0.13333333       0.13333333 </v>
   <v>       0.20000000       0.20000000       0.13333333 </v>
   <v>       0.26666667       0.20000000       0.13333333 </v>
   <v>       0.33333333       0.20000000       0.13333333 </v>
   <v>       0.40000000       0.20000000       0.13333333 </v>
   <v>       0.46666667       0.20000000       0.13333333 </v>
   <v>       0.26666667       0.26666667       0.13333333 </v>
   <v>       0.33333333       0.26666667       0.13333333 </v>
   <v>       0.40000000       0.26666667       0.13333333 </v>
   <v>       0.46666667       0.26666667       0.13333333 </v>
   <v>       0.33333333       0.33333333       0.13333333 </v>
   <v>       0.40000000       0.33333333       0.13333333 </v>
   <v>       0.46666667       0.33333333       0.13333333 </v>
   <v>       0.40000000       0.40000000       0.13333333 </v>
   <v>       0.46666667       0.40000000       0.13333333 </v>
   <v>       0.46666667       0.46666667       0.13333333 </v>
   <v>       0.20000000       0.20000000       0.20000000 </v>
   <v>       0.26666667       0.20000000       0.20000000 </v>
   <v>       0.33333333       0.20000000       0.20000000 </v>
   <v>       0.40000000       0.20000000       0.20000000 </v>
   <v>       0.46666667       0.20000000       0.20000000 </v>
   <v>       0.26666667       0.26666667       0.20000000 </v>
   <v>       0.33333333       0.26666667       0.20000000 </v>
   <v>       0.40000000       0.26666667       0.20000000 </v>
   <v>       0.46666667       0.26666667       0.20000000 </v>
   <v>       0.33333333       0.33333333       0.20000000 </v>
   <v>       0.40000000       0.33333333       0.20000000 </v>
   <v>       0.46666667       0.33333333       0.20000000 </v>
   <v>       0.40000000       0.40000000       0.20000000 </v>
   <v>       0.46666667       0.40000000       0.20000000 </v>
   <v>       0.46666667       0.46666667       0.20000000 </v>
   <v>       0.26666667       0.26666667       0.26666667 </v>
   <v>       0.33333333       0.26666667       0.26666667 </v>
   <v>       0.40000000       0.26666667       0.26666667 </v>
   <v>       0.46666667       0.26666667       0.26666667 </v>
   <v>       0.33333333       0.33333333       0.26666667 </v>
   <v>       0.40000000       0.33333333       0.26666667 </v>
   <v>       0.46666667       0.33333333       0.26666667 </v>
   <v>       0.40000000       0.40000000       0.26666667 </v>
   <v>       0.46666667       0.40000000       0.26666667 </v>
   <v>       0.46666667       0.46666667       0.26666667 </v>
   <v>       0.33333333       0.33333333       0.33333333 </v>
   <v>       0.40000000       0.33333333       0.33333333 </v>
   <v>       0.46666667       0.33333333       0.33333333 </v>
   <v>       0.40000000       0.40000000       0.33333333 </v>
   <v>       0.46666667       0.40000000       0.33333333 </v>
   <v>       0.46666667       0.46666667       0.33333333 </v>
   <v>       0.40000000       0.40000000       0.40000000 </v>
   <v>       0.46666667       0.40000000       0.40000000 </v>
   <v>       0.46666667       0.46666667       0.40000000 </v>
   <v>       0.46666667       0.46666667       0.46666667 </v>
  </varray>
  <varray name="weights" >
   <v>       0.00029630 </v>
   <v>       0.00177778 </v>
   <v>       0.00177778 </v>
   <v>       0.00177778 </v>
   <v>       0.00177778 </v>
   <v>       0.00177778 </v>
   <v>       0.00177778 </v>
   <v>       0.00177778 </v>
   <v>       0.00355556 </v>
   <v>       0.00711111 </v>
   <v>       0.00711111 </v>
   <v>       0.00711111 </v>
   <v>       0.00711111 </v>
   <v>       0.00711111 </v>
   <v>       0.00711111 </v>
   <v>       0.00355556 </v>
   <v>       0.00711111 </v>
   <v>       0.00711111 </v>
   <v>       0.00711111 </v>
   <v>       0.00711111 </v>
   <v>       0.00711111 </v>
   <v>       0.00355556 </v>
   <v>       0.00711111 </v>
   <v>       0.00711111 </v>
   <v>       0.00711111 </v>
   <v>       0.00711111 </v>
   <v>       0.00355556 </v>
   <v>       0.00711111 </v>
   <v>       0.00711111 </v>
   <v>       0.00711111 </v>
   <v>       0.00355556 </v>
   <v>       0.00711111 </v>
   <v>       0.00711111 </v>
   <v>       0.00355556 </v>
   <v>       0.00711111 </v>
   <v>       0.00355556 </v>
   <v>       0.00237037 </v>
   <v>       0.00711111 </v>
   <v>       0.00711111 </v>
   <v>       0.00711111 </v>
   <v>       0.00711111 </v>
   <v>       0.00711111 </v>
   <v>       0.00711111 </v>
   <v>       0.00711111 </v>
   <v>       0.01422222 </v>
   <v>       0.01422222 </v>
   <v>       0.01422222 </v>
   <v>       0.01422222 </v>
   <v>       0.01422222 </v>
   <v>       0.00711111 </v>
   <v>       0.01422222 </v>
   <v>       0.01422222 </v>
   <v>       0.01422222 </v>
   <v>       0.01422222 </v>
   <v>       0.00711111 </v>
   <v>       0.01422222 </v>
   <v>       0.01422222 </v>
   <v>       0.01422222 </v>
   <v>       0.00711111 </v>
   <v>       0.01422222 </v>
   <v>       0.01422222 </v>
   <v>       0.00711111 </v>
   <v>       0.01422222 </v>
   <v>       0.00711111 </v>
   <v>       0.00237037 </v>
   <v>       0.00711111 </v>
   <v>       0.00711111 </v>
   <v>       0.00711111 </v>
   <v>       0.00711111 </v>
   <v>       0.00711111 </v>
   <v>       0.00711111 </v>
   <v>       0.01422222 </v>
   <v>       0.01422222 </v>
   <v>       0.01422222 </v>
   <v>       0.01422222 </v>
   <v>       0.00711111 </v>
   <v>       0.01422222 </v>
   <v>       0.01422222 </v>
   <v>       0.01422222 </v>
   <v>       0.00711111 </v>
   <v>       0.01422222 </v>
   <v>       0.01422222 </v>
   <v>       0.00711111 </v>
   <v>       0.01422222 </v>
   <v>       0.00711111 </v>
   <v>       0.00237037 </v>
   <v>       0.00711111 </v>
   <v>       0.00711111 </v>
   <v>       0.00711111 </v>
   <v>       0.00711111 </v>
   <v>       0.00711111 </v>
   <v>       0.01422222 </v>
   <v>       0.01422222 </v>
   <v>       0.01422222 </v>
   <v>       0.00711111 </v>
   <v>       0.01422222 </v>
   <v>       0.01422222 </v>
   <v>       0.00711111 </v>
   <v>       0.01422222 </v>
   <v>       0.00711111 </v>
   <v>       0.00237037 </v>
   <v>       0.00711111 </v>
   <v>       0.00711111 </v>
   <v>       0.00711111 </v>
   <v>       0.00711111 </v>
   <v>       0.01422222 </v>
   <v>       0.01422222 </v>
   <v>       0.00711111 </v>
   <v>       0.01422222 </v>
   <v>       0.00711111 </v>
   <v>       0.00237037 </v>
   <v>       0.00711111 </v>
   <v>       0.00711111 </v>
   <v>       0.00711111 </v>
   <v>       0.01422222 </v>
   <v>       0.00711111 </v>
   <v>       0.00237037 </v>
   <v>       0.00711111 </v>
   <v>       0.00711111 </v>
   <v>       0.00237037 </v>
  </varray>
 </kpoints>
 <parameters>
  <separator name="general" >
   <i type="string" name="SYSTEM">unknown system</i>
   <i type="logical" name="LCOMPAT"> F  </i>
  </separator>
  <separator name="electronic" >
   <i type="string" name="PREC">accura</i>
   <i name="ENMAX">    550.00000000</i>
   <i name="ENAUG">    511.36800000</i>
   <i name="EDIFF">      0.00000100</i>
   <i type="int" name="IALGO">    38</i>
   <i type="int" name="IWAVPR">    11</i>
   <i type="int" name="NBANDS">    20</i>
   <i type="int" name="NBANDSLOW">    -1</i>
   <i type="int" name="NBANDSHIGH">    -1</i>
   <i name="NELECT">     16.00000000</i>
   <i type="int" name="TURBO">     0</i>
   <i type="int" name="IRESTART">     0</i>
   <i type="int" name="NREBOOT">     0</i>
   <i type="int" name="NMIN">     0</i>
   <i name="EREF">      0.00000000</i>
   <separator name="electronic smearing" >
    <i type="int" name="ISMEAR">     1</i>
    <i name="SIGMA">      0.20000000</i>
    <i name="KSPACING">      0.50000000</i>
    <i type="logical" name="KGAMMA"> T  </i>
    <i type="logical" name="KBLOWUP"> T  </i>
   </separator>
   <separator name="electronic projectors" >
    <i type="logical" name="LREAL"> F  </i>
    <v name="ROPT">      0.00000000</v>
    <i type="int" name="LMAXPAW">  -100</i>
    <i type="int" name="LMAXMIX">     4</i>
    <i type="logical" name="NLSPLINE"> F  </i>
   </separator>
   <separator name="electronic startup" >
    <i type="int" name="ISTART">     0</i>
    <i type="int" name="ICHARG">     2</i>
    <i type="int" name="INIWAV">     1</i>
   </separator>
   <separator name="electronic spin" >
    <i type="int" name="ISPIN">     2</i>
    <i type="logical" name="LNONCOLLINEAR"> F  </i>
    <v name="MAGMOM">      5.00000000      5.00000000</v>
    <i name="NUPDOWN">     -1.00000000</i>
    <i type="logical" name="LSORBIT"> F  </i>
    <v name="SAXIS">      0.00000000      0.00000000      1.00000000</v>
    <i type="logical" name="LSPIRAL"> F  </i>
    <v name="QSPIRAL">      0.00000000      0.00000000      0.00000000</v>
    <i type="logical" name="LZEROZ"> F  </i>
   </separator>
   <separator name="electronic exchange-correlation" >
    <i type="logical" name="LASPH"> T  </i>
    <i type="logical" name="LMETAGGA"> F  </i>
   </separator>
   <separator name="electronic convergence" >
    <i type="int" name="NELM">    90</i>
    <i type="int" name="NELMDL">    -5</i>
    <i type="int" name="NELMIN">     6</i>
    <i name="ENINI">    550.00000000</i>
    <separator name="electronic convergence detail" >
     <i type="logical" name="LDIAG"> T  </i>
     <i type="logical" name="LSUBROT"> F  </i>
     <i name="WEIMIN">      0.00100000</i>
     <i name="EBREAK">      0.00000001</i>
     <i name="DEPER">      0.30000000</i>
     <i type="int" name="NRMM">     4</i>
     <i name="TIME">      0.40000000</i>
    </separator>
   </separator>
   <separator name="electronic mixer" >
    <i name="AMIX">      0.40000000</i>
    <i name="BMIX">      1.00000000</i>
    <i name="AMIN">      0.10000000</i>
    <i name="AMIX_MAG">      1.60000000</i>
    <i name="BMIX_MAG">      1.00000000</i>
    <separator name="electronic mixer details" >
     <i type="int" name="IMIX">     4</i>
     <i type="logical" name="MIXFIRST"> F  </i>
     <i type="int" name="MAXMIX">   -45</i>
     <i name="WC">    100.00000000</i>
     <i type="int" name="INIMIX">     1</i>
     <i type="int" name="MIXPRE">     1</i>
     <i type="int" name="MREMOVE">     5</i>
    </separator>
   </separator>
   <separator name="electronic dipolcorrection" >
    <i type="logical" name="LDIPOL"> F  </i>
    <i type="logical" name="LMONO"> F  </i>
    <i type="int" name="IDIPOL">     0</i>
    <i name="EPSILON">      1.00000000</i>
    <v name="DIPOL">   -100.00000000   -100.00000000   -100.00000000</v>
    <i name="EFIELD">      0.00000000</i>
   </separator>
  </separator>
  <separator name="grids" >
   <i type="int" name="NGX">    24</i>
   <i type="int" name="NGY">    24</i>
   <i type="int" name="NGZ">    24</i>
   <i type="int" name="NGXF">    48</i>
   <i type="int" name="NGYF">    48</i>
   <i type="int" name="NGZF">    48</i>
   <i type="logical" name="ADDGRID"> T  </i>
  </separator>
  <separator name="ionic" >
   <i type="int" name="NSW">   100</i>
   <i type="int" name="IBRION">     2</i>
   <i type="int" name="MDALGO">     0</i>
   <i type="int" name="ISIF">     3</i>
   <i name="PSTRESS">      0.00000000</i>
   <i name="EDIFFG">     -0.00200000</i>
   <i type="int" name="NFREE">     1</i>
   <i name="POTIM">      0.50000000</i>
   <i name="SMASS">     -3.00000000</i>
   <i name="SCALEE">      1.00000000</i>
  </separator>
  <separator name="ionic md" >
   <i name="TEBEG">      0.00010000</i>
   <i name="TEEND">      0.00010000</i>
   <i type="int" name="NBLOCK">     1</i>
   <i type="int" name="KBLOCK">   100</i>
   <i type="int" name="NPACO">   256</i>
   <i name="APACO">     16.00000000</i>
  </separator>
  <separator name="symmetry" >
   <i type="int" name="ISYM">     2</i>
   <i name="SYMPREC">      0.00001000</i>
  </separator>
  <separator name="dos" >
   <i type="int" name="LORBIT">    11</i>
   <v name="RWIGS">     -1.00000000</v>
   <i type="int" name="NEDOS">   301</i>
   <i name="EMIN">     10.00000000</i>
   <i name="EMAX">    -10.00000000</i>
   <i name="EFERMI">      0.00000000</i>
  </separator>
  <separator name="writing" >
   <i type="int" name="NWRITE">     2</i>
   <i type="logical" name="LWAVE"> T  </i>
   <i type="logical" name="LDOWNSAMPLE"> F  </i>
   <i type="logical" name="LCHARG"> T  </i>
   <i type="logical" name="LPARD"> F  </i>
   <i type="logical" name="LVTOT"> F  </i>
   <i type="logical" name="LVHAR"> F  </i>
   <i type="logical" name="LELF"> F  </i>
   <i type="logical" name="LOPTICS"> F  </i>
   <v name="STM">      0.00000000      0.00000000      0.00000000      0.00000000      0.00000000      0.00000000      0.00000000</v>
  </separator>
  <separator name="performance" >
   <i type="int" name="NPAR">     4</i>
   <i type="int" name="NSIM">     4</i>
   <i type="int" name="NBLK">    -1</i>
   <i type="logical" name="LPLANE"> T  </i>
   <i type="logical" name="LSCALAPACK"> T  </i>
   <i type="logical" name="LSCAAWARE"> F  </i>
   <i type="logical" name="LSCALU"> F  </i>
   <i type="logical" name="LASYNC"> F  </i>
   <i type="logical" name="LORBITALREAL"> F  </i>
  </separator>
  <separator name="miscellaneous" >
   <i type="int" name="IDIOT">     3</i>
   <i type="int" name="PHON_NSTRUCT">    -1</i>
   <i type="logical" name="LMUSIC"> F  </i>
   <v name="POMASS">     55.84700000</v>
   <v name="DARWINR">      0.00000000</v>
   <v name="DARWINV">      1.00000000</v>
   <i type="logical" name="LCORR"> T  </i>
  </separator>
  <i type="logical" name="GGA_COMPAT"> F  </i>
  <i type="logical" name="LBERRY"> F  </i>
  <i type="int" name="ICORELEVEL">     0</i>
  <i type="logical" name="LDAU"> F  </i>
  <i type="int" name="I_CONSTRAINED_M">     0</i>
  <separator name="electronic exchange-correlation" >
   <i type="string" name="GGA">--</i>
   <i type="int" name="VOSKOWN">     1</i>
   <i type="logical" name="LHFCALC"> F  </i>
   <i type="string" name="PRECFOCK"></i>
   <i type="logical" name="LSYMGRAD"> F  </i>
   <i type="logical" name="LHFONE"> F  </i>
   <i type="logical" name="LRHFCALC"> F  </i>
   <i type="logical" name="LTHOMAS"> F  </i>
   <i type="logical" name="LMODELHF"> F  </i>
   <i type="logical" name="LFOCKACE"> F  </i>
   <i name="ENCUT4O">     -1.00000000</i>
   <i type="int" name="EXXOEP">     0</i>
   <i type="int" name="FOURORBIT">     0</i>
   <i name="AEXX">      0.00000000</i>
   <i name="HFALPHA">      0.00000000</i>
   <i name="MCALPHA">      0.00000000</i>
   <i name="ALDAX">      1.00000000</i>
   <i name="AGGAX">      1.00000000</i>
   <i name="ALDAC">      1.00000000</i>
   <i name="AGGAC">      1.00000000</i>
   <i type="int" name="NKREDX">     1</i>
   <i type="int" name="NKREDY">     1</i>
   <i type="int" name="NKREDZ">     1</i>
   <i type="logical" name="SHIFTRED"> F  </i>
   <i type="logical" name="ODDONLY"> F  </i>
   <i type="logical" name="EVENONLY"> F  </i>
   <i type="int" name="LMAXFOCK">     0</i>
   <i type="int" name="NMAXFOCKAE">     0</i>
   <i type="logical" name="LFOCKAEDFT"> F  </i>
   <i name="HFSCREEN">      0.00000000</i>
   <i name="HFSCREENC">      0.00000000</i>
   <i type="int" name="NBANDSGWLOW">     0</i>
  </separator>
  <separator name="vdW DFT" >
   <i type="logical" name="LUSE_VDW"> F  </i>
   <i name="Zab_VDW">     -0.84910000</i>
   <i name="PARAM1">      0.12340000</i>
   <i name="PARAM2">      1.00000000</i>
   <i name="PARAM3">      0.00000000</i>
  </separator>
  <separator name="model GW" >
   <i type="int" name="MODEL_GW">     0</i>
   <i name="MODEL_EPS0">      7.04046678</i>
   <i name="MODEL_ALPHA">      1.00000000</i>
  </separator>
  <separator name="linear response parameters" >
   <i type="logical" name="LEPSILON"> F  </i>
   <i type="logical" name="LRPA"> F  </i>
   <i type="logical" name="LNABLA"> F  </i>
   <i type="logical" name="LVEL"> F  </i>
   <i type="int" name="KINTER">     0</i>
   <i name="CSHIFT">      0.10000000</i>
   <i name="OMEGAMAX">     -1.00000000</i>
   <i name="DEG_THRESHOLD">      0.00200000</i>
   <i name="RTIME">     -0.10000000</i>
   <i name="WPLASMAI">      0.00000000</i>
   <v name="DFIELD">      0.00000000      0.00000000      0.00000000</v>
   <v name="WPLASMA">      0.00000000      0.00000000      0.00000000      0.00000000      0.00000000      0.00000000      0.00000000      0.00000000      0.00000000</v>
  </separator>
  <separator name="orbital magnetization" >
   <i type="logical" name="NUCIND"> F  </i>
   <v name="MAGPOS">      0.00000000      0.00000000      0.00000000</v>
   <i type="logical" name="LNICSALL"> T  </i>
   <i type="logical" name="ORBITALMAG"> F  </i>
   <i type="logical" name="LMAGBLOCH"> F  </i>
   <i type="logical" name="LCHIMAG"> F  </i>
   <i type="logical" name="LGAUGE"> T  </i>
   <i type="int" name="MAGATOM">     0</i>
   <v name="MAGDIPOL">      0.00000000      0.00000000      0.00000000</v>
   <v name="AVECCONST">      0.00000000      0.00000000      0.00000000</v>
  </separator>
  <separator name="response functions" >
   <i type="logical" name="LFINITE_TEMPERATURE"> F  </i>
   <i type="logical" name="LADDER"> F  </i>
   <i type="logical" name="LRPAFORCE"> F  </i>
   <i type="logical" name="LFXC"> F  </i>
   <i type="logical" name="LHARTREE"> T  </i>
   <i type="int" name="IBSE">     0</i>
   <v type="int" name="KPOINT">    -1     0     0     0</v>
   <i type="logical" name="LTCTC"> F  </i>
   <i type="logical" name="LTCTE"> F  </i>
   <i type="logical" name="LTETE"> F  </i>
   <i type="logical" name="LTRIPLET"> F  </i>
   <i type="logical" name="LFXCEPS"> F  </i>
   <i type="logical" name="LFXHEG"> F  </i>
   <i type="int" name="NATURALO">     2</i>
   <i type="logical" name="LHOLEGF"> F  </i>
   <i type="logical" name="L2ORDER"> F  </i>
   <i type="logical" name="LDMP1"> F  </i>
   <i type="logical" name="LMP2LT"> F  </i>
   <i type="logical" name="LSMP2LT"> F  </i>
   <i type="logical" name="LGWLF"> F  </i>
   <i name="ENCUTGW">     -2.00000000</i>
   <i name="ENCUTGWSOFT">     -2.00000000</i>
   <i name="ENCUTLF">     -1.00000000</i>
   <i type="logical" name="LESF_SPLINES"> F  </i>
   <i type="int" name="LMAXMP2">    -1</i>
   <i name="SCISSOR">      0.00000000</i>
   <i type="int" name="NOMEGA">     0</i>
   <i type="int" name="NOMEGAR">     0</i>
   <i type="int" name="NBANDSGW">    -1</i>
   <i type="int" name="NBANDSO">    -1</i>
   <i type="int" name="NBANDSV">    -1</i>
   <i type="int" name="NELM">    90</i>
   <i type="int" name="NELMHF">     1</i>
   <i type="int" name="DIM">     3</i>
   <i type="int" name="IESPILON">     4</i>
   <i type="int" name="ANTIRES">     0</i>
   <i name="OMEGAMAX">    -30.00000000</i>
   <i name="OMEGAMIN">    -30.00000000</i>
   <i name="OMEGATL">   -200.00000000</i>
   <i type="int" name="OMEGAGRID">     0</i>
   <i name="CSHIFT">     -0.10000000</i>
   <i type="logical" name="LSELFENERGY"> F  </i>
   <i type="logical" name="LSPECTRAL"> F  </i>
   <i type="logical" name="LSPECTRALGW"> F  </i>
   <i type="logical" name="LSINGLES"> F  </i>
   <i type="logical" name="LFERMIGW"> F  </i>
   <i type="logical" name="ODDONLYGW"> F  </i>
   <i type="logical" name="EVENONLYGW"> F  </i>
   <i type="int" name="NKREDLFX">     1</i>
   <i type="int" name="NKREDLFY">     1</i>
   <i type="int" name="NKREDLFZ">     1</i>
   <i type="int" name="MAXMEM">  2800</i>
   <i type="int" name="TELESCOPE">     0</i>
   <i type="int" name="NTAUPAR">    -1</i>
   <i type="int" name="NOMEGAPAR">    -1</i>
   <i name="DAMP_NEWTON">      0.80000001</i>
   <i name="LAMBDA">      1.00000000</i>
  </separator>
  <separator name="External order field" >
   <i name="OFIELD_KAPPA">      0.00000000</i>
   <v name="OFIELD_K">      0.00000000      0.00000000      0.00000000</v>
   <i name="OFIELD_Q6_NEAR">      0.00000000</i>
   <i name="OFIELD_Q6_FAR">      0.00000000</i>
   <i name="OFIELD_A">      0.00000000</i>
  </separator>
 </parameters>
 <atominfo>
  <atoms>       2 </atoms>
  <types>       1 </types>
  <array name="atoms" >
   <dimension dim="1">ion</dimension>
   <field type="string">element</field>
   <field type="int">atomtype</field>
   <set>
    <rc><c>Fe</c><c>   1</c></rc>
    <rc><c>Fe</c><c>   1</c></rc>
   </set>
  </array>
  <array name="atomtypes" >
   <dimension dim="1">type</dimension>
   <field type="int">atomspertype</field>
   <field type="string">element</field>
   <field>mass</field>
   <field>valence</field>
   <field type="string">pseudopotential</field>
   <set>
    <rc><c>   2</c><c>Fe</c><c>     55.84700000</c><c>      8.00000000</c><c>  PAW_PBE Fe 06Sep2000                  </c></rc>
   </set>
  </array>
 </atominfo>
 <structure name="initialpos" >
  <crystal>
   <varray name="basis" >
    <v>       2.86303550       0.00000000       0.00000000 </v>
    <v>       0.00000000       2.86303550       0.00000000 </v>
    <v>       0.00000000       0.00000000       2.86303550 </v>
   </varray>
   <i name="volume">     23.46822259 </i>
   <varray name="rec_basis" >
    <v>       0.34927964      -0.00000000       0.00000000 </v>
    <v>       0.00000000       0.34927964       0.00000000 </v>
    <v>      -0.00000000      -0.00000000       0.34927964 </v>
   </varray>
  </crystal>
  <varray name="positions" >
   <v>       0.00000000       0.00000000       0.00000000 </v>
   <v>       0.50000000       0.50000000       0.50000000 </v>
  </varray>
 </structure>
 <calculation>
  <scstep>
   <time name="dav">    6.00    6.00</time>
   <time name="total">    7.70    7.71</time>
   <energy>
    <i name="alphaZ">    117.79976220 </i>
    <i name="ewald">  -1171.43779597 </i>
    <i name="hartreedc">   -228.04061712 </i>
    <i name="XCdc">     14.27161833 </i>
    <i name="pawpsdc">   1103.49540010 </i>
    <i name="pawaedc">  -1119.11610375 </i>
    <i name="eentropy">      0.00089778 </i>
    <i name="bandstr">    178.76361283 </i>
    <i name="atom">   1188.62577877 </i>
    <i name="e_fr_energy">     84.36255318 </i>
    <i name="e_wo_entrp">     84.36165540 </i>
    <i name="e_0_energy">     84.36225392 </i>
   </energy>
  </scstep>
  <scstep>
   <time name="dav">    5.69    5.71</time>
   <time name="total">    5.70    5.72</time>
   <energy>
    <i name="e_fr_energy">    -11.82962236 </i>
    <i name="e_wo_entrp">    -11.82945789 </i>
    <i name="e_0_energy">    -11.82956753 </i>
   </energy>
  </scstep>
  <scstep>
   <time name="dav">    6.15    6.17</time>
   <time name="total">    6.16    6.18</time>
   <energy>
    <i name="e_fr_energy">    -16.04905411 </i>
    <i name="e_wo_entrp">    -16.05038244 </i>
    <i name="e_0_energy">    -16.04949689 </i>
   </energy>
  </scstep>
  <scstep>
   <time name="dav">    6.00    6.02</time>
   <time name="total">    6.01    6.03</time>
   <energy>
    <i name="e_fr_energy">    -16.08566104 </i>
    <i name="e_wo_entrp">    -16.08700882 </i>
    <i name="e_0_energy">    -16.08611030 </i>
   </energy>
  </scstep>
  <scstep>
   <time name="dav">    6.12    6.14</time>
   <time name="total">    6.64    6.66</time>
   <energy>
    <i name="e_fr_energy">    -16.08606238 </i>
    <i name="e_wo_entrp">    -16.08741027 </i>
    <i name="e_0_energy">    -16.08651167 </i>
   </energy>
  </scstep>
  <scstep>
   <time name="dav">    6.05    6.09</time>
   <time name="total">    8.21    8.27</time>
   <energy>
    <i name="e_fr_energy">    -16.56168302 </i>
    <i name="e_wo_entrp">    -16.56141429 </i>
    <i name="e_0_energy">    -16.56159344 </i>
   </energy>
  </scstep>
  <scstep>
   <time name="dav">    6.39    6.39</time>
   <time name="total">    8.55    8.57</time>
   <energy>
    <i name="e_fr_energy">    -16.49820511 </i>
    <i name="e_wo_entrp">    -16.49600687 </i>
    <i name="e_0_energy">    -16.49747236 </i>
   </energy>
  </scstep>
  <scstep>
   <time name="dav">    6.97    6.97</time>
   <time name="total">    9.14    9.16</time>
   <energy>
    <i name="e_fr_energy">    -16.48085649 </i>
    <i name="e_wo_entrp">    -16.47835270 </i>
    <i name="e_0_energy">    -16.48002190 </i>
   </energy>
  </scstep>
  <scstep>
   <time name="dav">    7.66    7.67</time>
   <time name="total">    9.83    9.85</time>
   <energy>
    <i name="e_fr_energy">    -16.46901038 </i>
    <i name="e_wo_entrp">    -16.46614832 </i>
    <i name="e_0_energy">    -16.46805636 </i>
   </energy>
  </scstep>
  <scstep>
   <time name="dav">    6.46    6.46</time>
   <time name="total">    8.62    8.64</time>
   <energy>
    <i name="e_fr_energy">    -16.46852557 </i>
    <i name="e_wo_entrp">    -16.46575053 </i>
    <i name="e_0_energy">    -16.46760056 </i>
   </energy>
  </scstep>
  <scstep>
   <time name="dav">    6.52    6.54</time>
   <time name="total">    8.69    8.72</time>
   <energy>
    <i name="e_fr_energy">    -16.46855350 </i>
    <i name="e_wo_entrp">    -16.46577821 </i>
    <i name="e_0_energy">    -16.46762840 </i>
   </energy>
  </scstep>
  <scstep>
   <time name="dav">    5.76    5.76</time>
   <time name="total">    7.93    7.95</time>
   <energy>
    <i name="e_fr_energy">    -16.46854356 </i>
    <i name="e_wo_entrp">    -16.46577310 </i>
    <i name="e_0_energy">    -16.46762007 </i>
   </energy>
  </scstep>
  <scstep>
   <time name="dav">    4.93    4.93</time>
   <time name="total">    7.10    7.12</time>
   <energy>
    <i name="e_fr_energy">    -16.46854491 </i>
    <i name="e_wo_entrp">    -16.46577119 </i>
    <i name="e_0_energy">    -16.46762034 </i>
   </energy>
  </scstep>
  <scstep>
   <time name="dav">    3.96    3.96</time>
   <time name="total">    5.66    5.68</time>
   <energy>
    <i name="alphaZ">    117.79976220 </i>
    <i name="ewald">  -1171.43779597 </i>
    <i name="hartreedc">   -195.17987164 </i>
    <i name="XCdc">      8.52703765 </i>
    <i name="pawpsdc">   1412.07105574 </i>
    <i name="pawaedc">  -1429.98005713 </i>
    <i name="eentropy">     -0.00277423 </i>
    <i name="bandstr">     53.10832040 </i>
    <i name="atom">   1188.62577877 </i>
    <i name="e_fr_energy">    -16.46854421 </i>
    <i name="e_wo_entrp">    -16.46576997 </i>
    <i name="e_0_energy">    -16.46761946 </i>
   </energy>
  </scstep>
  <structure>
   <crystal>
    <varray name="basis" >
     <v>       2.86303550       0.00000000       0.00000000 </v>
     <v>       0.00000000       2.86303550       0.00000000 </v>
     <v>       0.00000000       0.00000000       2.86303550 </v>
    </varray>
    <i name="volume">     23.46822259 </i>
    <varray name="rec_basis" >
     <v>       0.34927964      -0.00000000       0.00000000 </v>
     <v>       0.00000000       0.34927964       0.00000000 </v>
     <v>      -0.00000000      -0.00000000       0.34927964 </v>
    </varray>
   </crystal>
   <varray name="positions" >
    <v>       0.00000000       0.00000000       0.00000000 </v>
    <v>       0.50000000       0.50000000       0.50000000 </v>
   </varray>
  </structure>
  <varray name="forces" >
   <v>       0.00000000       0.00000000       0.00000000 </v>
   <v>      -0.00000000      -0.00000000      -0.00000000 </v>
  </varray>
  <varray name="stress" >
   <v>     -60.18662479      -0.00000000      -0.00000000 </v>
   <v>      -0.00000000     -60.18662479       0.00000000 </v>
   <v>      -0.00000000      -0.00000000     -60.18662479 </v>
  </varray>
  <energy>
   <i name="e_fr_energy">    -16.46854421 </i>
   <i name="e_wo_entrp">    -16.46576997 </i>
   <i name="e_0_energy">    -16.46761946 </i>
  </energy>
  <time name="totalsc">  115.98  118.34</time>
 </calculation>
 <calculation>
  <scstep>
   <time name="dav">    6.00    6.01</time>
   <time name="total">    8.18    8.20</time>
   <energy>
    <i name="alphaZ">    125.64621469 </i>
    <i name="ewald">  -1196.88997875 </i>
    <i name="hartreedc">   -199.42183065 </i>
    <i name="XCdc">      9.78470867 </i>
    <i name="pawpsdc">   1412.04300063 </i>
    <i name="pawaedc">  -1429.95026398 </i>
    <i name="eentropy">     -0.00188086 </i>
    <i name="bandstr">     73.02882564 </i>
    <i name="atom">   1188.62577877 </i>
    <i name="e_fr_energy">    -17.13542584 </i>
    <i name="e_wo_entrp">    -17.13354498 </i>
    <i name="e_0_energy">    -17.13479889 </i>
   </energy>
  </scstep>
  <scstep>
   <time name="dav">    5.98    5.99</time>
   <time name="total">    8.16    8.18</time>
   <energy>
    <i name="e_fr_energy">    -16.51683200 </i>
    <i name="e_wo_entrp">    -16.51291833 </i>
    <i name="e_0_energy">    -16.51552744 </i>
   </energy>
  </scstep>
  <scstep>
   <time name="dav">    6.33    6.34</time>
   <time name="total">    8.52    8.54</time>
   <energy>
    <i name="e_fr_energy">    -16.48290266 </i>
    <i name="e_wo_entrp">    -16.47989258 </i>
    <i name="e_0_energy">    -16.48189930 </i>
   </energy>
  </scstep>
  <scstep>
   <time name="dav">    6.65    6.65</time>
   <time name="total">    8.84    8.86</time>
   <energy>
    <i name="e_fr_energy">    -16.47636766 </i>
    <i name="e_wo_entrp">    -16.47353816 </i>
    <i name="e_0_energy">    -16.47542450 </i>
   </energy>
  </scstep>
  <scstep>
   <time name="dav">    6.58    6.58</time>
   <time name="total">    8.76    8.79</time>
   <energy>
    <i name="e_fr_energy">    -16.47113991 </i>
    <i name="e_wo_entrp">    -16.46848201 </i>
    <i name="e_0_energy">    -16.47025394 </i>
   </energy>
  </scstep>
  <scstep>
   <time name="dav">    6.13    6.13</time>
   <time name="total">    8.31    8.33</time>
   <energy>
    <i name="e_fr_energy">    -16.47122512 </i>
    <i name="e_wo_entrp">    -16.46854749 </i>
    <i name="e_0_energy">    -16.47033257 </i>
   </energy>
  </scstep>
  <scstep>
   <time name="dav">    5.84    5.85</time>
   <time name="total">    8.03    8.05</time>
   <energy>
    <i name="e_fr_energy">    -16.47123137 </i>
    <i name="e_wo_entrp">    -16.46854403 </i>
    <i name="e_0_energy">    -16.47033559 </i>
   </energy>
  </scstep>
  <scstep>
   <time name="dav">    4.93    4.93</time>
   <time name="total">    7.11    7.14</time>
   <energy>
    <i name="e_fr_energy">    -16.47122834 </i>
    <i name="e_wo_entrp">    -16.46854007 </i>
    <i name="e_0_energy">    -16.47033225 </i>
   </energy>
  </scstep>
  <scstep>
   <time name="dav">    3.85    3.86</time>
   <time name="total">    5.57    5.59</time>
   <energy>
    <i name="alphaZ">    125.64621469 </i>
    <i name="ewald">  -1196.88997875 </i>
    <i name="hartreedc">   -185.19952460 </i>
    <i name="XCdc">      8.68288025 </i>
    <i name="pawpsdc">   1470.45622385 </i>
    <i name="pawaedc">  -1488.78146345 </i>
    <i name="eentropy">     -0.00268227 </i>
    <i name="bandstr">     60.99132414 </i>
    <i name="atom">   1188.62577877 </i>
    <i name="e_fr_energy">    -16.47122737 </i>
    <i name="e_wo_entrp">    -16.46854510 </i>
    <i name="e_0_energy">    -16.47033328 </i>
   </energy>
  </scstep>
  <structure>
   <crystal>
    <varray name="basis" >
     <v>       2.80215229      -0.00000000       0.00000000 </v>
     <v>       0.00000000       2.80215229       0.00000000 </v>
     <v>      -0.00000000      -0.00000000       2.80215229 </v>
    </varray>
    <i name="volume">     22.00266078 </i>
    <varray name="rec_basis" >
     <v>       0.35686854      -0.00000000       0.00000000 </v>
     <v>       0.00000000       0.35686854       0.00000000 </v>
     <v>      -0.00000000      -0.00000000       0.35686854 </v>
    </varray>
   </crystal>
   <varray name="positions" >
    <v>       0.00000000       0.00000000       0.00000000 </v>
    <v>       0.50000000       0.50000000       0.50000000 </v>
   </varray>
  </structure>
  <varray name="forces" >
   <v>      -0.00000000       0.00000000      -0.00000000 </v>
   <v>       0.00000000      -0.00000000       0.00000000 </v>
  </varray>
  <varray name="stress" >
   <v>      62.47848642       0.00000000       0.00000000 </v>
   <v>       0.00000000      62.47848642      -0.00000000 </v>
   <v>       0.00000000       0.00000000      62.47848642 </v>
  </varray>
  <energy>
   <i name="e_fr_energy">    -16.47122737 </i>
   <i name="e_wo_entrp">    -16.46854510 </i>
   <i name="e_0_energy">    -16.47033328 </i>
  </energy>
  <time name="totalsc">   80.42   81.01</time>
 </calculation>
 <calculation>
  <scstep>
   <time name="dav">    5.98    5.99</time>
   <time name="total">    8.16    8.17</time>
   <energy>
    <i name="alphaZ">    121.89602168 </i>
    <i name="ewald">  -1184.86154604 </i>
    <i name="hartreedc">   -183.34036554 </i>
    <i name="XCdc">      8.10624742 </i>
    <i name="pawpsdc">   1470.48127057 </i>
    <i name="pawaedc">  -1488.80472206 </i>
    <i name="eentropy">     -0.00150311 </i>
    <i name="bandstr">     51.26368468 </i>
    <i name="atom">   1188.62577877 </i>
    <i name="e_fr_energy">    -16.63513362 </i>
    <i name="e_wo_entrp">    -16.63363052 </i>
    <i name="e_0_energy">    -16.63463259 </i>
   </energy>
  </scstep>
  <scstep>
   <time name="dav">    6.05    6.06</time>
   <time name="total">    8.24    8.28</time>
   <energy>
    <i name="e_fr_energy">    -16.50064827 </i>
    <i name="e_wo_entrp">    -16.49840155 </i>
    <i name="e_0_energy">    -16.49989936 </i>
   </energy>
  </scstep>
  <scstep>
   <time name="dav">    6.32    6.33</time>
   <time name="total">    8.50    8.52</time>
   <energy>
    <i name="e_fr_energy">    -16.48684792 </i>
    <i name="e_wo_entrp">    -16.48414761 </i>
    <i name="e_0_energy">    -16.48594781 </i>
   </energy>
  </scstep>
  <scstep>
   <time name="dav">    7.00    7.01</time>
   <time name="total">    9.18    9.20</time>
   <energy>
    <i name="e_fr_energy">    -16.48522777 </i>
    <i name="e_wo_entrp">    -16.48247545 </i>
    <i name="e_0_energy">    -16.48431033 </i>
   </energy>
  </scstep>
  <scstep>
   <time name="dav">    6.21    6.21</time>
   <time name="total">    8.38    8.40</time>
   <energy>
    <i name="e_fr_energy">    -16.48395433 </i>
    <i name="e_wo_entrp">    -16.48127916 </i>
    <i name="e_0_energy">    -16.48306260 </i>
   </energy>
  </scstep>
  <scstep>
   <time name="dav">    5.91    5.91</time>
   <time name="total">    8.08    8.11</time>
   <energy>
    <i name="e_fr_energy">    -16.48397483 </i>
    <i name="e_wo_entrp">    -16.48130773 </i>
    <i name="e_0_energy">    -16.48308580 </i>
   </energy>
  </scstep>
  <scstep>
   <time name="dav">    5.69    5.70</time>
   <time name="total">    7.87    7.89</time>
   <energy>
    <i name="e_fr_energy">    -16.48397998 </i>
    <i name="e_wo_entrp">    -16.48131015 </i>
    <i name="e_0_energy">    -16.48309004 </i>
   </energy>
  </scstep>
  <scstep>
   <time name="dav">    4.07    4.08</time>
   <time name="total">    6.26    6.28</time>
   <energy>
    <i name="e_fr_energy">    -16.48398284 </i>
    <i name="e_wo_entrp">    -16.48131304 </i>
    <i name="e_0_energy">    -16.48309290 </i>
   </energy>
  </scstep>
  <scstep>
   <time name="dav">    3.84    3.84</time>
   <time name="total">    5.54    5.56</time>
   <energy>
    <i name="alphaZ">    121.89602168 </i>
    <i name="ewald">  -1184.86154604 </i>
    <i name="hartreedc">   -189.83768533 </i>
    <i name="XCdc">      8.60264161 </i>
    <i name="pawpsdc">   1441.68029464 </i>
    <i name="pawaedc">  -1459.79587504 </i>
    <i name="eentropy">     -0.00266998 </i>
    <i name="bandstr">     57.20905676 </i>
    <i name="atom">   1188.62577877 </i>
    <i name="e_fr_energy">    -16.48398292 </i>
    <i name="e_wo_entrp">    -16.48131294 </i>
    <i name="e_0_energy">    -16.48309293 </i>
   </energy>
  </scstep>
  <structure>
   <crystal>
    <varray name="basis" >
     <v>       2.83059907      -0.00000000       0.00000000 </v>
     <v>       0.00000000       2.83059907       0.00000000 </v>
     <v>      -0.00000000      -0.00000000       2.83059907 </v>
    </varray>
    <i name="volume">     22.67958381 </i>
    <varray name="rec_basis" >
     <v>       0.35328211      -0.00000000       0.00000000 </v>
     <v>       0.00000000       0.35328211       0.00000000 </v>
     <v>      -0.00000000      -0.00000000       0.35328211 </v>
    </varray>
   </crystal>
   <varray name="positions" >
    <v>       0.00000000       0.00000000       0.00000000 </v>
    <v>       0.50000000       0.50000000       0.50000000 </v>
   </varray>
  </structure>
  <varray name="forces" >
   <v>      -0.00000000      -0.00000000       0.00000000 </v>
   <v>       0.00000000       0.00000000      -0.00000000 </v>
  </varray>
  <varray name="stress" >
   <v>      -0.15062678       0.00000000      -0.00000000 </v>
   <v>       0.00000000      -0.15062678       0.00000000 </v>
   <v>      -0.00000000      -0.00000000      -0.15062678 </v>
  </varray>
  <energy>
   <i name="e_fr_energy">    -16.48398292 </i>
   <i name="e_wo_entrp">    -16.48131294 </i>
   <i name="e_0_energy">    -16.48309293 </i>
  </energy>
  <time name="totalsc">   79.31   81.85</time>
  <eigenvalues>
   <array>
    <dimension dim="1">band</dimension>
    <dimension dim="2">kpoint</dimension>
    <dimension dim="3">spin</dimension>
    <field>eigene</field>
    <field>occ</field>
    <set>
     <set comment="spin 1">
      <set comment="kpoint 1">
       <r>   -2.5977    1.0000 </r>
       <r>    0.9868    1.0000 </r>
       <r>    0.9868    1.0000 </r>
       <r>    3.5385    1.0000 </r>
       <r>    3.5385    1.0000 </r>
       <r>    3.5385    1.0000 </r>
       <r>    4.7513    1.0000 </r>
       <r>    4.7513    1.0000 </r>
       <r>    5.9636    0.0724 </r>
       <r>    5.9636    0.0724 </r>
       <r>    5.9636    0.0724 </r>
       <r>   15.7947    0.0000 </r>
       <r>   15.7947    0.0000 </r>
       <r>   15.7947    0.0000 </r>
       <r>   21.5109    0.0000 </r>
       <r>   21.5109    0.0000 </r>
       <r>   26.6494    0.0000 </r>
       <r>   30.8865    0.0000 </r>
       <r>   30.8865    0.0000 </r>
       <r>   30.8865    0.0000 </r>
      </set>
      <set comment="kpoint 2">
       <r>   -2.5052    1.0000 </r>
       <r>    1.0263    1.0000 </r>
       <r>    1.0280    1.0000 </r>
       <r>    3.5377    1.0000 </r>
       <r>    3.5377    1.0000 </r>
       <r>    3.5638    1.0000 </r>
       <r>    4.7100    1.0000 </r>
       <r>    4.7677    1.0000 </r>
       <r>    5.8853    0.3144 </r>
       <r>    5.8853    0.3144 </r>
       <r>    5.9360    0.1415 </r>
       <r>   15.1238    0.0000 </r>
       <r>   15.9702    0.0000 </r>
       <r>   15.9702    0.0000 </r>
       <r>   21.5375    0.0000 </r>
       <r>   22.0174    0.0000 </r>
       <r>   26.9495    0.0000 </r>
       <r>   30.2528    0.0000 </r>
       <r>   30.8055    0.0000 </r>
       <r>   30.8055    0.0000 </r>
      </set>
      <set comment="kpoint 3">
       <r>   -2.2312    1.0000 </r>
       <r>    1.1434    1.0000 </r>
       <r>    1.1441    1.0000 </r>
       <r>    3.5381    1.0000 </r>
       <r>    3.5381    1.0000 </r>
       <r>    3.6389    1.0000 </r>
       <r>    4.5877    1.0000 </r>
       <r>    4.8156    1.0000 </r>
       <r>    5.6697    1.0022 </r>
       <r>    5.6697    1.0022 </r>
       <r>    5.8546    0.4391 </r>
       <r>   13.6509    0.0000 </r>
       <r>   16.4762    0.0000 </r>
       <r>   16.4762    0.0000 </r>
       <r>   21.6190    0.0000 </r>
       <r>   22.8984    0.0000 </r>
       <r>   27.9581    0.0000 </r>
       <r>   28.9865    0.0000 </r>
       <r>   30.4457    0.0000 </r>
       <r>   30.4457    0.0000 </r>
      </set>
      <set comment="kpoint 4">
       <r>   -1.7877    1.0000 </r>
       <r>    1.3118    1.0000 </r>
       <r>    1.3338    1.0000 </r>
       <r>    3.5468    1.0000 </r>
       <r>    3.5468    1.0000 </r>
       <r>    3.7609    1.0000 </r>
       <r>    4.3891    1.0000 </r>
       <r>    4.8927    1.0000 </r>
       <r>    5.3635    1.0019 </r>
       <r>    5.3635    1.0019 </r>
       <r>    5.7232    0.9130 </r>
       <r>   11.9610    0.0000 </r>
       <r>   17.2634    0.0000 </r>
       <r>   17.2634    0.0000 </r>
       <r>   21.7600    0.0000 </r>
       <r>   23.5383    0.0000 </r>
       <r>   27.6609    0.0000 </r>
       <r>   29.6041    0.0000 </r>
       <r>   29.6041    0.0000 </r>
       <r>   29.7339    0.0000 </r>
      </set>
      <set comment="kpoint 5">
       <r>   -1.1969    1.0000 </r>
       <r>    1.4911    1.0000 </r>
       <r>    1.5905    1.0000 </r>
       <r>    3.5746    1.0000 </r>
       <r>    3.5746    1.0000 </r>
       <r>    3.9251    1.0000 </r>
       <r>    4.1223    1.0000 </r>
       <r>    4.9996    1.0000 </r>
       <r>    5.0176    1.0000 </r>
       <r>    5.0176    1.0000 </r>
       <r>    5.5483    1.0294 </r>
       <r>   10.2915   -0.0000 </r>
       <r>   18.2755    0.0000 </r>
       <r>   18.2755    0.0000 </r>
       <r>   21.9685    0.0000 </r>
       <r>   23.9591    0.0000 </r>
       <r>   26.4438    0.0000 </r>
       <r>   28.3296    0.0000 </r>
       <r>   28.3296    0.0000 </r>
       <r>   30.1352    0.0000 </r>
      </set>
      <set comment="kpoint 6">
       <r>   -0.4979    1.0000 </r>
       <r>    1.6216    1.0000 </r>
       <r>    1.9037    1.0000 </r>
       <r>    3.6335    1.0000 </r>
       <r>    3.6335    1.0000 </r>
       <r>    3.7989    1.0000 </r>
       <r>    4.1249    1.0000 </r>
       <r>    4.6739    1.0000 </r>
       <r>    4.6739    1.0000 </r>
       <r>    5.1482    1.0000 </r>
       <r>    5.3380    1.0011 </r>
       <r>    8.7562   -0.0000 </r>
       <r>   19.4634    0.0000 </r>
       <r>   19.4634    0.0000 </r>
       <r>   22.2550    0.0000 </r>
       <r>   24.3383    0.0000 </r>
       <r>   25.3798    0.0000 </r>
       <r>   26.8384    0.0000 </r>
       <r>   26.8384    0.0000 </r>
       <r>   28.6374    0.0000 </r>
      </set>
      <set comment="kpoint 7">
       <r>    0.2425    1.0000 </r>
       <r>    1.6212    1.0000 </r>
       <r>    2.2606    1.0000 </r>
       <r>    3.4335    1.0000 </r>
       <r>    3.7348    1.0000 </r>
       <r>    3.7348    1.0000 </r>
       <r>    4.3525    1.0000 </r>
       <r>    4.3612    1.0000 </r>
       <r>    4.3612    1.0000 </r>
       <r>    5.1023    1.0000 </r>
       <r>    5.3771    1.0025 </r>
       <r>    7.4435   -0.0000 </r>
       <r>   20.7879    0.0000 </r>
       <r>   20.7879    0.0000 </r>
       <r>   22.6330    0.0000 </r>
       <r>   24.4767    0.0000 </r>
       <r>   24.8016    0.0000 </r>
       <r>   25.2785    0.0000 </r>
       <r>   25.2785    0.0000 </r>
       <r>   27.3384    0.0000 </r>
      </set>
      <set comment="kpoint 8">
       <r>    0.9177    1.0000 </r>
       <r>    1.4000    1.0000 </r>
       <r>    2.6462    1.0000 </r>
       <r>    3.0432    1.0000 </r>
       <r>    3.8874    1.0000 </r>
       <r>    3.8874    1.0000 </r>
       <r>    4.0964    1.0000 </r>
       <r>    4.0964    1.0000 </r>
       <r>    4.5984    1.0000 </r>
       <r>    4.8520    1.0000 </r>
       <r>    5.7689    0.7813 </r>
       <r>    6.4362   -0.0001 </r>
       <r>   22.2175    0.0000 </r>
       <r>   22.2175    0.0000 </r>
       <r>   23.1183    0.0000 </r>
       <r>   23.7242    0.0000 </r>
       <r>   23.7242    0.0000 </r>
       <r>   23.7273    0.0000 </r>
       <r>   25.4285    0.0000 </r>
       <r>   26.2671    0.0000 </r>
      </set>
      <set comment="kpoint 9">
       <r>   -2.4133    1.0000 </r>
       <r>    1.0650    1.0000 </r>
       <r>    1.0693    1.0000 </r>
       <r>    3.4882    1.0000 </r>
       <r>    3.5345    1.0000 </r>
       <r>    3.6377    1.0000 </r>
       <r>    4.7018    1.0000 </r>
       <r>    4.7554    1.0000 </r>
       <r>    5.7457    0.8544 </r>
       <r>    5.8070    0.6382 </r>
       <r>    5.9752    0.0491 </r>
       <r>   15.1415    0.0000 </r>
       <r>   15.4379    0.0000 </r>
       <r>   16.1403    0.0000 </r>
       <r>   21.7985    0.0000 </r>
       <r>   22.3328    0.0000 </r>
       <r>   27.2246    0.0000 </r>
       <r>   29.6909    0.0000 </r>
       <r>   30.6101    0.0000 </r>
       <r>   30.7555    0.0000 </r>
      </set>
      <set comment="kpoint 10">
       <r>   -2.1416    1.0000 </r>
       <r>    1.1766    1.0000 </r>
       <r>    1.1886    1.0000 </r>
       <r>    3.4488    1.0000 </r>
       <r>    3.5275    1.0000 </r>
       <r>    3.7517    1.0000 </r>
       <r>    4.6012    1.0000 </r>
       <r>    4.7946    1.0000 </r>
       <r>    5.4923    1.0169 </r>
       <r>    5.5926    1.0354 </r>
       <r>    5.9460    0.1143 </r>
       <r>   13.7688    0.0000 </r>
       <r>   15.7987    0.0000 </r>
       <r>   16.6324    0.0000 </r>
       <r>   21.9674    0.0000 </r>
       <r>   23.2351    0.0000 </r>
       <r>   28.1653    0.0000 </r>
       <r>   28.4152    0.0000 </r>
       <r>   30.1548    0.0000 </r>
       <r>   30.4747    0.0000 </r>
      </set>
      <set comment="kpoint 11">
       <r>   -1.7023    1.0000 </r>
       <r>    1.3462    1.0000 </r>
       <r>    1.3728    1.0000 </r>
       <r>    3.4314    1.0000 </r>
       <r>    3.5232    1.0000 </r>
       <r>    3.8983    1.0000 </r>
       <r>    4.4237    1.0000 </r>
       <r>    4.8732    1.0000 </r>
       <r>    5.1736    1.0000 </r>
       <r>    5.2908    1.0004 </r>
       <r>    5.8456    0.4771 </r>
       <r>   12.0760    0.0000 </r>
       <r>   16.5202    0.0000 </r>
       <r>   17.4017    0.0000 </r>
       <r>   22.1460    0.0000 </r>
       <r>   23.9656    0.0000 </r>
       <r>   27.0212    0.0000 </r>
       <r>   29.2671    0.0000 </r>
       <r>   29.6906    0.0000 </r>
       <r>   29.8719    0.0000 </r>
      </set>
      <set comment="kpoint 12">
       <r>   -1.1185    1.0000 </r>
       <r>    1.5269    1.0000 </r>
       <r>    1.6201    1.0000 </r>
       <r>    3.4417    1.0000 </r>
       <r>    3.5232    1.0000 </r>
       <r>    4.0774    1.0000 </r>
       <r>    4.1963    1.0000 </r>
       <r>    4.8279    1.0000 </r>
       <r>    4.9562    1.0000 </r>
       <r>    4.9818    1.0000 </r>
       <r>    5.6892    0.9775 </r>
       <r>   10.3998   -0.0000 </r>
       <r>   17.4370    0.0000 </r>
       <r>   18.3960    0.0000 </r>
       <r>   22.3965    0.0000 </r>
       <r>   24.4726    0.0000 </r>
       <r>   25.6808    0.0000 </r>
       <r>   28.0581    0.0000 </r>
       <r>   28.4213    0.0000 </r>
       <r>   31.1983    0.0000 </r>
      </set>
      <set comment="kpoint 13">
       <r>   -0.4302    1.0000 </r>
       <r>    1.6548    1.0000 </r>
       <r>    1.9224    1.0000 </r>
       <r>    3.4884    1.0000 </r>
       <r>    3.4944    1.0000 </r>
       <r>    3.9761    1.0000 </r>
       <r>    4.2859    1.0000 </r>
       <r>    4.4896    1.0000 </r>
       <r>    4.6348    1.0000 </r>
       <r>    5.1323    1.0000 </r>
       <r>    5.4906    1.0165 </r>
       <r>    8.8529   -0.0000 </r>
       <r>   18.4889    0.0000 </r>
       <r>   19.5683    0.0000 </r>
       <r>   22.7408    0.0000 </r>
       <r>   24.4165    0.0000 </r>
       <r>   24.9413    0.0000 </r>
       <r>   26.7791    0.0000 </r>
       <r>   26.9213    0.0000 </r>
       <r>   29.7169    0.0000 </r>
      </set>
      <set comment="kpoint 14">
       <r>    0.2950    1.0000 </r>
       <r>    1.6490    1.0000 </r>
       <r>    2.2653    1.0000 </r>
       <r>    3.3167    1.0000 </r>
       <r>    3.5803    1.0000 </r>
       <r>    3.9040    1.0000 </r>
       <r>    4.1839    1.0000 </r>
       <r>    4.3599    1.0000 </r>
       <r>    4.5176    1.0000 </r>
       <r>    5.2622    1.0002 </r>
       <r>    5.3680    1.0021 </r>
       <r>    7.5196   -0.0000 </r>
       <r>   19.6264    0.0000 </r>
       <r>   20.8801    0.0000 </r>
       <r>   23.2029    0.0000 </r>
       <r>   23.2029    0.0000 </r>
       <r>   25.3562    0.0000 </r>
       <r>   25.5074    0.0000 </r>
       <r>   25.6001    0.0000 </r>
       <r>   28.3689    0.0000 </r>
      </set>
      <set comment="kpoint 15">
       <r>    0.9534    1.0000 </r>
       <r>    1.4260    1.0000 </r>
       <r>    2.6311    1.0000 </r>
       <r>    2.9960    1.0000 </r>
       <r>    3.7250    1.0000 </r>
       <r>    3.9265    1.0000 </r>
       <r>    3.9888    1.0000 </r>
       <r>    4.1457    1.0000 </r>
       <r>    4.7643    1.0000 </r>
       <r>    5.0162    1.0000 </r>
       <r>    5.7799    0.7425 </r>
       <r>    6.4806   -0.0000 </r>
       <r>   20.8087    0.0000 </r>
       <r>   22.0051    0.0000 </r>
       <r>   22.3007    0.0000 </r>
       <r>   23.8023    0.0000 </r>
       <r>   23.8131    0.0000 </r>
       <r>   24.6050    0.0000 </r>
       <r>   26.2495    0.0000 </r>
       <r>   27.2035    0.0000 </r>
      </set>
      <set comment="kpoint 16">
       <r>   -1.8772    1.0000 </r>
       <r>    1.2723    1.0000 </r>
       <r>    1.3167    1.0000 </r>
       <r>    3.3479    1.0000 </r>
       <r>    3.5015    1.0000 </r>
       <r>    3.9246    1.0000 </r>
       <r>    4.6019    1.0000 </r>
       <r>    4.7689    1.0000 </r>
       <r>    5.1856    1.0000 </r>
       <r>    5.3841    1.0029 </r>
       <r>    6.0079    0.0007 </r>
       <r>   13.7516    0.0000 </r>
       <r>   14.7257    0.0000 </r>
       <r>   17.0877    0.0000 </r>
       <r>   22.3095    0.0000 </r>
       <r>   24.2353    0.0000 </r>
       <r>   27.1002    0.0000 </r>
       <r>   28.8978    0.0000 </r>
       <r>   29.6368    0.0000 </r>
       <r>   30.4487    0.0000 </r>
      </set>
      <set comment="kpoint 17">
       <r>   -1.4515    1.0000 </r>
       <r>    1.4173    1.0000 </r>
       <r>    1.5113    1.0000 </r>
       <r>    3.2750    1.0000 </r>
       <r>    3.4706    1.0000 </r>
       <r>    4.1219    1.0000 </r>
       <r>    4.5035    1.0000 </r>
       <r>    4.8238    1.0000 </r>
       <r>    4.8365    1.0000 </r>
       <r>    5.0994    1.0000 </r>
       <r>    5.9882    0.0268 </r>
       <r>   12.3360    0.0000 </r>
       <r>   15.0782    0.0000 </r>
       <r>   17.8088    0.0000 </r>
       <r>   22.5300    0.0000 </r>
       <r>   25.2336    0.0000 </r>
       <r>   25.6116    0.0000 </r>
       <r>   28.8239    0.0000 </r>
       <r>   29.9275    0.0000 </r>
       <r>   30.3528    0.0000 </r>
      </set>
      <set comment="kpoint 18">
       <r>   -0.8905    1.0000 </r>
       <r>    1.5792    1.0000 </r>
       <r>    1.7530    1.0000 </r>
       <r>    3.2387    1.0000 </r>
       <r>    3.4359    1.0000 </r>
       <r>    4.3400    1.0000 </r>
       <r>    4.3525    1.0000 </r>
       <r>    4.4803    1.0000 </r>
       <r>    4.8009    1.0000 </r>
       <r>    4.9317    1.0000 </r>
       <r>    5.8949    0.2777 </r>
       <r>   10.6730   -0.0000 </r>
       <r>   15.8698    0.0000 </r>
       <r>   18.7533    0.0000 </r>
       <r>   22.7727    0.0000 </r>
       <r>   24.1434    0.0000 </r>
       <r>   25.9738    0.0000 </r>
       <r>   27.7641    0.0000 </r>
       <r>   28.6927    0.0000 </r>
       <r>   32.4598    0.0000 </r>
      </set>
      <set comment="kpoint 19">
       <r>   -0.2386    1.0000 </r>
       <r>    1.6933    1.0000 </r>
       <r>    2.0308    1.0000 </r>
       <r>    3.2471    1.0000 </r>
       <r>    3.3691    1.0000 </r>
       <r>    4.1445    1.0000 </r>
       <r>    4.2218    1.0000 </r>
       <r>    4.5439    1.0000 </r>
       <r>    4.5752    1.0000 </r>
       <r>    5.0852    1.0000 </r>
       <r>    5.7422    0.8645 </r>
       <r>    9.1047   -0.0000 </r>
       <r>   16.8103    0.0000 </r>
       <r>   19.8806    0.0000 </r>
       <r>   22.7405    0.0000 </r>
       <r>   23.0866    0.0000 </r>
       <r>   26.6229    0.0000 </r>
       <r>   26.6521    0.0000 </r>
       <r>   27.1648    0.0000 </r>
       <r>   31.6189    0.0000 </r>
      </set>
      <set comment="kpoint 20">
       <r>    0.4341    1.0000 </r>
       <r>    1.6758    1.0000 </r>
       <r>    2.3374    1.0000 </r>
       <r>    3.2145    1.0000 </r>
       <r>    3.3079    1.0000 </r>
       <r>    3.8495    1.0000 </r>
       <r>    4.1765    1.0000 </r>
       <r>    4.3652    1.0000 </r>
       <r>    4.8220    1.0000 </r>
       <r>    5.3403    1.0012 </r>
       <r>    5.5449    1.0287 </r>
       <r>    7.7225   -0.0000 </r>
       <r>   17.8491    0.0000 </r>
       <r>   21.1555    0.0000 </r>
       <r>   21.4107    0.0000 </r>
       <r>   23.5028    0.0000 </r>
       <r>   25.5850    0.0000 </r>
       <r>   25.6277    0.0000 </r>
       <r>   27.3317    0.0000 </r>
       <r>   30.3374    0.0000 </r>
      </set>
      <set comment="kpoint 21">
       <r>    1.0314    1.0000 </r>
       <r>    1.4607    1.0000 </r>
       <r>    2.6568    1.0000 </r>
       <r>    2.9626    1.0000 </r>
       <r>    3.4273    1.0000 </r>
       <r>    3.6083    1.0000 </r>
       <r>    4.2065    1.0000 </r>
       <r>    4.2648    1.0000 </r>
       <r>    5.0726    1.0000 </r>
       <r>    5.3174    1.0007 </r>
       <r>    5.8119    0.6180 </r>
       <r>    6.6038   -0.0000 </r>
       <r>   18.9657    0.0000 </r>
       <r>   20.1530    0.0000 </r>
       <r>   22.5485    0.0000 </r>
       <r>   24.0337    0.0000 </r>
       <r>   24.0507    0.0000 </r>
       <r>   24.7552    0.0000 </r>
       <r>   28.1750    0.0000 </r>
       <r>   29.1788    0.0000 </r>
      </set>
      <set comment="kpoint 22">
       <r>   -1.0522    1.0000 </r>
       <r>    1.5141    1.0000 </r>
       <r>    1.7279    1.0000 </r>
       <r>    3.1459    1.0000 </r>
       <r>    3.4210    1.0000 </r>
       <r>    4.3665    1.0000 </r>
       <r>    4.4692    1.0000 </r>
       <r>    4.5577    1.0000 </r>
       <r>    4.7940    1.0000 </r>
       <r>    4.8519    1.0000 </r>
       <r>    6.0564   -0.0316 </r>
       <r>   12.1803    0.0000 </r>
       <r>   14.0886    0.0000 </r>
       <r>   18.4632    0.0000 </r>
       <r>   22.7493    0.0000 </r>
       <r>   24.0399    0.0000 </r>
       <r>   26.6813    0.0000 </r>
       <r>   28.2042    0.0000 </r>
       <r>   30.1070    0.0000 </r>
       <r>   31.3709    0.0000 </r>
      </set>
      <set comment="kpoint 23">
       <r>   -0.5371    1.0000 </r>
       <r>    1.6100    1.0000 </r>
       <r>    1.9941    1.0000 </r>
       <r>    3.0580    1.0000 </r>
       <r>    3.3910    1.0000 </r>
       <r>    4.1090    1.0000 </r>
       <r>    4.5125    1.0000 </r>
       <r>    4.6183    1.0000 </r>
       <r>    4.6223    1.0000 </r>
       <r>    4.8637    1.0000 </r>
       <r>    6.0433   -0.0267 </r>
       <r>   10.9161   -0.0000 </r>
       <r>   14.3944    0.0000 </r>
       <r>   19.3356    0.0000 </r>
       <r>   22.4961    0.0000 </r>
       <r>   22.9640    0.0000 </r>
       <r>   27.3598    0.0000 </r>
       <r>   27.8249    0.0000 </r>
       <r>   29.1334    0.0000 </r>
       <r>   31.3997    0.0000 </r>
      </set>
      <set comment="kpoint 24">
       <r>    0.0408    1.0000 </r>
       <r>    1.6587    1.0000 </r>
       <r>    2.2830    1.0000 </r>
       <r>    3.0210    1.0000 </r>
       <r>    3.3624    1.0000 </r>
       <r>    3.7805    1.0000 </r>
       <r>    4.4507    1.0000 </r>
       <r>    4.4566    1.0000 </r>
       <r>    4.8830    1.0000 </r>
       <r>    5.0106    1.0000 </r>
       <r>    5.9568    0.0876 </r>
       <r>    9.3993   -0.0000 </r>
       <r>   15.1843    0.0000 </r>
       <r>   20.3943    0.0000 </r>
       <r>   21.0302    0.0000 </r>
       <r>   23.2369    0.0000 </r>
       <r>   26.4193    0.0000 </r>
       <r>   27.5483    0.0000 </r>
       <r>   28.7096    0.0000 </r>
       <r>   32.0612    0.0000 </r>
      </set>
      <set comment="kpoint 25">
       <r>    0.6063    1.0000 </r>
       <r>    1.6070    1.0000 </r>
       <r>    2.5745    1.0000 </r>
       <r>    3.0426    1.0000 </r>
       <r>    3.2770    1.0000 </r>
       <r>    3.5010    1.0000 </r>
       <r>    4.3936    1.0000 </r>
       <r>    4.4385    1.0000 </r>
       <r>    5.1415    1.0000 </r>
       <r>    5.2925    1.0004 </r>
       <r>    5.8098    0.6270 </r>
       <r>    7.9826   -0.0000 </r>
       <r>   16.1420    0.0000 </r>
       <r>   19.6581    0.0000 </r>
       <r>   21.6095    0.0000 </r>
       <r>   23.6048    0.0000 </r>
       <r>   25.5181    0.0000 </r>
       <r>   25.9486    0.0000 </r>
       <r>   29.5324    0.0000 </r>
       <r>   32.3339    0.0000 </r>
      </set>
      <set comment="kpoint 26">
       <r>    1.0814    1.0000 </r>
       <r>    1.4185    1.0000 </r>
       <r>    2.8537    1.0000 </r>
       <r>    3.0993    1.0000 </r>
       <r>    3.1286    1.0000 </r>
       <r>    3.2818    1.0000 </r>
       <r>    4.4059    1.0000 </r>
       <r>    4.4349    1.0000 </r>
       <r>    5.3894    1.0032 </r>
       <r>    5.6161    1.0335 </r>
       <r>    5.8600    0.4165 </r>
       <r>    6.7748   -0.0000 </r>
       <r>   17.2128    0.0000 </r>
       <r>   18.3853    0.0000 </r>
       <r>   22.9552    0.0000 </r>
       <r>   24.0972    0.0000 </r>
       <r>   24.4086    0.0000 </r>
       <r>   24.7344    0.0000 </r>
       <r>   30.4045    0.0000 </r>
       <r>   31.3545    0.0000 </r>
      </set>
      <set comment="kpoint 27">
       <r>   -0.1025    1.0000 </r>
       <r>    1.6120    1.0000 </r>
       <r>    2.2998    1.0000 </r>
       <r>    2.9205    1.0000 </r>
       <r>    3.4274    1.0000 </r>
       <r>    3.7545    1.0000 </r>
       <r>    4.4762    1.0000 </r>
       <r>    4.6148    1.0000 </r>
       <r>    4.8306    1.0000 </r>
       <r>    4.9067    1.0000 </r>
       <r>    6.1124   -0.0331 </r>
       <r>   10.6106   -0.0000 </r>
       <r>   13.6548    0.0000 </r>
       <r>   20.1246    0.0000 </r>
       <r>   20.9020    0.0000 </r>
       <r>   23.1410    0.0000 </r>
       <r>   26.7706    0.0000 </r>
       <r>   29.5117    0.0000 </r>
       <r>   29.5944    0.0000 </r>
       <r>   29.8113    0.0000 </r>
      </set>
      <set comment="kpoint 28">
       <r>    0.3478    1.0000 </r>
       <r>    1.5662    1.0000 </r>
       <r>    2.6321    1.0000 </r>
       <r>    2.8376    1.0000 </r>
       <r>    3.4403    1.0000 </r>
       <r>    3.5314    1.0000 </r>
       <r>    4.4192    1.0000 </r>
       <r>    4.6320    1.0000 </r>
       <r>    4.9215    1.0000 </r>
       <r>    5.1833    1.0000 </r>
       <r>    6.1013   -0.0346 </r>
       <r>    9.5148   -0.0000 </r>
       <r>   13.9266    0.0000 </r>
       <r>   19.4058    0.0000 </r>
       <r>   21.0984    0.0000 </r>
       <r>   23.3674    0.0000 </r>
       <r>   26.0533    0.0000 </r>
       <r>   27.9961    0.0000 </r>
       <r>   30.4830    0.0000 </r>
       <r>   30.8112    0.0000 </r>
      </set>
      <set comment="kpoint 29">
       <r>    0.7469    1.0000 </r>
       <r>    1.4608    1.0000 </r>
       <r>    2.8180    1.0000 </r>
       <r>    2.9566    1.0000 </r>
       <r>    3.1818    1.0000 </r>
       <r>    3.5805    1.0000 </r>
       <r>    4.4522    1.0000 </r>
       <r>    4.6514    1.0000 </r>
       <r>    5.2225    1.0001 </r>
       <r>    5.4430    1.0084 </r>
       <r>    6.0173   -0.0088 </r>
       <r>    8.1874   -0.0000 </r>
       <r>   14.6805    0.0000 </r>
       <r>   18.0257    0.0000 </r>
       <r>   22.2341    0.0000 </r>
       <r>   23.6794    0.0000 </r>
       <r>   25.3180    0.0000 </r>
       <r>   26.4070    0.0000 </r>
       <r>   31.3470    0.0000 </r>
       <r>   31.8026    0.0000 </r>
      </set>
      <set comment="kpoint 30">
       <r>    1.0606    1.0000 </r>
       <r>    1.2938    1.0000 </r>
       <r>    2.8676    1.0000 </r>
       <r>    2.9892    1.0000 </r>
       <r>    3.2458    1.0000 </r>
       <r>    3.4708    1.0000 </r>
       <r>    4.5392    1.0000 </r>
       <r>    4.6228    1.0000 </r>
       <r>    5.6760    0.9951 </r>
       <r>    5.8715    0.3693 </r>
       <r>    5.9108    0.2208 </r>
       <r>    6.9401   -0.0000 </r>
       <r>   15.6506    0.0000 </r>
       <r>   16.7714    0.0000 </r>
       <r>   23.5099    0.0000 </r>
       <r>   24.1036    0.0000 </r>
       <r>   24.6530    0.0000 </r>
       <r>   24.9065    0.0000 </r>
       <r>   32.3246    0.0000 </r>
       <r>   32.6089    0.0000 </r>
      </set>
      <set comment="kpoint 31">
       <r>    0.6196    1.0000 </r>
       <r>    1.4385    1.0000 </r>
       <r>    2.7109    1.0000 </r>
       <r>    3.0245    1.0000 </r>
       <r>    3.1464    1.0000 </r>
       <r>    3.8795    1.0000 </r>
       <r>    4.4494    1.0000 </r>
       <r>    4.7429    1.0000 </r>
       <r>    4.8740    1.0000 </r>
       <r>    5.4625    1.0113 </r>
       <r>    6.1662   -0.0217 </r>
       <r>    9.1102   -0.0000 </r>
       <r>   13.4018    0.0000 </r>
       <r>   17.9059    0.0000 </r>
       <r>   21.9783    0.0000 </r>
       <r>   23.5365    0.0000 </r>
       <r>   25.5729    0.0000 </r>
       <r>   27.9802    0.0000 </r>
       <r>   29.5891    0.0000 </r>
       <r>   32.6802    0.0000 </r>
      </set>
      <set comment="kpoint 32">
       <r>    0.8302    1.0000 </r>
       <r>    1.2942    1.0000 </r>
       <r>    2.6506    1.0000 </r>
       <r>    2.9135    1.0000 </r>
       <r>    3.4129    1.0000 </r>
       <r>    4.1303    1.0000 </r>
       <r>    4.5372    1.0000 </r>
       <r>    4.7960    1.0000 </r>
       <r>    5.1299    1.0000 </r>
       <r>    5.7097    0.9421 </r>
       <r>    6.1521   -0.0249 </r>
       <r>    8.1618   -0.0000 </r>
       <r>   13.6575    0.0000 </r>
       <r>   16.5528    0.0000 </r>
       <r>   23.0165    0.0000 </r>
       <r>   23.7765    0.0000 </r>
       <r>   25.0425    0.0000 </r>
       <r>   26.8340    0.0000 </r>
       <r>   30.0468    0.0000 </r>
       <r>   33.1620    0.0000 </r>
      </set>
      <set comment="kpoint 33">
       <r>    0.9967    1.0000 </r>
       <r>    1.1465    1.0000 </r>
       <r>    2.6629    1.0000 </r>
       <r>    2.7508    1.0000 </r>
       <r>    3.7570    1.0000 </r>
       <r>    4.0225    1.0000 </r>
       <r>    4.6522    1.0000 </r>
       <r>    4.7526    1.0000 </r>
       <r>    5.9141    0.2095 </r>
       <r>    5.9451    0.1167 </r>
       <r>    6.0650   -0.0337 </r>
       <r>    7.0219   -0.0000 </r>
       <r>   14.3782    0.0000 </r>
       <r>   15.3670    0.0000 </r>
       <r>   24.1083    0.0000 </r>
       <r>   24.1928    0.0000 </r>
       <r>   24.5370    0.0000 </r>
       <r>   25.4820    0.0000 </r>
       <r>   30.9328    0.0000 </r>
       <r>   31.9844    0.0000 </r>
      </set>
      <set comment="kpoint 34">
       <r>    0.8816    1.0000 </r>
       <r>    1.1419    1.0000 </r>
       <r>    2.5510    1.0000 </r>
       <r>    2.7098    1.0000 </r>
       <r>    3.8784    1.0000 </r>
       <r>    4.6375    1.0000 </r>
       <r>    4.6566    1.0000 </r>
       <r>    4.9137    1.0000 </r>
       <r>    5.1685    1.0000 </r>
       <r>    5.9293    0.1612 </r>
       <r>    6.2085   -0.0129 </r>
       <r>    7.7285   -0.0000 </r>
       <r>   13.2738    0.0000 </r>
       <r>   15.2758    0.0000 </r>
       <r>   23.9223    0.0000 </r>
       <r>   23.9376    0.0000 </r>
       <r>   24.7233    0.0000 </r>
       <r>   26.8039    0.0000 </r>
       <r>   29.4441    0.0000 </r>
       <r>   31.8743    0.0000 </r>
      </set>
      <set comment="kpoint 35">
       <r>    0.9374    1.0000 </r>
       <r>    1.0214    1.0000 </r>
       <r>    2.5262    1.0000 </r>
       <r>    2.5793    1.0000 </r>
       <r>    4.2924    1.0000 </r>
       <r>    4.5948    1.0000 </r>
       <r>    4.7396    1.0000 </r>
       <r>    4.8345    1.0000 </r>
       <r>    5.9784    0.0433 </r>
       <r>    6.0913   -0.0353 </r>
       <r>    6.1867   -0.0171 </r>
       <r>    6.9254   -0.0000 </r>
       <r>   13.5273    0.0000 </r>
       <r>   14.2417    0.0000 </r>
       <r>   24.1322    0.0000 </r>
       <r>   24.4063    0.0000 </r>
       <r>   24.9639    0.0000 </r>
       <r>   26.0136    0.0000 </r>
       <r>   29.8422    0.0000 </r>
       <r>   30.7440    0.0000 </r>
      </set>
      <set comment="kpoint 36">
       <r>    0.9140    1.0000 </r>
       <r>    0.9412    1.0000 </r>
       <r>    2.4649    1.0000 </r>
       <r>    2.4827    1.0000 </r>
       <r>    4.7397    1.0000 </r>
       <r>    4.7971    1.0000 </r>
       <r>    4.8079    1.0000 </r>
       <r>    4.9377    1.0000 </r>
       <r>    6.1798   -0.0186 </r>
       <r>    6.1990   -0.0147 </r>
       <r>    6.2317   -0.0091 </r>
       <r>    6.6003   -0.0000 </r>
       <r>   13.2232    0.0000 </r>
       <r>   13.4896    0.0000 </r>
       <r>   24.1893    0.0000 </r>
       <r>   24.2837    0.0000 </r>
       <r>   25.7204    0.0000 </r>
       <r>   26.1782    0.0000 </r>
       <r>   29.3729    0.0000 </r>
       <r>   29.7805    0.0000 </r>
      </set>
      <set comment="kpoint 37">
       <r>   -2.3222    1.0000 </r>
       <r>    1.1069    1.0000 </r>
       <r>    1.1069    1.0000 </r>
       <r>    3.4835    1.0000 </r>
       <r>    3.4835    1.0000 </r>
       <r>    3.7124    1.0000 </r>
       <r>    4.7202    1.0000 </r>
       <r>    4.7202    1.0000 </r>
       <r>    5.5605    1.0318 </r>
       <r>    5.8969    0.2702 </r>
       <r>    5.8969    0.2702 </r>
       <r>   15.3050    0.0000 </r>
       <r>   15.3050    0.0000 </r>
       <r>   15.7410    0.0000 </r>
       <r>   22.3726    0.0000 </r>
       <r>   22.3726    0.0000 </r>
       <r>   27.4796    0.0000 </r>
       <r>   29.5927    0.0000 </r>
       <r>   29.5927    0.0000 </r>
       <r>   31.1357    0.0000 </r>
      </set>
      <set comment="kpoint 38">
       <r>   -2.0526    1.0000 </r>
       <r>    1.2181    1.0000 </r>
       <r>    1.2247    1.0000 </r>
       <r>    3.4237    1.0000 </r>
       <r>    3.4709    1.0000 </r>
       <r>    3.8462    1.0000 </r>
       <r>    4.6169    1.0000 </r>
       <r>    4.7731    1.0000 </r>
       <r>    5.2709    1.0002 </r>
       <r>    5.6824    0.9872 </r>
       <r>    5.9183    0.1958 </r>
       <r>   13.8912    0.0000 </r>
       <r>   15.7732    0.0000 </r>
       <r>   16.1096    0.0000 </r>
       <r>   22.4951    0.0000 </r>
       <r>   23.4190    0.0000 </r>
       <r>   28.1797    0.0000 </r>
       <r>   28.3618    0.0000 </r>
       <r>   29.1690    0.0000 </r>
       <r>   31.0813    0.0000 </r>
      </set>
      <set comment="kpoint 39">
       <r>   -1.6171    1.0000 </r>
       <r>    1.3942    1.0000 </r>
       <r>    1.3984    1.0000 </r>
       <r>    3.3895    1.0000 </r>
       <r>    3.4537    1.0000 </r>
       <r>    4.0119    1.0000 </r>
       <r>    4.4539    1.0000 </r>
       <r>    4.8553    1.0000 </r>
       <r>    4.9348    1.0000 </r>
       <r>    5.3794    1.0027 </r>
       <r>    5.8575    0.4269 </r>
       <r>   12.1931    0.0000 </r>
       <r>   16.4910    0.0000 </r>
       <r>   16.8032    0.0000 </r>
       <r>   22.7094    0.0000 </r>
       <r>   24.2365    0.0000 </r>
       <r>   26.7410    0.0000 </r>
       <r>   28.2257    0.0000 </r>
       <r>   30.0019    0.0000 </r>
       <r>   30.5330    0.0000 </r>
      </set>
      <set comment="kpoint 40">
       <r>   -1.0398    1.0000 </r>
       <r>    1.5728    1.0000 </r>
       <r>    1.6402    1.0000 </r>
       <r>    3.3916    1.0000 </r>
       <r>    3.4297    1.0000 </r>
       <r>    4.2070    1.0000 </r>
       <r>    4.2512    1.0000 </r>
       <r>    4.5916    1.0000 </r>
       <r>    4.9657    1.0000 </r>
       <r>    5.0404    1.0000 </r>
       <r>    5.7302    0.8962 </r>
       <r>   10.5112   -0.0000 </r>
       <r>   17.3935    0.0000 </r>
       <r>   17.7014    0.0000 </r>
       <r>   23.0314    0.0000 </r>
       <r>   24.7973    0.0000 </r>
       <r>   25.3794    0.0000 </r>
       <r>   26.8890    0.0000 </r>
       <r>   29.5176    0.0000 </r>
       <r>   31.5160    0.0000 </r>
      </set>
      <set comment="kpoint 41">
       <r>   -0.3616    1.0000 </r>
       <r>    1.6968    1.0000 </r>
       <r>    1.9328    1.0000 </r>
       <r>    3.3728    1.0000 </r>
       <r>    3.4388    1.0000 </r>
       <r>    4.0575    1.0000 </r>
       <r>    4.2782    1.0000 </r>
       <r>    4.4263    1.0000 </r>
       <r>    4.7081    1.0000 </r>
       <r>    5.1188    1.0000 </r>
       <r>    5.5531    1.0304 </r>
       <r>    8.9557   -0.0000 </r>
       <r>   18.4193    0.0000 </r>
       <r>   18.7532    0.0000 </r>
       <r>   23.4837    0.0000 </r>
       <r>   24.1120    0.0000 </r>
       <r>   25.2988    0.0000 </r>
       <r>   25.4136    0.0000 </r>
       <r>   28.2784    0.0000 </r>
       <r>   30.0817    0.0000 </r>
      </set>
      <set comment="kpoint 42">
       <r>    0.3494    1.0000 </r>
       <r>    1.6842    1.0000 </r>
       <r>    2.2615    1.0000 </r>
       <r>    3.2161    1.0000 </r>
       <r>    3.5340    1.0000 </r>
       <r>    3.9649    1.0000 </r>
       <r>    4.0222    1.0000 </r>
       <r>    4.4130    1.0000 </r>
       <r>    4.6577    1.0000 </r>
       <r>    5.3428    1.0012 </r>
       <r>    5.3662    1.0020 </r>
       <r>    7.6072   -0.0000 </r>
       <r>   19.5154    0.0000 </r>
       <r>   19.9216    0.0000 </r>
       <r>   22.9208    0.0000 </r>
       <r>   23.9403    0.0000 </r>
       <r>   24.0938    0.0000 </r>
       <r>   25.8855    0.0000 </r>
       <r>   27.0232    0.0000 </r>
       <r>   28.7533    0.0000 </r>
      </set>
      <set comment="kpoint 43">
       <r>    0.9925    1.0000 </r>
       <r>    1.4574    1.0000 </r>
       <r>    2.6069    1.0000 </r>
       <r>    2.9409    1.0000 </r>
       <r>    3.6676    1.0000 </r>
       <r>    3.8265    1.0000 </r>
       <r>    4.0169    1.0000 </r>
       <r>    4.1763    1.0000 </r>
       <r>    4.8875    1.0000 </r>
       <r>    5.1163    1.0000 </r>
       <r>    5.8066    0.6398 </r>
       <r>    6.5421   -0.0000 </r>
       <r>   20.6403    0.0000 </r>
       <r>   21.1825    0.0000 </r>
       <r>   21.7731    0.0000 </r>
       <r>   22.5242    0.0000 </r>
       <r>   24.8868    0.0000 </r>
       <r>   25.8712    0.0000 </r>
       <r>   26.6390    0.0000 </r>
       <r>   27.5953    0.0000 </r>
      </set>
      <set comment="kpoint 44">
       <r>   -1.7897    1.0000 </r>
       <r>    1.3169    1.0000 </r>
       <r>    1.3485    1.0000 </r>
       <r>    3.3355    1.0000 </r>
       <r>    3.4268    1.0000 </r>
       <r>    4.0230    1.0000 </r>
       <r>    4.6232    1.0000 </r>
       <r>    4.7470    1.0000 </r>
       <r>    4.9426    1.0000 </r>
       <r>    5.5572    1.0312 </r>
       <r>    5.9293    0.1610 </r>
       <r>   13.9050    0.0000 </r>
       <r>   14.7736    0.0000 </r>
       <r>   16.4063    0.0000 </r>
       <r>   23.0379    0.0000 </r>
       <r>   24.2898    0.0000 </r>
       <r>   27.0715    0.0000 </r>
       <r>   28.4617    0.0000 </r>
       <r>   29.0579    0.0000 </r>
       <r>   31.2825    0.0000 </r>
      </set>
      <set comment="kpoint 45">
       <r>   -1.3670    1.0000 </r>
       <r>    1.4657    1.0000 </r>
       <r>    1.5366    1.0000 </r>
       <r>    3.2570    1.0000 </r>
       <r>    3.3875    1.0000 </r>
       <r>    4.2311    1.0000 </r>
       <r>    4.5261    1.0000 </r>
       <r>    4.5878    1.0000 </r>
       <r>    4.8098    1.0000 </r>
       <r>    5.2813    1.0003 </r>
       <r>    5.9218    0.1842 </r>
       <r>   12.4648    0.0000 </r>
       <r>   15.1448    0.0000 </r>
       <r>   17.0522    0.0000 </r>
       <r>   23.3342    0.0000 </r>
       <r>   25.3184    0.0000 </r>
       <r>   25.5967    0.0000 </r>
       <r>   27.6427    0.0000 </r>
       <r>   30.4540    0.0000 </r>
       <r>   30.9060    0.0000 </r>
      </set>
      <set comment="kpoint 46">
       <r>   -0.8111    1.0000 </r>
       <r>    1.6351    1.0000 </r>
       <r>    1.7645    1.0000 </r>
       <r>    3.2148    1.0000 </r>
       <r>    3.3447    1.0000 </r>
       <r>    4.2474    1.0000 </r>
       <r>    4.3789    1.0000 </r>
       <r>    4.4651    1.0000 </r>
       <r>    4.9203    1.0000 </r>
       <r>    4.9684    1.0000 </r>
       <r>    5.8469    0.4715 </r>
       <r>   10.7947   -0.0000 </r>
       <r>   15.9338    0.0000 </r>
       <r>   17.8951    0.0000 </r>
       <r>   23.6775    0.0000 </r>
       <r>   24.1369    0.0000 </r>
       <r>   26.0779    0.0000 </r>
       <r>   26.4279    0.0000 </r>
       <r>   29.9312    0.0000 </r>
       <r>   31.4650    0.0000 </r>
      </set>
      <set comment="kpoint 47">
       <r>   -0.1672    1.0000 </r>
       <r>    1.7533    1.0000 </r>
       <r>    2.0241    1.0000 </r>
       <r>    3.1927    1.0000 </r>
       <r>    3.3074    1.0000 </r>
       <r>    3.9577    1.0000 </r>
       <r>    4.2474    1.0000 </r>
       <r>    4.6755    1.0000 </r>
       <r>    4.7043    1.0000 </r>
       <r>    5.0820    1.0000 </r>
       <r>    5.7107    0.9400 </r>
       <r>    9.2235   -0.0000 </r>
       <r>   16.8668    0.0000 </r>
       <r>   18.8851    0.0000 </r>
       <r>   22.7459    0.0000 </r>
       <r>   24.1316    0.0000 </r>
       <r>   25.0588    0.0000 </r>
       <r>   26.7206    0.0000 </r>
       <r>   28.7477    0.0000 </r>
[...]
       </set>
       <set comment="band 16">
        <r>  0.0000  0.0825  0.0000  0.0825  0.0000  0.1081  0.0000  0.1081  0.0014 </r>
        <r>  0.0000  0.0825  0.0000  0.0825  0.0000  0.1081  0.0000  0.1081  0.0014 </r>
       </set>
       <set comment="band 17">
        <r>  0.2234  0.0009  0.1383  0.0009  0.0238  0.0008  0.0076  0.0008  0.0000 </r>
        <r>  0.2234  0.0009  0.1383  0.0009  0.0238  0.0008  0.0076  0.0008  0.0000 </r>
       </set>
       <set comment="band 18">
        <r>  0.1366  0.0310  0.1006  0.0310  0.0239  0.0304  0.0039  0.0304  0.0000 </r>
        <r>  0.1366  0.0310  0.1006  0.0310  0.0239  0.0304  0.0039  0.0304  0.0000 </r>
       </set>
       <set comment="band 19">
        <r>  0.0005  0.0000  0.0045  0.0000  0.0030  0.0713  0.0243  0.0713  0.0000 </r>
        <r>  0.0005  0.0000  0.0045  0.0000  0.0030  0.0713  0.0243  0.0713  0.0000 </r>
       </set>
       <set comment="band 20">
        <r>  0.0000  0.0000  0.0000  0.0000  0.0000  0.0777  0.0000  0.0777  0.0009 </r>
        <r>  0.0000  0.0000  0.0000  0.0000  0.0000  0.0777  0.0000  0.0777  0.0009 </r>
       </set>
      </set>
      <set comment="kpoint 117">
       <set comment="band 1">
        <r>  0.0196  0.0074  0.0074  0.0074  0.1392  0.1392  0.0000  0.1392  0.0000 </r>
        <r>  0.0196  0.0074  0.0074  0.0074  0.1392  0.1392  0.0000  0.1392  0.0000 </r>
       </set>
       <set comment="band 2">
        <r>  0.0479  0.0417  0.0417  0.0417  0.0815  0.0814  0.0000  0.0814  0.0000 </r>
        <r>  0.0479  0.0417  0.0417  0.0417  0.0815  0.0814  0.0000  0.0814  0.0000 </r>
       </set>
       <set comment="band 3">
        <r>  0.0000  0.0070  0.0303  0.0082  0.2634  0.0712  0.0160  0.0608  0.0000 </r>
        <r>  0.0000  0.0070  0.0303  0.0082  0.2634  0.0712  0.0160  0.0608  0.0000 </r>
       </set>
       <set comment="band 4">
        <r>  0.0000  0.0234  0.0000  0.0222  0.0001  0.1925  0.0000  0.2028  0.0160 </r>
        <r>  0.0000  0.0234  0.0000  0.0222  0.0001  0.1925  0.0000  0.2028  0.0160 </r>
       </set>
       <set comment="band 5">
        <r>  0.0000  0.0159  0.0656  0.0169  0.1999  0.0514  0.0392  0.0486  0.0000 </r>
        <r>  0.0000  0.0159  0.0656  0.0169  0.1999  0.0514  0.0392  0.0486  0.0000 </r>
       </set>
       <set comment="band 6">
        <r>  0.0000  0.0497  0.0000  0.0487  0.0000  0.1485  0.0000  0.1514  0.0392 </r>
        <r>  0.0000  0.0497  0.0000  0.0487  0.0000  0.1485  0.0000  0.1514  0.0392 </r>
       </set>
       <set comment="band 7">
        <r>  0.0000  0.0001  0.0003  0.0001  0.0369  0.0069  0.4336  0.0119  0.0027 </r>
        <r>  0.0000  0.0001  0.0003  0.0001  0.0369  0.0069  0.4336  0.0119  0.0027 </r>
       </set>
       <set comment="band 8">
        <r>  0.0000  0.0002  0.0000  0.0003  0.0002  0.0302  0.0027  0.0252  0.4336 </r>
        <r>  0.0000  0.0002  0.0000  0.0003  0.0002  0.0302  0.0027  0.0252  0.4336 </r>
       </set>
       <set comment="band 9">
        <r>  0.0000  0.0000  0.0000  0.0000  0.0141  0.0026  0.4682  0.0046  0.0033 </r>
        <r>  0.0000  0.0000  0.0000  0.0000  0.0141  0.0026  0.4682  0.0046  0.0033 </r>
       </set>
       <set comment="band 10">
        <r>  0.0000  0.0000  0.0000  0.0000  0.0001  0.0116  0.0033  0.0096  0.4682 </r>
        <r>  0.0000  0.0000  0.0000  0.0000  0.0001  0.0116  0.0033  0.0096  0.4682 </r>
       </set>
       <set comment="band 11">
        <r>  0.0387  0.0361  0.0361  0.0361  0.0996  0.0996  0.0000  0.0996  0.0000 </r>
        <r>  0.0387  0.0361  0.0361  0.0361  0.0996  0.0996  0.0000  0.0996  0.0000 </r>
       </set>
       <set comment="band 12">
        <r>  0.0000  0.0295  0.1226  0.0318  0.1407  0.0365  0.0256  0.0339  0.0000 </r>
        <r>  0.0000  0.0295  0.1226  0.0318  0.1407  0.0365  0.0256  0.0339  0.0000 </r>
       </set>
       <set comment="band 13">
        <r>  0.0000  0.0931  0.0000  0.0908  0.0000  0.1043  0.0000  0.1068  0.0256 </r>
        <r>  0.0000  0.0931  0.0000  0.0908  0.0000  0.1043  0.0000  0.1068  0.0256 </r>
       </set>
       <set comment="band 14">
        <r>  0.2771  0.0033  0.0033  0.0033  0.0430  0.0430  0.0000  0.0430  0.0000 </r>
        <r>  0.2771  0.0033  0.0033  0.0033  0.0430  0.0430  0.0000  0.0430  0.0000 </r>
       </set>
       <set comment="band 15">
        <r>  0.0000  0.0254  0.1146  0.0321  0.1411  0.0395  0.0140  0.0313  0.0000 </r>
        <r>  0.0000  0.0254  0.1146  0.0321  0.1411  0.0395  0.0140  0.0313  0.0000 </r>
       </set>
       <set comment="band 16">
        <r>  0.0000  0.0893  0.0001  0.0827  0.0002  0.1018  0.0000  0.1099  0.0140 </r>
        <r>  0.0000  0.0893  0.0001  0.0827  0.0002  0.1018  0.0000  0.1099  0.0140 </r>
       </set>
       <set comment="band 17">
        <r>  0.3108  0.0300  0.0300  0.0300  0.0000  0.0000  0.0000  0.0000  0.0000 </r>
        <r>  0.3108  0.0300  0.0300  0.0300  0.0000  0.0000  0.0000  0.0000  0.0000 </r>
       </set>
       <set comment="band 18">
        <r>  0.0943  0.0585  0.0585  0.0585  0.0381  0.0381  0.0000  0.0381  0.0000 </r>
        <r>  0.0943  0.0585  0.0585  0.0585  0.0381  0.0381  0.0000  0.0381  0.0000 </r>
       </set>
       <set comment="band 19">
        <r>  0.0000  0.0105  0.0002  0.0080  0.0005  0.0225  0.0013  0.0295  0.0946 </r>
        <r>  0.0000  0.0105  0.0002  0.0080  0.0005  0.0225  0.0013  0.0295  0.0946 </r>
       </set>
       <set comment="band 20">
        <r>  0.0000  0.0020  0.0123  0.0044  0.0345  0.0125  0.0946  0.0055  0.0013 </r>
        <r>  0.0000  0.0020  0.0123  0.0044  0.0345  0.0125  0.0946  0.0055  0.0013 </r>
       </set>
      </set>
      <set comment="kpoint 118">
       <set comment="band 1">
        <r>  0.0167  0.0174  0.0175  0.0018  0.1572  0.0840  0.0009  0.1571  0.0027 </r>
        <r>  0.0167  0.0174  0.0175  0.0018  0.1572  0.0840  0.0009  0.1571  0.0027 </r>
       </set>
       <set comment="band 2">
        <r>  0.0189  0.0300  0.0301  0.0000  0.1587  0.0430  0.0019  0.1585  0.0056 </r>
        <r>  0.0189  0.0300  0.0301  0.0000  0.1587  0.0430  0.0019  0.1585  0.0056 </r>
       </set>
       <set comment="band 3">
        <r>  0.0000  0.0307  0.0307  0.0000  0.1839  0.0000  0.0162  0.1841  0.0054 </r>
        <r>  0.0000  0.0307  0.0307  0.0000  0.1839  0.0000  0.0162  0.1841  0.0054 </r>
       </set>
       <set comment="band 4">
        <r>  0.0000  0.0395  0.0395  0.0000  0.1682  0.0000  0.0217  0.1682  0.0072 </r>
        <r>  0.0000  0.0395  0.0395  0.0000  0.1682  0.0000  0.0217  0.1682  0.0072 </r>
       </set>
       <set comment="band 5">
        <r>  0.0099  0.0097  0.0097  0.0803  0.0045  0.3189  0.0000  0.0045  0.0000 </r>
        <r>  0.0099  0.0097  0.0097  0.0803  0.0045  0.3189  0.0000  0.0045  0.0000 </r>
       </set>
       <set comment="band 6">
        <r>  0.0021  0.0138  0.0138  0.0788  0.0199  0.2763  0.0030  0.0199  0.0091 </r>
        <r>  0.0021  0.0138  0.0138  0.0788  0.0199  0.2763  0.0030  0.0199  0.0091 </r>
       </set>
       <set comment="band 7">
        <r>  0.0000  0.0001  0.0001  0.0000  0.0202  0.0000  0.3395  0.0201  0.1126 </r>
        <r>  0.0000  0.0001  0.0001  0.0000  0.0202  0.0000  0.3395  0.0201  0.1126 </r>
       </set>
       <set comment="band 8">
        <r>  0.0000  0.0000  0.0000  0.0000  0.0147  0.0000  0.3479  0.0146  0.1153 </r>
        <r>  0.0000  0.0000  0.0000  0.0000  0.0147  0.0000  0.3479  0.0146  0.1153 </r>
       </set>
       <set comment="band 9">
        <r>  0.0001  0.0000  0.0000  0.0001  0.0073  0.0087  0.1170  0.0073  0.3528 </r>
        <r>  0.0001  0.0000  0.0000  0.0001  0.0073  0.0087  0.1170  0.0073  0.3528 </r>
       </set>
       <set comment="band 10">
        <r>  0.0001  0.0000  0.0000  0.0000  0.0052  0.0003  0.1202  0.0052  0.3625 </r>
        <r>  0.0001  0.0000  0.0000  0.0000  0.0052  0.0003  0.1202  0.0052  0.3625 </r>
       </set>
       <set comment="band 11">
        <r>  0.0346  0.0348  0.0348  0.0607  0.0805  0.1079  0.0006  0.0805  0.0017 </r>
        <r>  0.0346  0.0348  0.0348  0.0607  0.0805  0.1079  0.0006  0.0805  0.0017 </r>
       </set>
       <set comment="band 12">
        <r>  0.0182  0.0337  0.0337  0.0929  0.0605  0.1163  0.0026  0.0605  0.0079 </r>
        <r>  0.0182  0.0337  0.0337  0.0929  0.0605  0.1163  0.0026  0.0605  0.0079 </r>
       </set>
       <set comment="band 13">
        <r>  0.0000  0.0917  0.0916  0.0000  0.1055  0.0000  0.0152  0.1056  0.0051 </r>
        <r>  0.0000  0.0917  0.0916  0.0000  0.1055  0.0000  0.0152  0.1056  0.0051 </r>
       </set>
       <set comment="band 14">
        <r>  0.0000  0.0896  0.0896  0.0000  0.1059  0.0000  0.0124  0.1059  0.0041 </r>
        <r>  0.0000  0.0896  0.0896  0.0000  0.1059  0.0000  0.0124  0.1059  0.0041 </r>
       </set>
       <set comment="band 15">
        <r>  0.2323  0.0008  0.0008  0.0438  0.0307  0.0712  0.0000  0.0307  0.0000 </r>
        <r>  0.2323  0.0008  0.0008  0.0438  0.0307  0.0712  0.0000  0.0307  0.0000 </r>
       </set>
       <set comment="band 16">
        <r>  0.1373  0.0025  0.0025  0.1018  0.0306  0.0946  0.0005  0.0306  0.0016 </r>
        <r>  0.1373  0.0025  0.0025  0.1018  0.0306  0.0946  0.0005  0.0306  0.0016 </r>
       </set>
       <set comment="band 17">
        <r>  0.1980  0.0586  0.0586  0.0105  0.0160  0.0345  0.0006  0.0160  0.0017 </r>
        <r>  0.1980  0.0586  0.0586  0.0105  0.0160  0.0345  0.0006  0.0160  0.0017 </r>
       </set>
       <set comment="band 18">
        <r>  0.1273  0.0606  0.0606  0.0375  0.0299  0.0419  0.0002  0.0299  0.0005 </r>
        <r>  0.1273  0.0606  0.0606  0.0375  0.0299  0.0419  0.0002  0.0299  0.0005 </r>
       </set>
       <set comment="band 19">
        <r>  0.0000  0.0059  0.0059  0.0000  0.0309  0.0000  0.0463  0.0309  0.0154 </r>
        <r>  0.0000  0.0059  0.0059  0.0000  0.0309  0.0000  0.0463  0.0309  0.0154 </r>
       </set>
       <set comment="band 20">
        <r>  0.0000  0.0021  0.0021  0.0000  0.0244  0.0000  0.0172  0.0244  0.0057 </r>
        <r>  0.0000  0.0021  0.0021  0.0000  0.0244  0.0000  0.0172  0.0244  0.0057 </r>
       </set>
      </set>
      <set comment="kpoint 119">
       <set comment="band 1">
        <r>  0.0112  0.0057  0.0385  0.0057  0.2379  0.0732  0.0070  0.0731  0.0000 </r>
        <r>  0.0112  0.0057  0.0385  0.0057  0.2379  0.0732  0.0070  0.0731  0.0000 </r>
       </set>
       <set comment="band 2">
        <r>  0.0118  0.0004  0.0681  0.0004  0.3487  0.0000  0.0153  0.0000  0.0000 </r>
        <r>  0.0118  0.0004  0.0681  0.0004  0.3487  0.0000  0.0153  0.0000  0.0000 </r>
       </set>
       <set comment="band 3">
        <r>  0.0000  0.0244  0.0000  0.0244  0.0000  0.2031  0.0000  0.2031  0.0019 </r>
        <r>  0.0000  0.0244  0.0000  0.0244  0.0000  0.2031  0.0000  0.2031  0.0019 </r>
       </set>
       <set comment="band 4">
        <r>  0.0008  0.0189  0.0301  0.0189  0.1114  0.1290  0.0115  0.1290  0.0000 </r>
        <r>  0.0008  0.0189  0.0301  0.0189  0.1114  0.1290  0.0115  0.1290  0.0000 </r>
       </set>
       <set comment="band 5">
        <r>  0.0036  0.0533  0.0003  0.0533  0.0011  0.1622  0.0008  0.1622  0.0000 </r>
        <r>  0.0036  0.0533  0.0003  0.0533  0.0011  0.1622  0.0008  0.1622  0.0000 </r>
       </set>
       <set comment="band 6">
        <r>  0.0000  0.0537  0.0000  0.0537  0.0000  0.1627  0.0000  0.1627  0.0047 </r>
        <r>  0.0000  0.0537  0.0000  0.0537  0.0000  0.1627  0.0000  0.1627  0.0047 </r>
       </set>
       <set comment="band 7">
        <r>  0.0001  0.0000  0.0001  0.0000  0.0239  0.0010  0.4671  0.0010  0.0000 </r>
        <r>  0.0001  0.0000  0.0001  0.0000  0.0239  0.0010  0.4671  0.0010  0.0000 </r>
       </set>
       <set comment="band 8">
        <r>  0.0001  0.0000  0.0001  0.0000  0.0214  0.0004  0.4709  0.0004  0.0000 </r>
        <r>  0.0001  0.0000  0.0001  0.0000  0.0214  0.0004  0.4709  0.0004  0.0000 </r>
       </set>
       <set comment="band 9">
        <r>  0.0000  0.0000  0.0000  0.0000  0.0000  0.0034  0.0000  0.0034  0.4869 </r>
        <r>  0.0000  0.0000  0.0000  0.0000  0.0000  0.0034  0.0000  0.0034  0.4869 </r>
       </set>
       <set comment="band 10">
        <r>  0.0000  0.0000  0.0000  0.0000  0.0000  0.0013  0.0000  0.0013  0.4913 </r>
        <r>  0.0000  0.0000  0.0000  0.0000  0.0000  0.0013  0.0000  0.0013  0.4913 </r>
       </set>
       <set comment="band 11">
        <r>  0.0236  0.0660  0.0209  0.0660  0.0454  0.1020  0.0006  0.1020  0.0000 </r>
        <r>  0.0236  0.0660  0.0209  0.0660  0.0454  0.1020  0.0006  0.1020  0.0000 </r>
       </set>
       <set comment="band 12">
        <r>  0.0000  0.0901  0.0000  0.0901  0.0000  0.1179  0.0000  0.1179  0.0032 </r>
        <r>  0.0000  0.0901  0.0000  0.0901  0.0000  0.1179  0.0000  0.1179  0.0032 </r>
       </set>
       <set comment="band 13">
        <r>  0.0655  0.0069  0.1183  0.0069  0.2018  0.0047  0.0120  0.0047  0.0000 </r>
        <r>  0.0655  0.0069  0.1183  0.0069  0.2018  0.0047  0.0120  0.0047  0.0000 </r>
       </set>
       <set comment="band 14">
        <r>  0.0621  0.0226  0.0930  0.0226  0.1659  0.0193  0.0099  0.0193  0.0000 </r>
        <r>  0.0621  0.0226  0.0930  0.0226  0.1659  0.0193  0.0099  0.0193  0.0000 </r>
       </set>
       <set comment="band 15">
        <r>  0.1369  0.0495  0.0056  0.0495  0.0010  0.0806  0.0007  0.0806  0.0000 </r>
        <r>  0.1369  0.0495  0.0056  0.0495  0.0010  0.0806  0.0007  0.0806  0.0000 </r>
       </set>
       <set comment="band 16">
        <r>  0.0000  0.0868  0.0000  0.0868  0.0000  0.1109  0.0000  0.1109  0.0016 </r>
        <r>  0.0000  0.0868  0.0000  0.0868  0.0000  0.1109  0.0000  0.1109  0.0016 </r>
       </set>
       <set comment="band 17">
        <r>  0.3003  0.0018  0.0757  0.0018  0.0180  0.0003  0.0018  0.0003  0.0000 </r>
        <r>  0.3003  0.0018  0.0757  0.0018  0.0180  0.0003  0.0018  0.0003  0.0000 </r>
       </set>
       <set comment="band 18">
        <r>  0.1864  0.0311  0.0662  0.0311  0.0245  0.0269  0.0009  0.0269  0.0000 </r>
        <r>  0.1864  0.0311  0.0662  0.0311  0.0245  0.0269  0.0009  0.0269  0.0000 </r>
       </set>
       <set comment="band 19">
        <r>  0.0001  0.0005  0.0043  0.0005  0.0088  0.0380  0.0244  0.0380  0.0000 </r>
        <r>  0.0001  0.0005  0.0043  0.0005  0.0088  0.0380  0.0244  0.0380  0.0000 </r>
       </set>
       <set comment="band 20">
        <r>  0.0000  0.0003  0.0000  0.0003  0.0000  0.0403  0.0000  0.0403  0.0012 </r>
        <r>  0.0000  0.0003  0.0000  0.0003  0.0000  0.0403  0.0000  0.0403  0.0012 </r>
       </set>
      </set>
      <set comment="kpoint 120">
       <set comment="band 1">
        <r>  0.0033  0.0188  0.0188  0.0188  0.1312  0.1311  0.0000  0.1311  0.0000 </r>
        <r>  0.0033  0.0188  0.0188  0.0188  0.1312  0.1311  0.0000  0.1311  0.0000 </r>
       </set>
       <set comment="band 2">
        <r>  0.0000  0.0099  0.0440  0.0121  0.2549  0.0700  0.0025  0.0576  0.0000 </r>
        <r>  0.0000  0.0099  0.0440  0.0121  0.2549  0.0700  0.0025  0.0576  0.0000 </r>
       </set>
       <set comment="band 3">
        <r>  0.0000  0.0340  0.0000  0.0319  0.0002  0.1849  0.0000  0.1973  0.0025 </r>
        <r>  0.0000  0.0340  0.0000  0.0319  0.0002  0.1849  0.0000  0.1973  0.0025 </r>
       </set>
       <set comment="band 4">
        <r>  0.0000  0.0129  0.0570  0.0156  0.2368  0.0650  0.0034  0.0538  0.0000 </r>
        <r>  0.0000  0.0129  0.0570  0.0156  0.2368  0.0650  0.0034  0.0538  0.0000 </r>
       </set>
       <set comment="band 5">
        <r>  0.0000  0.0441  0.0000  0.0414  0.0002  0.1721  0.0000  0.1833  0.0034 </r>
        <r>  0.0000  0.0441  0.0000  0.0414  0.0002  0.1721  0.0000  0.1833  0.0034 </r>
       </set>
       <set comment="band 6">
        <r>  0.0045  0.0318  0.0318  0.0318  0.1132  0.1134  0.0000  0.1135  0.0000 </r>
        <r>  0.0045  0.0318  0.0318  0.0318  0.1132  0.1134  0.0000  0.1135  0.0000 </r>
       </set>
       <set comment="band 7">
        <r>  0.0000  0.0000  0.0000  0.0000  0.0032  0.0006  0.4854  0.0011  0.0036 </r>
        <r>  0.0000  0.0000  0.0000  0.0000  0.0032  0.0006  0.4854  0.0011  0.0036 </r>
       </set>
       <set comment="band 8">
        <r>  0.0000  0.0000  0.0000  0.0000  0.0000  0.0026  0.0036  0.0022  0.4854 </r>
        <r>  0.0000  0.0000  0.0000  0.0000  0.0000  0.0026  0.0036  0.0022  0.4854 </r>
       </set>
       <set comment="band 9">
        <r>  0.0000  0.0000  0.0000  0.0000  0.0023  0.0004  0.4868  0.0008  0.0036 </r>
        <r>  0.0000  0.0000  0.0000  0.0000  0.0023  0.0004  0.4868  0.0008  0.0036 </r>
       </set>
       <set comment="band 10">
        <r>  0.0000  0.0000  0.0000  0.0000  0.0000  0.0019  0.0036  0.0016  0.4868 </r>
        <r>  0.0000  0.0000  0.0000  0.0000  0.0000  0.0019  0.0036  0.0016  0.4868 </r>
       </set>
       <set comment="band 11">
        <r>  0.0206  0.0542  0.0542  0.0542  0.0788  0.0788  0.0000  0.0788  0.0000 </r>
        <r>  0.0206  0.0542  0.0542  0.0542  0.0788  0.0788  0.0000  0.0788  0.0000 </r>
       </set>
       <set comment="band 12">
        <r>  0.0000  0.0256  0.1211  0.0353  0.1524  0.0444  0.0024  0.0323  0.0000 </r>
        <r>  0.0000  0.0256  0.1211  0.0353  0.1524  0.0444  0.0024  0.0323  0.0000 </r>
       </set>
       <set comment="band 13">
        <r>  0.0000  0.0957  0.0003  0.0860  0.0003  0.1083  0.0000  0.1204  0.0024 </r>
        <r>  0.0000  0.0957  0.0003  0.0860  0.0003  0.1083  0.0000  0.1204  0.0024 </r>
       </set>
       <set comment="band 14">
        <r>  0.0000  0.0246  0.1194  0.0356  0.1496  0.0446  0.0019  0.0309  0.0000 </r>
        <r>  0.0000  0.0246  0.1194  0.0356  0.1496  0.0446  0.0019  0.0309  0.0000 </r>
       </set>
       <set comment="band 15">
        <r>  0.0000  0.0951  0.0003  0.0842  0.0004  0.1055  0.0000  0.1192  0.0019 </r>
        <r>  0.0000  0.0951  0.0003  0.0842  0.0004  0.1055  0.0000  0.1192  0.0019 </r>
       </set>
       <set comment="band 16">
        <r>  0.1143  0.0367  0.0367  0.0367  0.0617  0.0617  0.0000  0.0617  0.0000 </r>
        <r>  0.1143  0.0367  0.0367  0.0367  0.0617  0.0617  0.0000  0.0617  0.0000 </r>
       </set>
       <set comment="band 17">
        <r>  0.3797  0.0073  0.0073  0.0073  0.0009  0.0009  0.0000  0.0009  0.0000 </r>
        <r>  0.3797  0.0073  0.0073  0.0073  0.0009  0.0009  0.0000  0.0009  0.0000 </r>
       </set>
       <set comment="band 18">
        <r>  0.2871  0.0233  0.0233  0.0233  0.0145  0.0145  0.0000  0.0145  0.0000 </r>
        <r>  0.2871  0.0233  0.0233  0.0233  0.0145  0.0145  0.0000  0.0145  0.0000 </r>
       </set>
       <set comment="band 19">
        <r>  0.0000  0.0032  0.0033  0.0006  0.0216  0.0040  0.0123  0.0209  0.0054 </r>
        <r>  0.0000  0.0032  0.0033  0.0006  0.0216  0.0040  0.0123  0.0209  0.0054 </r>
       </set>
       <set comment="band 20">
        <r>  0.0000  0.0012  0.0012  0.0033  0.0079  0.0226  0.0044  0.0084  0.0101 </r>
        <r>  0.0000  0.0012  0.0012  0.0033  0.0079  0.0226  0.0044  0.0084  0.0102 </r>
       </set>
      </set>
     </set>
    </set>
   </array>
  </projected>
 </calculation>
 <structure name="finalpos" >
  <crystal>
   <varray name="basis" >
    <v>       2.83059907      -0.00000000       0.00000000 </v>
    <v>       0.00000000       2.83059907       0.00000000 </v>
    <v>      -0.00000000      -0.00000000       2.83059907 </v>
   </varray>
   <i name="volume">     22.67958381 </i>
   <varray name="rec_basis" >
    <v>       0.35328211      -0.00000000       0.00000000 </v>
    <v>       0.00000000       0.35328211       0.00000000 </v>
    <v>      -0.00000000      -0.00000000       0.35328211 </v>
   </varray>
  </crystal>
  <varray name="positions" >
   <v>       0.00000000       0.00000000       0.00000000 </v>
   <v>       0.50000000       0.50000000       0.50000000 </v>
  </varray>
 </structure>
</modeling>
