   1   1   1   0
  0.1133275E+02  0.2450863E-09  0.2450863E-09  0.2450863E-09  0.5000000E-15
  1.000000000000000E-004
  CAR 
 unknown system                          
     48.30187181     -5.01889307  301      5.85012077      1.00000000
     -5.019  0.0000E+00  0.0000E+00  0.0000E+00  0.0000E+00
     -4.841  0.0000E+00  0.0000E+00  0.0000E+00  0.0000E+00
     -4.663  0.0000E+00  0.0000E+00  0.0000E+00  0.0000E+00
     -4.486  0.0000E+00  0.0000E+00  0.0000E+00  0.0000E+00
     -4.308 -0.2076E-34  0.0000E+00 -0.3690E-35  0.0000E+00
     -4.130 -0.3468E-28 -0.8761E-34 -0.6164E-29 -0.1557E-34
     -3.952 -0.1181E-22 -0.1257E-27 -0.2098E-23 -0.2234E-28
     -3.775 -0.7904E-18 -0.3675E-22 -0.1405E-18 -0.6532E-23
     -3.597 -0.1146E-13 -0.2137E-17 -0.2037E-14 -0.3798E-18
     -3.419 -0.3449E-10 -0.2633E-13 -0.6131E-11 -0.4679E-14
     -3.242 -0.2256E-07 -0.6827E-10 -0.4016E-08 -0.1214E-10
     -3.064 -0.3276E-05 -0.3859E-07 -0.5863E-06 -0.6870E-08
     -2.886 -0.9778E-04 -0.4839E-05 -0.1796E-04 -0.8670E-06
     -2.708 -0.2902E-03 -0.1224E-03 -0.6954E-04 -0.2262E-04
     -2.531  0.3076E-02 -0.2240E-03  0.4772E-03 -0.6243E-04
     -2.353  0.1218E-01  0.3744E-02  0.2642E-02  0.6031E-03
     -2.175  0.1950E-01  0.1300E-01  0.6109E-02  0.2913E-02
     -1.997  0.2442E-01  0.1970E-01  0.1045E-01  0.6414E-02
     -1.820  0.3044E-01  0.2470E-01  0.1586E-01  0.1080E-01
     -1.642  0.3122E-01  0.3017E-01  0.2141E-01  0.1617E-01
     -1.464  0.3968E-01  0.3074E-01  0.2846E-01  0.2163E-01
     -1.286  0.4362E-01  0.3911E-01  0.3621E-01  0.2858E-01
     -1.109  0.3952E-01  0.4253E-01  0.4324E-01  0.3614E-01
     -0.931  0.5616E-01  0.3776E-01  0.5322E-01  0.4285E-01
     -0.753  0.5905E-01  0.5296E-01  0.6371E-01  0.5226E-01
     -0.575  0.4833E-01  0.5715E-01  0.7230E-01  0.6242E-01
     -0.398  0.7031E-01  0.4558E-01  0.8480E-01  0.7052E-01
     -0.220  0.8405E-01  0.5827E-01  0.9974E-01  0.8088E-01
     -0.042  0.6509E-01  0.7995E-01  0.1113E+00  0.9509E-01
      0.135  0.8304E-01  0.5971E-01  0.1261E+00  0.1057E+00
      0.313  0.1186E+00  0.6297E-01  0.1471E+00  0.1169E+00
      0.491  0.1082E+00  0.8609E-01  0.1664E+00  0.1322E+00
      0.669  0.1118E+00  0.9874E-01  0.1863E+00  0.1497E+00
      0.846  0.2122E+00  0.7586E-01  0.2240E+00  0.1632E+00
      1.024  0.3644E+00  0.9015E-01  0.2888E+00  0.1793E+00
      1.202  0.5222E+00  0.1178E+00  0.3816E+00  0.2002E+00
      1.380  0.6477E+00  0.1292E+00  0.4967E+00  0.2232E+00
      1.557  0.7937E+00  0.1172E+00  0.6377E+00  0.2440E+00
      1.735  0.9464E+00  0.1334E+00  0.8060E+00  0.2677E+00
      1.913  0.7666E+00  0.1888E+00  0.9422E+00  0.3013E+00
      2.091  0.5561E+00  0.2326E+00  0.1041E+01  0.3426E+00
      2.268  0.4090E+00  0.2721E+00  0.1114E+01  0.3910E+00
      2.446  0.7798E+00  0.3644E+00  0.1252E+01  0.4557E+00
      2.624  0.1489E+01  0.3738E+00  0.1517E+01  0.5222E+00
      2.801  0.1238E+01  0.3511E+00  0.1737E+01  0.5846E+00
      2.979  0.1007E+01  0.4570E+00  0.1916E+01  0.6658E+00
      3.157  0.1151E+01  0.5999E+00  0.2121E+01  0.7724E+00
      3.335  0.1413E+01  0.6416E+00  0.2372E+01  0.8865E+00
      3.512  0.1288E+01  0.5342E+00  0.2601E+01  0.9814E+00
      3.690  0.7345E+00  0.3600E+00  0.2731E+01  0.1045E+01
      3.868  0.3784E+00  0.3005E+00  0.2798E+01  0.1099E+01
      4.046  0.4874E+00  0.7196E+00  0.2885E+01  0.1227E+01
      4.223  0.4694E+00  0.1253E+01  0.2969E+01  0.1449E+01
      4.401  0.7145E+00  0.1275E+01  0.3095E+01  0.1676E+01
      4.579  0.1360E+01  0.1173E+01  0.3337E+01  0.1885E+01
      4.757  0.1870E+01  0.1118E+01  0.3670E+01  0.2083E+01
      4.934  0.2545E+01  0.1194E+01  0.4122E+01  0.2295E+01
      5.112  0.2030E+01  0.1197E+01  0.4483E+01  0.2508E+01
      5.290  0.9618E+00  0.9939E+00  0.4654E+01  0.2685E+01
      5.468  0.8572E+00  0.6533E+00  0.4806E+01  0.2801E+01
      5.645  0.7436E+00  0.3206E+00  0.4938E+01  0.2858E+01
      5.823  0.6914E+00  0.2962E+00  0.5061E+01  0.2911E+01
      6.001  0.7675E+00  0.2226E+00  0.5198E+01  0.2950E+01
      6.178  0.4741E+00  0.2532E+00  0.5282E+01  0.2995E+01
      6.356  0.1462E+00  0.3698E+00  0.5308E+01  0.3061E+01
      6.534  0.1151E+00  0.4900E+00  0.5328E+01  0.3148E+01
      6.712  0.2005E+00  0.6198E+00  0.5364E+01  0.3258E+01
      6.889  0.1690E+00  0.8497E+00  0.5394E+01  0.3409E+01
      7.067  0.1048E+00  0.1023E+01  0.5413E+01  0.3591E+01
      7.245  0.1239E+00  0.1227E+01  0.5435E+01  0.3809E+01
      7.423  0.1473E+00  0.1356E+01  0.5461E+01  0.4050E+01
      7.600  0.1886E+00  0.1417E+01  0.5494E+01  0.4302E+01
      7.778  0.1531E+00  0.2285E+01  0.5522E+01  0.4708E+01
      7.956  0.1016E+00  0.1847E+01  0.5540E+01  0.5036E+01
      8.134  0.8543E-01  0.8654E+00  0.5555E+01  0.5190E+01
      8.311  0.1549E+00  0.5094E+00  0.5582E+01  0.5281E+01
      8.489  0.1878E+00  0.3100E+00  0.5616E+01  0.5336E+01
      8.667  0.1196E+00  0.2571E+00  0.5637E+01  0.5381E+01
      8.845  0.1047E+00  0.1939E+00  0.5656E+01  0.5416E+01
      9.022  0.1192E+00  0.1531E+00  0.5677E+01  0.5443E+01
      9.200  0.8839E-01  0.2227E+00  0.5692E+01  0.5483E+01
      9.378  0.1061E+00  0.2027E+00  0.5711E+01  0.5519E+01
      9.555  0.1588E+00  0.1582E+00  0.5740E+01  0.5547E+01
      9.733  0.1319E+00  0.1449E+00  0.5763E+01  0.5572E+01
      9.911  0.8469E-01  0.1496E+00  0.5778E+01  0.5599E+01
     10.089  0.8702E-01  0.1989E+00  0.5794E+01  0.5634E+01
     10.266  0.7424E-01  0.1544E+00  0.5807E+01  0.5662E+01
     10.444  0.8704E-01  0.1209E+00  0.5822E+01  0.5683E+01
     10.622  0.1038E+00  0.1171E+00  0.5841E+01  0.5704E+01
     10.800  0.1085E+00  0.1257E+00  0.5860E+01  0.5727E+01
     10.977  0.8909E-01  0.1623E+00  0.5876E+01  0.5755E+01
     11.155  0.6414E-01  0.1384E+00  0.5887E+01  0.5780E+01
     11.333  0.5960E-01  0.9755E-01  0.5898E+01  0.5797E+01
     11.511  0.6330E-01  0.7999E-01  0.5909E+01  0.5812E+01
     11.688  0.5557E-01  0.1087E+00  0.5919E+01  0.5831E+01
     11.866  0.4786E-01  0.9489E-01  0.5927E+01  0.5848E+01
     12.044  0.8464E-01  0.1237E+00  0.5942E+01  0.5870E+01
     12.221  0.5441E-01  0.8709E-01  0.5952E+01  0.5885E+01
     12.399  0.2119E-01  0.7795E-01  0.5956E+01  0.5899E+01
     12.577  0.4609E-01  0.7402E-01  0.5964E+01  0.5912E+01
     12.755  0.3157E-01  0.3752E-01  0.5970E+01  0.5919E+01
     12.932  0.1950E-01  0.5874E-01  0.5973E+01  0.5929E+01
     13.110  0.2337E-01  0.8878E-01  0.5977E+01  0.5945E+01
     13.288  0.7037E-01  0.6846E-01  0.5990E+01  0.5957E+01
     13.466  0.2119E+00  0.4084E-01  0.6027E+01  0.5964E+01
     13.643  0.2594E+00  0.2456E-01  0.6074E+01  0.5969E+01
     13.821  0.2522E+00  0.2586E-01  0.6118E+01  0.5973E+01
     13.999  0.2192E+00  0.1792E-01  0.6157E+01  0.5977E+01
     14.177  0.1820E+00  0.3415E-01  0.6190E+01  0.5983E+01
     14.354  0.1965E+00  0.4081E-01  0.6225E+01  0.5990E+01
     14.532  0.1804E+00  0.7565E-01  0.6257E+01  0.6003E+01
     14.710  0.1740E+00  0.2558E+00  0.6288E+01  0.6049E+01
     14.888  0.1434E+00  0.3293E+00  0.6313E+01  0.6107E+01
     15.065  0.1285E+00  0.2650E+00  0.6336E+01  0.6154E+01
     15.243  0.1772E+00  0.2705E+00  0.6367E+01  0.6203E+01
     15.421  0.1894E+00  0.2044E+00  0.6401E+01  0.6239E+01
     15.598  0.1574E+00  0.1729E+00  0.6429E+01  0.6270E+01
     15.776  0.1505E+00  0.1968E+00  0.6456E+01  0.6305E+01
     15.954  0.2160E+00  0.1693E+00  0.6494E+01  0.6335E+01
     16.132  0.2082E+00  0.1763E+00  0.6531E+01  0.6366E+01
     16.309  0.1943E+00  0.1812E+00  0.6566E+01  0.6398E+01
     16.487  0.2121E+00  0.2174E+00  0.6603E+01  0.6437E+01
     16.665  0.1696E+00  0.2101E+00  0.6634E+01  0.6474E+01
     16.843  0.1598E+00  0.2140E+00  0.6662E+01  0.6512E+01
     17.020  0.2247E+00  0.1880E+00  0.6702E+01  0.6546E+01
     17.198  0.1886E+00  0.2154E+00  0.6735E+01  0.6584E+01
     17.376  0.1574E+00  0.2172E+00  0.6763E+01  0.6623E+01
     17.554  0.1645E+00  0.1927E+00  0.6793E+01  0.6657E+01
     17.731  0.2191E+00  0.1849E+00  0.6832E+01  0.6690E+01
     17.909  0.1854E+00  0.2012E+00  0.6865E+01  0.6725E+01
     18.087  0.2077E+00  0.1689E+00  0.6901E+01  0.6755E+01
     18.265  0.1678E+00  0.1821E+00  0.6931E+01  0.6788E+01
     18.442  0.1558E+00  0.2401E+00  0.6959E+01  0.6831E+01
     18.620  0.2180E+00  0.2050E+00  0.6998E+01  0.6867E+01
     18.798  0.1387E+00  0.1755E+00  0.7022E+01  0.6898E+01
     18.975  0.1522E+00  0.1780E+00  0.7049E+01  0.6930E+01
     19.153  0.1763E+00  0.1680E+00  0.7081E+01  0.6960E+01
     19.331  0.1928E+00  0.2254E+00  0.7115E+01  0.7000E+01
     19.509  0.2235E+00  0.1705E+00  0.7155E+01  0.7030E+01
     19.686  0.1819E+00  0.1534E+00  0.7187E+01  0.7057E+01
     19.864  0.1351E+00  0.1636E+00  0.7211E+01  0.7086E+01
     20.042  0.1393E+00  0.2067E+00  0.7236E+01  0.7123E+01
     20.220  0.1872E+00  0.2402E+00  0.7269E+01  0.7166E+01
     20.397  0.2011E+00  0.1809E+00  0.7305E+01  0.7198E+01
     20.575  0.2058E+00  0.1411E+00  0.7341E+01  0.7223E+01
     20.753  0.1277E+00  0.1597E+00  0.7364E+01  0.7251E+01
     20.931  0.9523E-01  0.1778E+00  0.7381E+01  0.7283E+01
     21.108  0.1361E+00  0.2296E+00  0.7405E+01  0.7324E+01
     21.286  0.2142E+00  0.1725E+00  0.7443E+01  0.7354E+01
     21.464  0.2276E+00  0.1199E+00  0.7484E+01  0.7376E+01
     21.641  0.2075E+00  0.1218E+00  0.7521E+01  0.7397E+01
     21.819  0.1608E+00  0.1973E+00  0.7549E+01  0.7432E+01
     21.997  0.1212E+00  0.2199E+00  0.7571E+01  0.7472E+01
     22.175  0.1682E+00  0.2239E+00  0.7601E+01  0.7511E+01
     22.352  0.2045E+00  0.1826E+00  0.7637E+01  0.7544E+01
     22.530  0.2328E+00  0.1072E+00  0.7678E+01  0.7563E+01
     22.708  0.2037E+00  0.1558E+00  0.7715E+01  0.7591E+01
     22.886  0.1899E+00  0.1881E+00  0.7748E+01  0.7624E+01
     23.063  0.1421E+00  0.2189E+00  0.7774E+01  0.7663E+01
     23.241  0.2589E+00  0.2299E+00  0.7820E+01  0.7704E+01
     23.419  0.2775E+00  0.1712E+00  0.7869E+01  0.7734E+01
     23.597  0.2551E+00  0.1984E+00  0.7914E+01  0.7769E+01
     23.774  0.2983E+00  0.2562E+00  0.7967E+01  0.7815E+01
     23.952  0.2248E+00  0.2990E+00  0.8007E+01  0.7868E+01
     24.130  0.2112E+00  0.3327E+00  0.8045E+01  0.7927E+01
     24.308  0.2245E+00  0.2777E+00  0.8085E+01  0.7977E+01
     24.485  0.2534E+00  0.2555E+00  0.8130E+01  0.8022E+01
     24.663  0.2536E+00  0.2338E+00  0.8175E+01  0.8064E+01
     24.841  0.2163E+00  0.2077E+00  0.8213E+01  0.8100E+01
     25.018  0.2410E+00  0.2605E+00  0.8256E+01  0.8147E+01
     25.196  0.2568E+00  0.2554E+00  0.8302E+01  0.8192E+01
     25.374  0.2810E+00  0.1937E+00  0.8352E+01  0.8227E+01
     25.552  0.2930E+00  0.2476E+00  0.8404E+01  0.8271E+01
     25.729  0.3030E+00  0.3264E+00  0.8458E+01  0.8329E+01
     25.907  0.2626E+00  0.2962E+00  0.8504E+01  0.8381E+01
     26.085  0.1996E+00  0.2668E+00  0.8540E+01  0.8429E+01
     26.263  0.2305E+00  0.2797E+00  0.8581E+01  0.8478E+01
     26.440  0.2416E+00  0.2597E+00  0.8624E+01  0.8525E+01
     26.618  0.2405E+00  0.2342E+00  0.8667E+01  0.8566E+01
     26.796  0.2139E+00  0.2226E+00  0.8705E+01  0.8606E+01
     26.974  0.2347E+00  0.2815E+00  0.8746E+01  0.8656E+01
     27.151  0.2850E+00  0.2043E+00  0.8797E+01  0.8692E+01
     27.329  0.2178E+00  0.1687E+00  0.8836E+01  0.8722E+01
     27.507  0.2054E+00  0.2849E+00  0.8872E+01  0.8773E+01
     27.685  0.1336E+00  0.2787E+00  0.8896E+01  0.8822E+01
     27.862  0.1243E+00  0.2483E+00  0.8918E+01  0.8866E+01
     28.040  0.2281E+00  0.1479E+00  0.8959E+01  0.8893E+01
     28.218  0.1952E+00  0.7081E-01  0.8993E+01  0.8905E+01
     28.395  0.1731E+00  0.1847E+00  0.9024E+01  0.8938E+01
     28.573  0.1500E+00  0.2392E+00  0.9051E+01  0.8981E+01
     28.751  0.1239E+00  0.2093E+00  0.9073E+01  0.9018E+01
     28.929  0.1098E+00  0.1350E+00  0.9092E+01  0.9042E+01
     29.106  0.1774E+00  0.1212E+00  0.9124E+01  0.9063E+01
     29.284  0.1491E+00  0.1428E+00  0.9150E+01  0.9089E+01
     29.462  0.1569E+00  0.1506E+00  0.9178E+01  0.9115E+01
     29.640  0.1160E+00  0.1470E+00  0.9199E+01  0.9142E+01
     29.817  0.1303E+00  0.1556E+00  0.9222E+01  0.9169E+01
     29.995  0.2038E+00  0.1418E+00  0.9258E+01  0.9194E+01
     30.173  0.2095E+00  0.1689E+00  0.9295E+01  0.9224E+01
     30.351  0.2053E+00  0.2101E+00  0.9332E+01  0.9262E+01
     30.528  0.2304E+00  0.2064E+00  0.9373E+01  0.9299E+01
     30.706  0.3770E+00  0.1923E+00  0.9440E+01  0.9333E+01
     30.884  0.3743E+00  0.2489E+00  0.9506E+01  0.9377E+01
     31.061  0.2397E+00  0.3296E+00  0.9549E+01  0.9436E+01
     31.239  0.2309E+00  0.4026E+00  0.9590E+01  0.9507E+01
     31.417  0.2937E+00  0.2969E+00  0.9642E+01  0.9560E+01
     31.595  0.2160E+00  0.2723E+00  0.9681E+01  0.9608E+01
     31.772  0.1618E+00  0.2084E+00  0.9709E+01  0.9645E+01
     31.950  0.2906E+00  0.1301E+00  0.9761E+01  0.9668E+01
     32.128  0.2400E+00  0.2228E+00  0.9804E+01  0.9708E+01
     32.306  0.1312E+00  0.2866E+00  0.9827E+01  0.9759E+01
     32.483  0.1156E+00  0.2371E+00  0.9847E+01  0.9801E+01
     32.661  0.9452E-01  0.1168E+00  0.9864E+01  0.9822E+01
     32.839  0.1325E+00  0.1027E+00  0.9888E+01  0.9840E+01
     33.017  0.2328E+00  0.1900E+00  0.9929E+01  0.9874E+01
     33.194  0.1917E+00  0.1983E+00  0.9963E+01  0.9909E+01
     33.372  0.1945E+00  0.1272E+00  0.9998E+01  0.9932E+01
     33.550  0.3514E+00  0.1313E+00  0.1006E+02  0.9955E+01
     33.728  0.4256E+00  0.1279E+00  0.1014E+02  0.9978E+01
     33.905  0.3359E+00  0.2999E+00  0.1020E+02  0.1003E+02
     34.083  0.2765E+00  0.4780E+00  0.1024E+02  0.1012E+02
     34.261  0.2557E+00  0.3336E+00  0.1029E+02  0.1018E+02
     34.438  0.1953E+00  0.2942E+00  0.1032E+02  0.1023E+02
     34.616  0.1603E+00  0.2594E+00  0.1035E+02  0.1027E+02
     34.794  0.2655E+00  0.2802E+00  0.1040E+02  0.1032E+02
     34.972  0.2814E+00  0.2597E+00  0.1045E+02  0.1037E+02
     35.149  0.2334E+00  0.1541E+00  0.1049E+02  0.1040E+02
     35.327  0.2727E+00  0.2122E+00  0.1054E+02  0.1043E+02
     35.505  0.2692E+00  0.2179E+00  0.1059E+02  0.1047E+02
     35.683  0.2395E+00  0.2120E+00  0.1063E+02  0.1051E+02
     35.860  0.2085E+00  0.3405E+00  0.1067E+02  0.1057E+02
     36.038  0.2030E+00  0.3632E+00  0.1070E+02  0.1064E+02
     36.216  0.2272E+00  0.2352E+00  0.1074E+02  0.1068E+02
     36.394  0.2802E+00  0.1656E+00  0.1079E+02  0.1071E+02
     36.571  0.2618E+00  0.2039E+00  0.1084E+02  0.1074E+02
     36.749  0.3561E+00  0.2017E+00  0.1090E+02  0.1078E+02
     36.927  0.2608E+00  0.2948E+00  0.1095E+02  0.1083E+02
     37.105  0.2178E+00  0.3731E+00  0.1099E+02  0.1090E+02
     37.282  0.2215E+00  0.2270E+00  0.1103E+02  0.1094E+02
     37.460  0.2339E+00  0.2000E+00  0.1107E+02  0.1097E+02
     37.638  0.2908E+00  0.2348E+00  0.1112E+02  0.1102E+02
     37.815  0.2118E+00  0.2975E+00  0.1116E+02  0.1107E+02
     37.993  0.2991E+00  0.2402E+00  0.1121E+02  0.1111E+02
     38.171  0.2992E+00  0.2122E+00  0.1127E+02  0.1115E+02
     38.349  0.2782E+00  0.3098E+00  0.1132E+02  0.1120E+02
     38.526  0.2036E+00  0.2691E+00  0.1135E+02  0.1125E+02
     38.704  0.1797E+00  0.2439E+00  0.1138E+02  0.1130E+02
     38.882  0.2051E+00  0.2848E+00  0.1142E+02  0.1135E+02
     39.060  0.1919E+00  0.2143E+00  0.1145E+02  0.1138E+02
     39.237  0.1849E+00  0.1594E+00  0.1149E+02  0.1141E+02
     39.415  0.2524E+00  0.1905E+00  0.1153E+02  0.1145E+02
     39.593  0.2051E+00  0.2599E+00  0.1157E+02  0.1149E+02
     39.771  0.1262E+00  0.2029E+00  0.1159E+02  0.1153E+02
     39.948  0.1758E+00  0.2031E+00  0.1162E+02  0.1156E+02
     40.126  0.1805E+00  0.1907E+00  0.1165E+02  0.1160E+02
     40.304  0.1942E+00  0.1641E+00  0.1169E+02  0.1163E+02
     40.481  0.1676E+00  0.1844E+00  0.1172E+02  0.1166E+02
     40.659  0.1342E+00  0.1939E+00  0.1174E+02  0.1170E+02
     40.837  0.1588E+00  0.1251E+00  0.1177E+02  0.1172E+02
     41.015  0.1080E+00  0.9575E-01  0.1179E+02  0.1173E+02
     41.192  0.9112E-01  0.1964E+00  0.1181E+02  0.1177E+02
     41.370  0.8057E-01  0.1784E+00  0.1182E+02  0.1180E+02
     41.548  0.7943E-01  0.8147E-01  0.1183E+02  0.1182E+02
     41.726  0.1326E+00  0.6168E-01  0.1186E+02  0.1183E+02
     41.903  0.8336E-01  0.7286E-01  0.1187E+02  0.1184E+02
     42.081  0.6259E-01  0.8766E-01  0.1188E+02  0.1185E+02
     42.259  0.9209E-01  0.9500E-01  0.1190E+02  0.1187E+02
     42.437  0.4585E-01  0.7238E-01  0.1191E+02  0.1188E+02
     42.614  0.4410E-01  0.8680E-01  0.1192E+02  0.1190E+02
     42.792  0.5929E-01  0.4203E-01  0.1193E+02  0.1191E+02
     42.970  0.7046E-01  0.3870E-01  0.1194E+02  0.1191E+02
     43.148  0.3885E-01  0.7990E-01  0.1195E+02  0.1193E+02
     43.325  0.2332E-01  0.7654E-01  0.1195E+02  0.1194E+02
     43.503  0.2188E-01  0.3881E-01  0.1195E+02  0.1195E+02
     43.681  0.4505E-01  0.2342E-01  0.1196E+02  0.1195E+02
     43.858  0.6210E-01  0.1588E-01  0.1197E+02  0.1196E+02
     44.036  0.2520E-01  0.2825E-01  0.1198E+02  0.1196E+02
     44.214  0.1688E-01  0.5674E-01  0.1198E+02  0.1197E+02
     44.392  0.1586E-01  0.4581E-01  0.1198E+02  0.1198E+02
     44.569  0.3001E-01  0.2727E-01  0.1199E+02  0.1198E+02
     44.747  0.2467E-01  0.9673E-02  0.1199E+02  0.1199E+02
     44.925  0.1314E-01  0.2757E-01  0.1200E+02  0.1199E+02
     45.103  0.9158E-02  0.1141E-01  0.1200E+02  0.1199E+02
     45.280  0.1026E-01  0.9509E-02  0.1200E+02  0.1199E+02
     45.458  0.3667E-02  0.2026E-01  0.1200E+02  0.1200E+02
     45.636  0.2784E-02  0.6244E-02  0.1200E+02  0.1200E+02
     45.814  0.4380E-03  0.6371E-03  0.1200E+02  0.1200E+02
     45.991 -0.1257E-03  0.3069E-02  0.1200E+02  0.1200E+02
     46.169 -0.8905E-05  0.6073E-03  0.1200E+02  0.1200E+02
     46.347 -0.8650E-07 -0.1330E-03  0.1200E+02  0.1200E+02
     46.525 -0.1520E-09 -0.1091E-04  0.1200E+02  0.1200E+02
     46.702 -0.5156E-13 -0.1171E-06  0.1200E+02  0.1200E+02
     46.880 -0.3238E-17 -0.2256E-09  0.1200E+02  0.1200E+02
     47.058  0.0000E+00 -0.8381E-13  0.1200E+02  0.1200E+02
     47.235  0.0000E+00 -0.6475E-17  0.1200E+02  0.1200E+02
     47.413  0.0000E+00  0.0000E+00  0.1200E+02  0.1200E+02
     47.591  0.0000E+00  0.0000E+00  0.1200E+02  0.1200E+02
     47.769  0.0000E+00  0.0000E+00  0.1200E+02  0.1200E+02
     47.946  0.0000E+00  0.0000E+00  0.1200E+02  0.1200E+02
     48.124  0.0000E+00  0.0000E+00  0.1200E+02  0.1200E+02
     48.302  0.0000E+00  0.0000E+00  0.1200E+02  0.1200E+02
     48.30187181     -5.01889307  301      5.85012077      1.00000000
     -5.019  0.0000E+00  0.0000E+00  0.0000E+00  0.0000E+00  0.0000E+00  0.0000E+00  0.0000E+00  0.0000E+00  0.0000E+00  0.0000E+00  0.0000E+00  0.0000E+00  0.0000E+00  0.0000E+00  0.0000E+00  0.0000E+00  0.0000E+00  0.0000E+00
     -4.841  0.0000E+00  0.0000E+00  0.0000E+00  0.0000E+00  0.0000E+00  0.0000E+00  0.0000E+00  0.0000E+00  0.0000E+00  0.0000E+00  0.0000E+00  0.0000E+00  0.0000E+00  0.0000E+00  0.0000E+00  0.0000E+00  0.0000E+00  0.0000E+00
     -4.663  0.0000E+00  0.0000E+00  0.0000E+00  0.0000E+00  0.0000E+00  0.0000E+00  0.0000E+00  0.0000E+00  0.0000E+00  0.0000E+00  0.0000E+00  0.0000E+00  0.0000E+00  0.0000E+00  0.0000E+00  0.0000E+00  0.0000E+00  0.0000E+00
     -4.486  0.0000E+00  0.0000E+00  0.0000E+00  0.0000E+00  0.0000E+00  0.0000E+00  0.0000E+00  0.0000E+00  0.0000E+00  0.0000E+00  0.0000E+00  0.0000E+00  0.0000E+00  0.0000E+00  0.0000E+00  0.0000E+00  0.0000E+00  0.0000E+00
     -4.308 -0.1523E-34  0.0000E+00 -0.9308E-53  0.0000E+00 -0.9308E-53  0.0000E+00 -0.9308E-53  0.0000E+00 -0.1222E-49  0.0000E+00 -0.1222E-49  0.0000E+00 -0.2026E-50  0.0000E+00 -0.1222E-49  0.0000E+00 -0.2026E-50  0.0000E+00
     -4.130 -0.2543E-28 -0.6423E-34 -0.5605E-33  0.0000E+00 -0.5605E-33  0.0000E+00 -0.5605E-33  0.0000E+00 -0.4226E-35 -0.2673E-49 -0.4226E-35 -0.2840E-49 -0.1626E-35 -0.8701E-47 -0.4226E-35 -0.2773E-49 -0.1626E-35 -0.8701E-47
     -3.952 -0.8657E-23 -0.9216E-28 -0.4410E-27 -0.2145E-32 -0.4410E-27 -0.2145E-32 -0.4410E-27 -0.2145E-32 -0.3323E-29 -0.1163E-34 -0.3323E-29 -0.1163E-34 -0.1284E-29 -0.4348E-35 -0.3323E-29 -0.1163E-34 -0.1284E-29 -0.4348E-35
     -3.775 -0.5795E-18 -0.2694E-22 -0.7047E-22 -0.1454E-26 -0.7047E-22 -0.1454E-26 -0.7047E-22 -0.1454E-26 -0.5303E-24 -0.7878E-29 -0.5303E-24 -0.7878E-29 -0.2069E-24 -0.2958E-29 -0.5303E-24 -0.7878E-29 -0.2069E-24 -0.2958E-29
     -3.597 -0.8397E-14 -0.1566E-17 -0.2205E-17 -0.2001E-21 -0.2205E-17 -0.2001E-21 -0.2205E-17 -0.2001E-21 -0.1655E-19 -0.1083E-23 -0.1655E-19 -0.1083E-23 -0.6611E-20 -0.4108E-24 -0.1655E-19 -0.1083E-23 -0.6611E-20 -0.4108E-24
     -3.419 -0.2525E-10 -0.1929E-13 -0.1417E-13 -0.5384E-17 -0.1417E-13 -0.5384E-17 -0.1417E-13 -0.5384E-17 -0.1057E-15 -0.2906E-19 -0.1057E-15 -0.2906E-19 -0.4441E-16 -0.1129E-19 -0.1057E-15 -0.2906E-19 -0.4441E-16 -0.1129E-19
     -3.242 -0.1649E-07 -0.4996E-10 -0.1805E-10 -0.2975E-13 -0.1805E-10 -0.2975E-13 -0.1805E-10 -0.2975E-13 -0.1332E-12 -0.1595E-15 -0.1332E-12 -0.1595E-15 -0.6257E-13 -0.6543E-16 -0.1332E-12 -0.1595E-15 -0.6257E-13 -0.6543E-16
     -3.064 -0.2389E-05 -0.2819E-07 -0.4479E-08 -0.3253E-10 -0.4479E-08 -0.3253E-10 -0.4479E-08 -0.3253E-10 -0.3284E-10 -0.1725E-12 -0.3284E-10 -0.1725E-12 -0.1918E-10 -0.7961E-13 -0.3284E-10 -0.1725E-12 -0.1918E-10 -0.7961E-13
     -2.886 -0.7109E-04 -0.3527E-05 -0.2101E-06 -0.6911E-08 -0.2101E-06 -0.6911E-08 -0.2101E-06 -0.6911E-08 -0.1684E-08 -0.3644E-10 -0.1684E-08 -0.3644E-10 -0.1334E-08 -0.2113E-10 -0.1684E-08 -0.3644E-10 -0.1334E-08 -0.2113E-10
     -2.708 -0.2078E-03 -0.8891E-04 -0.1671E-05 -0.2758E-06 -0.1671E-05 -0.2758E-06 -0.1671E-05 -0.2758E-06 -0.2507E-07 -0.1618E-08 -0.2507E-07 -0.1618E-08 -0.2045E-07 -0.1274E-08 -0.2507E-07 -0.1618E-08 -0.2045E-07 -0.1274E-08
     -2.531  0.2247E-02 -0.1588E-03  0.3080E-05 -0.1799E-05  0.3080E-05 -0.1799E-05  0.3080E-05 -0.1799E-05 -0.8003E-07 -0.2148E-07 -0.8003E-07 -0.2148E-07 -0.4088E-07 -0.1661E-07 -0.8003E-07 -0.2148E-07 -0.4088E-07 -0.1661E-07
     -2.353  0.8778E-02  0.2730E-02  0.5251E-04  0.5034E-05  0.5251E-04  0.5034E-05  0.5251E-04  0.5034E-05  0.7280E-06 -0.4695E-07  0.7280E-06 -0.4695E-07  0.3898E-06 -0.2043E-07  0.7280E-06 -0.4695E-07  0.3898E-06 -0.2043E-07
     -2.175  0.1385E-01  0.9349E-02  0.1496E-03  0.6021E-04  0.1496E-03  0.6021E-04  0.1496E-03  0.6021E-04  0.2965E-05  0.6398E-06  0.2965E-05  0.6398E-06  0.3027E-05  0.3499E-06  0.2965E-05  0.6398E-06  0.3027E-05  0.3499E-06
     -1.997  0.1700E-01  0.1396E-01  0.2968E-03  0.1582E-03  0.2968E-03  0.1582E-03  0.2968E-03  0.1582E-03  0.1215E-04  0.2318E-05  0.1215E-04  0.2318E-05  0.7492E-05  0.2318E-05  0.1215E-04  0.2318E-05  0.7492E-05  0.2318E-05
     -1.820  0.2081E-01  0.1715E-01  0.4823E-03  0.3106E-03  0.4823E-03  0.3106E-03  0.4823E-03  0.3106E-03  0.2351E-04  0.9247E-05  0.2351E-04  0.9247E-05  0.2097E-04  0.5352E-05  0.2351E-04  0.9247E-05  0.2097E-04  0.5352E-05
     -1.642  0.2092E-01  0.2060E-01  0.6174E-03  0.4889E-03  0.6174E-03  0.4889E-03  0.6174E-03  0.4889E-03  0.4050E-04  0.1645E-04  0.4050E-04  0.1645E-04  0.3432E-04  0.1469E-04  0.4050E-04  0.1645E-04  0.3432E-04  0.1469E-04
     -1.464  0.2595E-01  0.2058E-01  0.9591E-03  0.6206E-03  0.9591E-03  0.6206E-03  0.9591E-03  0.6206E-03  0.9287E-04  0.2831E-04  0.9287E-04  0.2831E-04  0.5879E-04  0.2257E-04  0.9287E-04  0.2831E-04  0.5879E-04  0.2257E-04
     -1.286  0.2802E-01  0.2558E-01  0.1183E-02  0.9631E-03  0.1183E-02  0.9631E-03  0.1183E-02  0.9631E-03  0.1126E-03  0.6308E-04  0.1126E-03  0.6308E-04  0.1180E-03  0.3777E-04  0.1126E-03  0.6308E-04  0.1180E-03  0.3777E-04
     -1.109  0.2471E-01  0.2737E-01  0.1234E-02  0.1172E-02  0.1234E-02  0.1172E-02  0.1234E-02  0.1172E-02  0.1716E-03  0.7274E-04  0.1716E-03  0.7274E-04  0.1269E-03  0.7430E-04  0.1716E-03  0.7274E-04  0.1269E-03  0.7430E-04
     -0.931  0.3417E-01  0.2371E-01  0.1971E-02  0.1200E-02  0.1971E-02  0.1200E-02  0.1971E-02  0.1200E-02  0.3243E-03  0.1067E-03  0.3243E-03  0.1067E-03  0.2392E-03  0.7611E-04  0.3243E-03  0.1067E-03  0.2392E-03  0.7611E-04
     -0.753  0.3512E-01  0.3244E-01  0.2222E-02  0.1894E-02  0.2222E-02  0.1894E-02  0.2222E-02  0.1894E-02  0.4063E-03  0.1997E-03  0.4063E-03  0.1997E-03  0.3786E-03  0.1333E-03  0.4063E-03  0.1997E-03  0.3786E-03  0.1333E-03
     -0.575  0.2783E-01  0.3434E-01  0.1978E-02  0.2203E-02  0.1978E-02  0.2203E-02  0.1978E-02  0.2203E-02  0.4570E-03  0.2425E-03  0.4570E-03  0.2425E-03  0.3915E-03  0.2171E-03  0.4570E-03  0.2425E-03  0.3915E-03  0.2171E-03
     -0.398  0.3900E-01  0.2671E-01  0.3150E-02  0.1909E-02  0.3150E-02  0.1909E-02  0.3150E-02  0.1909E-02  0.8672E-03  0.2568E-03  0.8672E-03  0.2568E-03  0.6869E-03  0.2127E-03  0.8672E-03  0.2568E-03  0.6869E-03  0.2127E-03
     -0.220  0.4534E-01  0.3307E-01  0.3909E-02  0.2689E-02  0.3909E-02  0.2689E-02  0.3909E-02  0.2689E-02  0.1236E-02  0.4333E-03  0.1236E-02  0.4333E-03  0.1048E-02  0.3088E-03  0.1236E-02  0.4333E-03  0.1048E-02  0.3088E-03
     -0.042  0.3343E-01  0.4435E-01  0.3118E-02  0.3896E-02  0.3118E-02  0.3896E-02  0.3118E-02  0.3896E-02  0.1314E-02  0.6749E-03  0.1314E-02  0.6749E-03  0.1141E-02  0.5407E-03  0.1314E-02  0.6749E-03  0.1141E-02  0.5407E-03
      0.135  0.4062E-01  0.3228E-01  0.4283E-02  0.3027E-02  0.4283E-02  0.3027E-02  0.4283E-02  0.3027E-02  0.1887E-02  0.6342E-03  0.1887E-02  0.6342E-03  0.1823E-02  0.5016E-03  0.1887E-02  0.6342E-03  0.1823E-02  0.5016E-03
      0.313  0.5542E-01  0.3269E-01  0.6204E-02  0.3427E-02  0.6204E-02  0.3427E-02  0.6204E-02  0.3427E-02  0.3551E-02  0.8122E-03  0.3551E-02  0.8122E-03  0.2805E-02  0.6989E-03  0.3551E-02  0.8122E-03  0.2805E-02  0.6989E-03
      0.491  0.4717E-01  0.4345E-01  0.5468E-02  0.4961E-02  0.5468E-02  0.4961E-02  0.5468E-02  0.4961E-02  0.4244E-02  0.1235E-02  0.4244E-02  0.1235E-02  0.3514E-02  0.1019E-02  0.4244E-02  0.1235E-02  0.3514E-02  0.1019E-02
      0.669  0.4496E-01  0.4817E-01  0.5874E-02  0.5812E-02  0.5874E-02  0.5812E-02  0.5874E-02  0.5812E-02  0.4758E-02  0.1840E-02  0.4758E-02  0.1840E-02  0.4960E-02  0.1327E-02  0.4758E-02  0.1840E-02  0.4960E-02  0.1327E-02
      0.846  0.7330E-01  0.3565E-01  0.9518E-02  0.4519E-02  0.9518E-02  0.4519E-02  0.9518E-02  0.4519E-02  0.1505E-01  0.1699E-02  0.1505E-01  0.1699E-02  0.1106E-01  0.1313E-02  0.1505E-01  0.1699E-02  0.1106E-01  0.1313E-02
      1.024  0.8687E-01  0.4003E-01  0.9859E-02  0.5657E-02  0.9859E-02  0.5657E-02  0.9859E-02  0.5657E-02  0.3663E-01  0.2166E-02  0.3663E-01  0.2166E-02  0.3883E-01  0.2196E-02  0.3663E-01  0.2166E-02  0.3883E-01  0.2196E-02
      1.202  0.8764E-01  0.5073E-01  0.1074E-01  0.7621E-02  0.1074E-01  0.7621E-02  0.1074E-01  0.7621E-02  0.5206E-01  0.3395E-02  0.5206E-01  0.3395E-02  0.8450E-01  0.2619E-02  0.5206E-01  0.3395E-02  0.8450E-01  0.2619E-02
      1.380  0.9051E-01  0.5268E-01  0.1431E-01  0.8174E-02  0.1431E-01  0.8174E-02  0.1431E-01  0.8174E-02  0.5874E-01  0.4895E-02  0.5874E-01  0.4895E-02  0.1226E+00  0.3261E-02  0.5874E-01  0.4895E-02  0.1226E+00  0.3261E-02
      1.557  0.8079E-01  0.4455E-01  0.1766E-01  0.7218E-02  0.1766E-01  0.7218E-02  0.1766E-01  0.7218E-02  0.6246E-01  0.5003E-02  0.6246E-01  0.5003E-02  0.1822E+00  0.4425E-02  0.6246E-01  0.5003E-02  0.1822E+00  0.4425E-02
      1.735  0.7059E-01  0.4723E-01  0.2163E-01  0.8365E-02  0.2163E-01  0.8365E-02  0.2163E-01  0.8365E-02  0.6929E-01  0.6156E-02  0.6929E-01  0.6156E-02  0.2399E+00  0.6140E-02  0.6929E-01  0.6156E-02  0.2399E+00  0.6140E-02
      1.913  0.4878E-01  0.6249E-01  0.1724E-01  0.1135E-01  0.1724E-01  0.1135E-01  0.1724E-01  0.1135E-01  0.7016E-01  0.1182E-01  0.7016E-01  0.1182E-01  0.1808E+00  0.7804E-02  0.7016E-01  0.1182E-01  0.1808E+00  0.7804E-02
      2.091  0.2607E-01  0.6804E-01  0.1089E-01  0.1181E-01  0.1089E-01  0.1181E-01  0.1089E-01  0.1181E-01  0.6985E-01  0.1816E-01  0.6985E-01  0.1816E-01  0.1136E+00  0.1370E-01  0.6985E-01  0.1816E-01  0.1136E+00  0.1370E-01
      2.268  0.1153E-01  0.6472E-01  0.8201E-02  0.1013E-01  0.8201E-02  0.1013E-01  0.8201E-02  0.1013E-01  0.4893E-01  0.2725E-01  0.4893E-01  0.2725E-01  0.9165E-01  0.2295E-01  0.4893E-01  0.2725E-01  0.9165E-01  0.2295E-01
      2.446  0.3832E-02  0.7923E-01  0.1373E-01  0.1335E-01  0.1373E-01  0.1335E-01  0.1373E-01  0.1335E-01  0.1495E+00  0.4046E-01  0.1495E+00  0.4046E-01  0.1114E+00  0.3011E-01  0.1495E+00  0.4046E-01  0.1114E+00  0.3011E-01
      2.624  0.3483E-02  0.7526E-01  0.2235E-01  0.1496E-01  0.2235E-01  0.1496E-01  0.2235E-01  0.1496E-01  0.3335E+00  0.4135E-01  0.3335E+00  0.4135E-01  0.1556E+00  0.3241E-01  0.3335E+00  0.4135E-01  0.1556E+00  0.3241E-01
      2.801  0.5280E-02  0.5811E-01  0.1652E-01  0.1283E-01  0.1652E-01  0.1283E-01  0.1652E-01  0.1283E-01  0.2770E+00  0.3904E-01  0.2770E+00  0.3904E-01  0.1336E+00  0.3979E-01  0.2770E+00  0.3904E-01  0.1336E+00  0.3979E-01
      2.979  0.8999E-02  0.5615E-01  0.1779E-01  0.1569E-01  0.1779E-01  0.1569E-01  0.1779E-01  0.1569E-01  0.2225E+00  0.4435E-01  0.2225E+00  0.4435E-01  0.1028E+00  0.7395E-01  0.2225E+00  0.4435E-01  0.1028E+00  0.7395E-01
      3.157  0.1432E-01  0.5214E-01  0.2691E-01  0.1982E-01  0.2691E-01  0.1982E-01  0.2691E-01  0.1982E-01  0.2528E+00  0.4661E-01  0.2528E+00  0.4661E-01  0.1058E+00  0.1273E+00  0.2528E+00  0.4661E-01  0.1058E+00  0.1273E+00
      3.335  0.1730E-01  0.3930E-01  0.3344E-01  0.1880E-01  0.3344E-01  0.1880E-01  0.3344E-01  0.1880E-01  0.3070E+00  0.4945E-01  0.3070E+00  0.4945E-01  0.1359E+00  0.1509E+00  0.3070E+00  0.4945E-01  0.1359E+00  0.1509E+00
      3.512  0.1852E-01  0.2635E-01  0.2920E-01  0.1459E-01  0.2920E-01  0.1459E-01  0.2920E-01  0.1459E-01  0.2907E+00  0.5239E-01  0.2907E+00  0.5239E-01  0.1106E+00  0.1163E+00  0.2907E+00  0.5239E-01  0.1106E+00  0.1163E+00
      3.690  0.1191E-01  0.1291E-01  0.1942E-01  0.9509E-02  0.1942E-01  0.9509E-02  0.1942E-01  0.9509E-02  0.1620E+00  0.3810E-01  0.1620E+00  0.3810E-01  0.6297E-01  0.7817E-01  0.1620E+00  0.3810E-01  0.6297E-01  0.7817E-01
      3.868  0.5582E-02  0.3741E-02  0.1209E-01  0.8914E-02  0.1209E-01  0.8914E-02  0.1209E-01  0.8914E-02  0.7694E-01  0.3139E-01  0.7694E-01  0.3139E-01  0.3857E-01  0.6843E-01  0.7694E-01  0.3139E-01  0.3857E-01  0.6843E-01