    1    1    1    2
  0.1133275E+02  0.2450863E-09  0.2450863E-09  0.2450863E-09  0.5000000E-15
  1.000000000000000E-004
  CAR 
 unknown system                          
      8    286     12
 
  0.0000000E+00  0.0000000E+00  0.0000000E+00  0.1079797E-03
    1       -2.595222     -2.434500   1.000000   1.000000
    2        3.549710      5.429018   1.000000   1.005602
    3        3.549711      5.429155   1.000000   1.005615
    4        3.549712      5.429166   1.000000   1.005616
    5        4.757932      7.495464   1.000000  -0.000000
    6        4.757933      7.495632   1.000000  -0.000000
    7       30.897806     30.642520   0.000000   0.000000
    8       30.897806     30.642520   0.000000   0.000000
    9       30.897806     30.642521   0.000000   0.000000
   10       35.995473     36.191980   0.000000   0.000000
   11       35.995474     36.191987   0.000000   0.000000
   12       38.317991     38.956539   0.000000   0.000000
 
  0.4761905E-01  0.0000000E+00  0.0000000E+00  0.1295756E-02
    1       -2.500795     -2.339693   1.000000   1.000000
    2        3.523715      5.397792   1.000000   1.003141
    3        3.548017      5.423904   1.000000   1.005117
    4        3.600429      5.484150   1.000000   1.013310
    5        4.731479      7.460725   1.000000  -0.000000
    6        4.759906      7.497694   1.000000  -0.000000
    7       30.249877     30.099340   0.000000   0.000000
    8       30.763713     30.537973   0.000000   0.000000
    9       30.829030     30.609646   0.000000   0.000000
   10       35.546126     35.833162   0.000000   0.000000
   11       36.299351     36.561869   0.000000   0.000000
   12       36.748421     37.579163   0.000000   0.000000
 
  0.9523810E-01  0.0000000E+00  0.0000000E+00  0.1295756E-02
    1       -2.221689     -2.058731   1.000000   1.000000
    2        3.448802      5.307811   1.000000   1.000427
    3        3.537214      5.402973   1.000000   1.003472
    4        3.750300      5.647186   1.000000   1.026584
    5        4.665681      7.369989   1.000000  -0.000000
    6        4.766467      7.505117   1.000000  -0.000000
    7       28.690772     28.749108   0.000000   0.000000
    8       30.292434     30.158179   0.000000   0.000000
    9       30.649037     30.521671   0.000000   0.000000
   10       35.045699     35.372654   0.000000   0.000000
   11       35.067401     35.878845   0.000000   0.000000
   12       35.476726     36.222478   0.000000   0.000000
 
  0.1428571E+00  0.0000000E+00  0.0000000E+00  0.1295756E-02
    1       -1.771846     -1.602929   1.000000   1.000000
    2        3.332844      5.169015   1.000000   1.000008
    3        3.502951      5.352150   1.000000   1.001212
    4        3.990800      5.909512   1.000000   0.260557
    5        4.596592      7.260321   1.000000  -0.000000
    6        4.778350      7.519257   1.000000  -0.000000
    7       26.692467     26.960080   0.000000   0.000000
    8       29.459424     29.438565   0.000000   0.000000
    9       30.412923     30.402669   0.000000   0.000000
   10       33.406658     34.221645   0.000000   0.000000
   11       34.554349     35.237362   0.000000   0.000000
   12       35.123010     35.372026   0.000000   0.000000
 
  0.1904762E+00  0.0000000E+00  0.0000000E+00  0.1295756E-02
    1       -1.180120     -0.993774   1.000000   1.000000
    2        3.187795      4.996183   1.000000   1.000000
    3        3.442788      5.261651   1.000000   1.000128
    4        4.307812      6.256702   1.000000  -0.007178
    5        4.564848      7.176444   1.000000  -0.000000
    6        4.796275      7.541692   1.000000  -0.000000
    7       24.501761     24.946605   0.000000   0.000000
    8       28.428781     28.484479   0.000000   0.000000
    9       30.168708     30.276320   0.000000   0.000000
   10       31.853644     32.640312   0.000000   0.000000
   11       33.908960     34.538486   0.000000   0.000000
   12       35.676132     35.882851   0.000000   0.000000
 
  0.2380952E+00  0.0000000E+00  0.0000000E+00  0.1295756E-02
    1       -0.503278     -0.268568   1.000000   1.000000
    2        3.027719      4.806422   1.000000   1.000000
    3        3.403300      5.149963   1.000000   1.000004
    4        4.587323      6.666824   1.000000  -0.000000
    5        4.680209      7.146578   1.000000  -0.000000
    6        4.820259      7.573005   1.000000  -0.000000
    7       22.254311     22.846168   0.000000   0.000000
    8       27.377013     27.465856   0.000000   0.000000
    9       29.945247     30.158694   0.000000   0.000000
   10       30.412653     31.163246   0.000000   0.000000
   11       33.494006     34.099328   0.000000   0.000000
   12       36.590719     36.788499   0.000000   0.000000
 
  0.2857143E+00  0.0000000E+00  0.0000000E+00  0.1295756E-02
    1        0.150061      0.508126   1.000000   1.000000
    2        2.867429      4.617394   1.000000   1.000000
    3        3.501275      5.080265   1.000000   1.000000
    4        4.653732      7.111229   1.000000  -0.000000
    5        4.849308      7.169301   1.000000  -0.000000
    6        5.080864      7.612263   1.000000  -0.000000
    7       20.036813     20.759330   0.000000   0.000000
    8       26.409025     26.502886   0.000000   0.000000
    9       29.115435     29.824021   0.000000   0.000000
   10       29.756092     30.058216   0.000000   0.000000
   11       33.258350     33.862639   0.000000   0.000000
   12       37.776975     37.989380   0.000000   0.000000
 
  0.3333333E+00  0.0000000E+00  0.0000000E+00  0.1295756E-02
    1        0.624262      1.229703   1.000000   1.000000
    2        2.720796      4.445284   1.000000   1.000000
    3        3.885954      5.156280   1.000000   1.000005
    4        4.751998      7.223916   1.000000  -0.000000
    5        4.880664      7.552855   1.000000  -0.000000
    6        5.475651      7.655778   1.011810  -0.000000
    7       17.919464     18.772624   0.000000   0.000000
    8       25.583465     25.667536   0.000000   0.000000
    9       27.999591     28.663069   0.000000   0.000000
   10       29.605863     29.978099   0.000000   0.000000
   11       33.154301     33.772255   0.000000   0.000000
   12       39.180077     39.420008   0.000000   0.000000
 
  0.3809524E+00  0.0000000E+00  0.0000000E+00  0.1295756E-02
    1        0.848949      1.764920   1.000000   1.000000
    2        2.599790      4.303812   1.000000   1.000000
    3        4.502848      5.473745   1.000000   1.011489
    4        4.910212      7.285138   1.000000  -0.000000
    5        4.955725      7.697657   1.000000  -0.000000
    6        5.825099      7.947347   0.604963  -0.000000
    7       15.984485     16.984654   0.000000   0.000000
    8       24.936527     25.005322   0.000000   0.000000
    9       27.107139     27.727094   0.000000   0.000000
   10       29.494930     29.918872   0.000000   0.000000
   11       33.135457     33.774246   0.000000   0.000000
   12       40.516539     40.647180   0.000000   0.000000
 
  0.4285714E+00  0.0000000E+00  0.0000000E+00  0.1295756E-02
    1        0.912357      2.057675   1.000000   1.000000
    2        2.513670      4.203422   1.000000   1.000000
    3        4.764907      5.983447   1.000000   0.052320
    4        4.933368      7.330471   1.000000  -0.000000
    5        5.640399      7.730979   1.029464  -0.000000
    6        6.088384      8.247149  -0.035278  -0.000000
    7       14.373359     15.545038   0.000000   0.000000
    8       24.492308     24.547022   0.000000   0.000000
    9       26.480805     27.065391   0.000000   0.000000
   10       29.422128     29.880013   0.000000   0.000000
   11       33.156724     33.816168   0.000000   0.000000
   12       40.461322     40.529746   0.000000   0.000000
 
  0.4761905E+00  0.0000000E+00  0.0000000E+00  0.1295756E-02
    1        0.919302      2.169601   1.000000   1.000000
    2        2.469049      4.151513   1.000000   1.000000
    3        4.822456      6.406723   1.000000  -0.000298
    4        4.946151      7.346242   1.000000  -0.000000
    5        6.230417      7.749560  -0.010847  -0.000000
    6        6.274139      8.409907  -0.005321  -0.000000
    7       13.372572     14.695786   0.000000   0.000000
    8       24.266336     24.312785   0.000000   0.000000
    9       26.156977     26.721457   0.000000   0.000000
   10       29.386129     29.860811   0.000000   0.000000
   11       33.179143     33.851575   0.000000   0.000000
   12       40.412031     40.444625   0.000000   0.000000
 
  0.4761905E-01  0.4761905E-01  0.0000000E+00  0.2591513E-02
    1       -2.313977     -2.151777   1.000000   1.000000
    2        3.490332      5.355801   1.000000   1.001313
    3        3.518051      5.385742   1.000000   1.002472
    4        3.707697      5.599936   1.000000   1.035356
    5        4.682489      7.395319   1.000000  -0.000000
    6        4.766831      7.504974   1.000000  -0.000000
    7       29.316148     29.286000   0.000000   0.000000
    8       30.019575     29.948131   0.000000   0.000000
    9       31.007774     30.784091   0.000000   0.000000
   10       35.003271     35.412010   0.000000   0.000000
   11       35.106536     35.856577   0.000000   0.000000
   12       36.515137     37.079307   0.000000   0.000000
 
  0.9523810E-01  0.4761905E-01 -0.1387779E-16  0.5183026E-02
    1       -1.948939     -1.783075   1.000000   1.000000
    2        3.398730      5.245630   1.000000   1.000082
    3        3.485527      5.340570   1.000000   1.000933
    4        3.909924      5.818596   1.000000   0.631572
    5        4.607811      7.288545   1.000000  -0.000000
    6        4.782179      7.521580   1.000000  -0.000000
    7       27.668107     27.829258   0.000000   0.000000
    8       29.121444     29.184883   0.000000   0.000000
    9       30.985457     30.833221   0.000000   0.000000
   10       33.381325     34.178202   0.000000   0.000000
   11       34.860713     35.164477   0.000000   0.000000
   12       35.908567     36.612698   0.000000   0.000000
 
  0.1428571E+00  0.4761905E-01 -0.2775558E-16  0.5183026E-02
    1       -1.425886     -1.249407   1.000000   1.000000
    2        3.265996      5.087248   1.000000   1.000000
    3        3.432380      5.267975   1.000000   1.000153
    4        4.195686      6.128452   1.000000  -0.032073
    5        4.550047      7.184592   1.000000  -0.000000
    6        4.804175      7.546468   1.000000  -0.000000
    7       25.617363     25.971989   0.000000   0.000000
    8       28.176648     28.321525   0.000000   0.000000
    9       30.719014     30.715120   0.000000   0.000000
   10       31.961433     32.691034   0.000000   0.000000
   11       35.002893     35.349270   0.000000   0.000000
   12       35.247363     35.811984   0.000000   0.000000
 
  0.1904762E+00  0.4761905E-01  0.0000000E+00  0.5183026E-02
    1       -0.784826     -0.578875   1.000000   1.000000
    2        3.111195      4.903216   1.000000   1.000000
    3        3.367124      5.161279   1.000000   1.000006
    4        4.527994      6.513056   1.000000  -0.000014
    5        4.564206      7.124158   1.000000  -0.000000
    6        4.831875      7.579007   1.000000  -0.000000
    7       23.410066     23.926782   0.000000   0.000000
    8       27.211868     27.394729   0.000000   0.000000
    9       30.070213     30.386418   0.000000   0.000000
   10       30.972364     31.474411   0.000000   0.000000
   11       34.481844     35.088305   0.000000   0.000000
   12       35.814563     36.052978   0.000000   0.000000
 
  0.2380952E+00  0.4761905E-01  0.0000000E+00  0.5183026E-02
    1       -0.104448      0.179890   1.000000   1.000000
    2        2.949687      4.711934   1.000000   1.000000
    3        3.363744      5.056258   1.000000   1.000000
    4        4.585863      6.947607   1.000000  -0.000000
    5        4.862252      7.123744   1.000000  -0.000000
    6        4.956757      7.618405   1.000000  -0.000000
    7       21.176863     21.830541   0.000000   0.000000
    8       26.288587     26.479638   0.000000   0.000000
    9       28.998063     29.587705   0.000000   0.000000
   10       30.530393     30.834485   0.000000   0.000000
   11       34.064222     34.657475   0.000000   0.000000
   12       36.754119     36.986562   0.000000   0.000000
 
  0.2857143E+00  0.4761905E-01  0.0000000E+00  0.5183026E-02
    1        0.476209      0.943249   1.000000   1.000000
    2        2.795993      4.530460   1.000000   1.000000
    3        3.557365      5.034446   1.000000   1.000000
    4        4.672003      7.165231   1.000000  -0.000000
    5        4.901546      7.405759   1.000000  -0.000000
    6        5.381413      7.664739   1.002264  -0.000000
    7       19.002059     19.783365   0.000000   0.000000
    8       25.462395     25.644626   0.000000   0.000000
    9       27.926844     28.550432   0.000000   0.000000
   10       30.267167     30.586776   0.000000   0.000000
   11       33.819329     34.414454   0.000000   0.000000
   12       37.851757     38.093696   0.000000   0.000000
 
  0.3333333E+00  0.4761905E-01  0.0000000E+00  0.5183026E-02
    1        0.819315      1.584989   1.000000   1.000000
    2        2.662709      4.373579   1.000000   1.000000
    3        4.027989      5.202091   1.000000   1.000023
    4        4.781422      7.233323   1.000000  -0.000000
    5        4.969761      7.699068   1.000000  -0.000000
    6        5.809784      7.857591   0.666888  -0.000000
    7       16.960616     17.877212   0.000000   0.000000
    8       24.776554     24.942628   0.000000   0.000000
    9       27.005681     27.608688   0.000000   0.000000
   10       30.081613     30.447067   0.000000   0.000000
   11       33.707118     34.316887   0.000000   0.000000
   12       38.917701     39.146425   0.000000   0.000000
 
  0.3809524E+00  0.4761905E-01  0.2775558E-16  0.5183026E-02
    1        0.943501      1.995104   1.000000   1.000000
    2        2.559949      4.253023   1.000000   1.000000
    3        4.521185      5.597376   1.000000   1.035236
    4        4.854945      7.295561   1.000000  -0.000000
    5        5.234801      7.755165   1.000060  -0.000000
    6        6.247024      8.234055  -0.008402  -0.000000
    7       15.155833     16.230473   0.000000   0.000000
    8       24.263349     24.412967   0.000000   0.000000
    9       26.298550     26.871293   0.000000   0.000000
   10       29.955365     30.358994   0.000000   0.000000
   11       33.678648     34.308709   0.000000   0.000000
   12       39.639034     39.790216   0.000000   0.000000
 
  0.4285714E+00  0.4761905E-01 -0.2775558E-16  0.5183026E-02
    1        0.965922      2.183853   1.000000   1.000000
    2        2.495278      4.177350   1.000000   1.000000
    3        4.735913      6.051525   1.000000  -0.025841
    4        4.860581      7.330180   1.000000  -0.000000
    5        5.656996      7.808796   1.021182  -0.000000
    6        6.718875      8.510534  -0.000000  -0.000000
    7       13.789059     15.036908   0.000000   0.000000
    8       23.945845     24.083632   0.000000   0.000000
    9       25.852684     26.401053   0.000000   0.000000
   10       29.881738     30.309176   0.000000   0.000000
   11       33.686191     34.333824   0.000000   0.000000
   12       39.920672     39.991033   0.000000   0.000000
 
  0.4761905E+00  0.4761905E-01  0.5551115E-16  0.2591513E-02
    1        0.965514      2.233777   1.000000   1.000000
    2        2.473201      4.151547   1.000000   1.000000
    3        4.821484      6.256630   1.000000  -0.007186
    4        4.825921      7.337213   1.000000  -0.000000
    5        5.819666      7.836255   0.627223  -0.000000
    6        6.980220      8.618387  -0.000000  -0.000000
    7       13.241071     14.581724   0.000000   0.000000
    8       23.838363     23.971882   0.000000   0.000000
    9       25.700198     26.239306   0.000000   0.000000
   10       29.857525     30.292979   0.000000   0.000000
   11       33.693345     34.347975   0.000000   0.000000
   12       39.980234     40.021731   0.000000   0.000000
 
  0.9523810E-01  0.9523810E-01  0.0000000E+00  0.2591513E-02
    1       -1.509130     -1.335668   1.000000   1.000000
    2        3.324087      5.150272   1.000000   1.000004
    3        3.387959      5.229064   1.000000   1.000051
    4        4.170384      6.096048   1.000000  -0.035454
    5        4.535790      7.179089   1.000000  -0.000000
    6        4.814793      7.556237   1.000000  -0.000000
    7       26.365021     26.631138   0.000000   0.000000
    8       27.561395     27.815746   0.000000   0.000000
    9       31.226550     31.104081   0.000000   0.000000
   10       31.746708     32.493789   0.000000   0.000000
   11       34.735722     35.052629   0.000000   0.000000
   12       36.373866     36.990170   0.000000   0.000000
 
  0.1428571E+00  0.9523810E-01  0.0000000E+00  0.5183026E-02
    1       -0.929948     -0.737206   1.000000   1.000000
    2        3.194399      4.993836   1.000000   1.000000
    3        3.293309      5.112234   1.000000   1.000001
    4        4.488928      6.457737   1.000000  -0.000075
    5        4.516538      7.089825   1.000000  -0.000000
    6        4.855867      7.600574   1.000000  -0.000000
    7       24.531899     24.955221   0.000000   0.000000
    8       26.288279     26.623321   0.000000   0.000000
    9       30.291459     30.880373   0.000000   0.000000
   10       31.266568     31.335315   0.000000   0.000000
   11       34.923348     35.247018   0.000000   0.000000
   12       36.339156     36.884166   0.000000   0.000000
 
  0.1904762E+00  0.9523810E-01  0.5551115E-16  0.5183026E-02
    1       -0.265681     -0.023640   1.000000   1.000000
    2        3.034406      4.807247   1.000000   1.000000
    3        3.224870      4.989378   1.000000   1.000000
    4        4.505471      6.882301   1.000000  -0.000000
    5        4.873747      7.056420   1.000000  -0.000000
    6        4.947246      7.650103   1.000000  -0.000000
    7       22.387550     22.961393   0.000000   0.000000
    8       25.292426     25.655730   0.000000   0.000000
    9       29.014740     29.621361   0.000000   0.000000
   10       31.148310     31.258863   0.000000   0.000000
   11       35.272652     35.652212   0.000000   0.000000
   12       36.246781     36.698703   0.000000   0.000000
 
  0.2380952E+00  0.9523810E-01  0.0000000E+00  0.5183026E-02
    1        0.378423      0.742758   1.000000   1.000000
    2        2.874836      4.619157   1.000000   1.000000
    3        3.257662      4.898993   1.000000   1.000000
    4        4.570083      7.074962   1.000000  -0.000000
    5        4.937121      7.347935   1.000000  -0.000000
    6        5.393228      7.710709   1.002872  -0.000000
    7       20.197024     20.900181   0.000000   0.000000
    8       24.445219     24.819048   0.000000   0.000000
    9       27.889183     28.461007   0.000000   0.000000
   10       30.987304     31.185496   0.000000   0.000000
   11       35.320327     35.812572   0.000000   0.000000
   12       36.697554     37.023314   0.000000   0.000000
 
  0.2857143E+00  0.9523810E-01 -0.2775558E-16  0.5183026E-02
    1        0.843872      1.457495   1.000000   1.000000
    2        2.734543      4.450438   1.000000   1.000000
    3        3.503912      4.923495   1.000000   1.000000
    4        4.670118      7.142684   1.000000  -0.000000
    5        4.997240      7.676109   1.000000  -0.000000
    6        5.904779      7.920171   0.278020  -0.000000
    7       18.079520     18.908330   0.000000   0.000000
    8       23.731291     24.104458   0.000000   0.000000
    9       26.931660     27.465416   0.000000   0.000000
   10       30.836790     31.107064   0.000000   0.000000
   11       35.209734     35.739893   0.000000   0.000000
   12       37.477389     37.757171   0.000000   0.000000
 
  0.3333333E+00  0.9523810E-01  0.2775558E-16  0.5183026E-02
    1        1.053532      1.986769   1.000000   1.000000
    2        2.622449      4.315403   1.000000   1.000000
    3        3.929840      5.143567   1.000000   1.000003
    4        4.767276      7.223447   1.000000  -0.000000
    5        5.120763      7.758109   1.000002  -0.000000
    6        6.479702      8.372503  -0.000040  -0.000000
    7       16.126591     17.095428   0.000000   0.000000
    8       23.165894     23.532516   0.000000   0.000000
    9       26.171553     26.667768   0.000000   0.000000
   10       30.717425     31.040956   0.000000   0.000000
   11       35.142137     35.697913   0.000000   0.000000
   12       38.227883     38.451039   0.000000   0.000000
 
  0.3809524E+00  0.9523810E-01  0.0000000E+00  0.5183026E-02
    1        1.102483      2.270286   1.000000   1.000000
    2        2.544030      4.221544   1.000000   1.000000
    3        4.288832      5.508837   1.000000   1.018269
    4        4.808297      7.285766   1.000000  -0.000000
    5        5.349589      7.824364   1.001144  -0.000000
    6        7.126476      8.808678  -0.000000  -0.000000
    7       14.475872     15.610580   0.000000   0.000000
    8       22.771000     23.129987   0.000000   0.000000
    9       25.641539     26.106481   0.000000   0.000000
   10       30.636057     30.994470   0.000000   0.000000
   11       35.126418     35.707348   0.000000   0.000000
   12       38.764754     38.902869   0.000000   0.000000
 
  0.4285714E+00  0.9523810E-01  0.0000000E+00  0.5183026E-02
    1        1.101793      2.374718   1.000000   1.000000
    2        2.503625      4.173397   1.000000   1.000000
    3        4.460526      5.791682   1.000000   0.735961
    4        4.807616      7.312449   1.000000  -0.000000
    5        5.537142      7.879631   1.024691  -0.000000
    6        7.667627      9.114197  -0.000000  -0.000000
    7       13.422211     14.711153   0.000000   0.000000
    8       22.567216     22.921272   0.000000   0.000000
    9       25.368875     25.815788   0.000000   0.000000
   10       30.594983     30.970619   0.000000   0.000000
   11       35.131429     35.729307   0.000000   0.000000
   12       39.023228     39.095270   0.000000   0.000000
 
  0.1428571E+00  0.1428571E+00  0.0000000E+00  0.2591513E-02
    1       -0.320834     -0.092556   1.000000   1.000000
    2        3.114605      4.881486   1.000000   1.000000
    3        3.125100      4.922155   1.000000   1.000000
    4        4.471524      6.869778   1.000000  -0.000000
    5        4.871297      7.023217   1.000000  -0.000000
    6        4.960296      7.665725   1.000000  -0.000000
    7       23.278144     23.774063   0.000000   0.000000
    8       24.408260     24.880662   0.000000   0.000000
    9       29.058534     29.685715   0.000000   0.000000
   10       31.426092     31.435183   0.000000   0.000000
   11       34.961319     35.313358   0.000000   0.000000
   12       37.352069     37.809196   0.000000   0.000000
 
  0.1904762E+00  0.1428571E+00  0.0000000E+00  0.5183026E-02
    1        0.330423      0.639714   1.000000   1.000000
    2        2.934603      4.700218   1.000000   1.000000
    3        3.083879      4.791477   1.000000   1.000000
    4        4.499198      7.011347   1.000000  -0.000000
    5        4.955853      7.328900   1.000000  -0.000000
    6        5.419776      7.747313   1.004750  -0.000000
    7       21.425305     22.045053   0.000000   0.000000
    8       23.162198     23.672276   0.000000   0.000000
    9       27.963508     28.537469   0.000000   0.000000
   10       31.466929     31.548640   0.000000   0.000000
   11       35.255100     35.612811   0.000000   0.000000
   12       37.795179     38.223231   0.000000   0.000000
 
  0.2380952E+00  0.1428571E+00  0.0000000E+00  0.5183026E-02
    1        0.893064      1.382109   1.000000   1.000000
    2        2.781374      4.510259   1.000000   1.000000
    3        3.151055      4.732555   1.000000   1.000000
    4        4.573267      7.055321   1.000000  -0.000000
    5        5.013587      7.656548   1.000000  -0.000000
    6        5.988318      8.001715   0.043312  -0.000000
    7       19.317215     20.057978   0.000000   0.000000
    8       22.326017     22.847684   0.000000   0.000000
    9       27.023744     27.552190   0.000000   0.000000
   10       31.426557     31.586761   0.000000   0.000000
   11       35.719084     36.065422   0.000000   0.000000
   12       37.891927     38.326693   0.000000   0.000000
 
  0.2857143E+00  0.1428571E+00  0.2775558E-16  0.5183026E-02
    1        1.218091      2.012053   1.000000   1.000000
    2        2.669084      4.362037   1.000000   1.000000
    3        3.399741      4.790413   1.000000   1.000000
    4        4.673598      7.136296   1.000000  -0.000000
    5        5.089811      7.741768   1.000001  -0.000000
    6        6.653487      8.527773  -0.000000  -0.000000
    7       17.269537     18.133535   0.000000   0.000000
    8       21.678020     22.201892   0.000000   0.000000
    9       26.254522     26.743566   0.000000   0.000000
   10       31.364186     31.591748   0.000000   0.000000
   11       36.229358     36.562979   0.000000   0.000000
   12       37.935544     38.360593   0.000000   0.000000
 
  0.3333333E+00  0.1428571E+00  0.0000000E+00  0.5183026E-02
    1        1.316098      2.409878   1.000000   1.000000
    2        2.591290      4.260832   1.000000   1.000000
    3        3.731259      5.008879   1.000000   1.000000
    4        4.755907      7.222474   1.000000  -0.000000
    5        5.217948      7.792793   1.000037  -0.000000
    6        7.426775      9.109957  -0.000000  -0.000000
    7       15.415191     16.422933   0.000000   0.000000
    8       21.197792     21.717486   0.000000   0.000000
    9       25.680101     26.136996   0.000000   0.000000
   10       31.310045     31.587449   0.000000   0.000000
   11       36.689430     37.038656   0.000000   0.000000
   12       37.984480     38.343473   0.000000   0.000000
 
  0.3809524E+00  0.1428571E+00  0.0000000E+00  0.5183026E-02
    1        1.318839      2.582126   1.000000   1.000000
    2        2.544178      4.201238   1.000000   1.000000
    3        3.967061      5.275872   1.000000   1.000188
    4        4.790737      7.279867   1.000000  -0.000000
    5        5.368057      7.843170   1.001712  -0.000000
    6        8.215194      9.649563  -0.000000  -0.000000
    7       13.949442     15.124517   0.000000   0.000000
    8       20.898877     21.412840   0.000000   0.000000
    9       25.324244     25.759623   0.000000   0.000000
   10       31.275311     31.582974   0.000000   0.000000
   11       37.029077     37.460266   0.000000   0.000000
   12       38.006547     38.223683   0.000000   0.000000
 
  0.4285714E+00  0.1428571E+00  0.5551115E-16  0.2591513E-02
    1        1.311717      2.624448   1.000000   1.000000
    2        2.528224      4.181276   1.000000   1.000000
    3        4.046550      5.393557   1.000000   1.002890
    4        4.797292      7.297532   1.000000  -0.000000
    5        5.435055      7.867955   1.006220  -0.000000
    6        8.612170      9.903905  -0.000000  -0.000000
    7       13.324317     14.600183   0.000000   0.000000
    8       20.797031     21.308408   0.000000   0.000000
    9       25.203637     25.631406   0.000000   0.000000
   10       31.263470     31.581248   0.000000   0.000000
   11       37.163178     37.704205   0.000000   0.000000
   12       38.003028     38.082749   0.000000   0.000000
 
  0.1904762E+00  0.1904762E+00  0.0000000E+00  0.2591513E-02
    1        0.918915      1.357238   1.000000   1.000000
    2        2.781539      4.529595   1.000000   1.000000
    3        3.042091      4.669364   1.000000   1.000000
    4        4.534036      7.019445   1.000000  -0.000000
    5        5.019076      7.650682   1.000000  -0.000000
    6        6.019510      8.033925  -0.001102  -0.000000
    7       20.326883     21.003052   0.000000   0.000000
    8       21.236941     21.837611   0.000000   0.000000
    9       27.071056     27.608616   0.000000   0.000000
   10       31.702930     31.801008   0.000000   0.000000
   11       35.332005     35.693764   0.000000   0.000000
   12       39.273329     39.637610   0.000000   0.000000
 
  0.2380952E+00  0.1904762E+00  0.2775558E-16  0.5183026E-02
    1        1.364475      2.038977   1.000000   1.000000
    2        2.652520      4.355567   1.000000   1.000000
    3        3.114321      4.630946   1.000000   1.000000
    4        4.608588      7.076167   1.000000  -0.000000
    5        5.080845      7.731498   1.000000  -0.000000
    6        6.743965      8.618546  -0.000000  -0.000000
    7       18.518831     19.290314   0.000000   0.000000
    8       20.209137     20.837594   0.000000   0.000000
    9       26.331799     26.840535   0.000000   0.000000
   10       31.845747     31.983591   0.000000   0.000000
   11       35.616589     35.947767   0.000000   0.000000
   12       39.912567     40.303315   0.000000   0.000000
 
  0.2857143E+00  0.1904762E+00 -0.2775558E-16  0.5183026E-02
    1        1.564264      2.556939   1.000000   1.000000
    2        2.587741      4.247504   1.000000   1.000000
    3        3.298436      4.684039   1.000000   1.000000
    4        4.702868      7.163952   1.000000  -0.000000
    5        5.156540      7.763233   1.000005  -0.000000
    6        7.606193      9.310400  -0.000000  -0.000000
    7       16.565855     17.454013   0.000000   0.000000
    8       19.607294     20.240261   0.000000   0.000000
    9       25.755034     26.240558   0.000000   0.000000
   10       31.919702     32.106087   0.000000   0.000000
   11       36.058739     36.325056   0.000000   0.000000
   12       39.906623     40.340915   0.000000   0.000000
 
  0.3333333E+00  0.1904762E+00  0.0000000E+00  0.5183026E-02
    1        1.593557      2.828458   1.000000   1.000000
    2        2.561506      4.200235   1.000000   1.000000