PROCAR lm decomposed
# of k-points:  286         # of bands:   12         # of ions:    1

 k-point     1 :    0.00000000 0.00000000 0.00000000     weight = 0.00010798

band     1 # energy   -2.59522194 # occ.  1.00000000
 
ion      s     py     pz     px    dxy    dyz    dz2    dxz  x2-y2    tot
    1  0.733  0.000  0.000  0.000  0.000  0.000  0.000  0.000  0.000  0.733
 
band     2 # energy    3.54971002 # occ.  1.00000000
 
ion      s     py     pz     px    dxy    dyz    dz2    dxz  x2-y2    tot
    1  0.000  0.000  0.000  0.000  0.826  0.074  0.000  0.078  0.000  0.979
 
band     3 # energy    3.54971078 # occ.  1.00000000
 
ion      s     py     pz     px    dxy    dyz    dz2    dxz  x2-y2    tot
    1  0.000  0.000  0.000  0.000  0.000  0.486  0.000  0.493  0.000  0.979
 
band     4 # energy    3.54971235 # occ.  1.00000000
 
ion      s     py     pz     px    dxy    dyz    dz2    dxz  x2-y2    tot
    1  0.000  0.000  0.000  0.000  0.153  0.418  0.000  0.408  0.000  0.979
 
band     5 # energy    4.75793194 # occ.  1.00000000
 
ion      s     py     pz     px    dxy    dyz    dz2    dxz  x2-y2    tot
    1  0.000  0.000  0.000  0.000  0.000  0.000  0.964  0.000  0.007  0.971
 
band     6 # energy    4.75793304 # occ.  1.00000000
 
ion      s     py     pz     px    dxy    dyz    dz2    dxz  x2-y2    tot
    1  0.000  0.000  0.000  0.000  0.000  0.000  0.007  0.000  0.964  0.971
 
band     7 # energy   30.89780587 # occ.  0.00000000
 
ion      s     py     pz     px    dxy    dyz    dz2    dxz  x2-y2    tot
    1  0.000  0.000  0.000  0.000  0.000  0.000  0.000  0.000  0.000  0.000
 
band     8 # energy   30.89780632 # occ.  0.00000000
 
ion      s     py     pz     px    dxy    dyz    dz2    dxz  x2-y2    tot
    1  0.000  0.000  0.000  0.000  0.000  0.000  0.000  0.000  0.000  0.000
 
band     9 # energy   30.89780634 # occ.  0.00000000
 
ion      s     py     pz     px    dxy    dyz    dz2    dxz  x2-y2    tot
    1  0.000  0.000  0.000  0.000  0.000  0.000  0.000  0.000  0.000  0.000
 
band    10 # energy   35.99547310 # occ.  0.00000000
 
ion      s     py     pz     px    dxy    dyz    dz2    dxz  x2-y2    tot
    1  0.000  0.000  0.000  0.000  0.000  0.000  0.802  0.000  0.001  0.803
 
band    11 # energy   35.99547365 # occ.  0.00000000
 
ion      s     py     pz     px    dxy    dyz    dz2    dxz  x2-y2    tot
    1  0.000  0.000  0.000  0.000  0.000  0.000  0.001  0.000  0.802  0.803
 
band    12 # energy   38.31799135 # occ.  0.00000000
 
ion      s     py     pz     px    dxy    dyz    dz2    dxz  x2-y2    tot
    1  0.000  0.000  0.000  0.000  1.007  0.262  0.000  0.566  0.000  1.836
 

 k-point     2 :    0.04761905 0.00000000 0.00000000     weight = 0.00129576

band     1 # energy   -2.50079508 # occ.  1.00000000
 
ion      s     py     pz     px    dxy    dyz    dz2    dxz  x2-y2    tot
    1  0.727  0.003  0.003  0.000  0.000  0.000  0.000  0.000  0.000  0.734
 
band     2 # energy    3.52371498 # occ.  1.00000000
 
ion      s     py     pz     px    dxy    dyz    dz2    dxz  x2-y2    tot
    1  0.000  0.000  0.000  0.000  0.489  0.000  0.000  0.489  0.000  0.978
 
band     3 # energy    3.54801748 # occ.  1.00000000
 
ion      s     py     pz     px    dxy    dyz    dz2    dxz  x2-y2    tot
    1  0.000  0.000  0.000  0.000  0.000  0.977  0.000  0.000  0.000  0.978
 
band     4 # energy    3.60042884 # occ.  1.00000000
 
ion      s     py     pz     px    dxy    dyz    dz2    dxz  x2-y2    tot
    1  0.000  0.000  0.000  0.001  0.489  0.000  0.000  0.489  0.000  0.979
 
band     5 # energy    4.73147862 # occ.  1.00000000
 
ion      s     py     pz     px    dxy    dyz    dz2    dxz  x2-y2    tot
    1  0.000  0.000  0.000  0.000  0.000  0.001  0.242  0.000  0.727  0.970
 
band     6 # energy    4.75990600 # occ.  1.00000000
 
ion      s     py     pz     px    dxy    dyz    dz2    dxz  x2-y2    tot
    1  0.000  0.000  0.000  0.000  0.000  0.000  0.728  0.000  0.243  0.971
 
band     7 # energy   30.24987718 # occ.  0.00000000
 
ion      s     py     pz     px    dxy    dyz    dz2    dxz  x2-y2    tot
    1  0.000  0.003  0.003  0.000  0.000  0.063  0.024  0.000  0.072  0.165
 
band     8 # energy   30.76371313 # occ.  0.00000000
 
ion      s     py     pz     px    dxy    dyz    dz2    dxz  x2-y2    tot
    1  0.000  0.001  0.001  0.000  0.000  0.000  0.032  0.000  0.011  0.044
 
band     9 # energy   30.82902984 # occ.  0.00000000
 
ion      s     py     pz     px    dxy    dyz    dz2    dxz  x2-y2    tot
    1  0.000  0.000  0.000  0.000  0.035  0.000  0.000  0.035  0.000  0.070
 
band    10 # energy   35.54612642 # occ.  0.00000000
 
ion      s     py     pz     px    dxy    dyz    dz2    dxz  x2-y2    tot
    1  0.000  0.077  0.077  0.000  0.000  0.000  0.400  0.000  0.133  0.688
 
band    11 # energy   36.29935126 # occ.  0.00000000
 
ion      s     py     pz     px    dxy    dyz    dz2    dxz  x2-y2    tot
    1  0.004  0.094  0.094  0.000  0.000  0.054  0.108  0.000  0.325  0.678
 
band    12 # energy   36.74842058 # occ.  0.00000000
 
ion      s     py     pz     px    dxy    dyz    dz2    dxz  x2-y2    tot
    1  0.000  0.000  0.000  0.376  0.466  0.000  0.000  0.466  0.000  1.308
 

 k-point     3 :    0.09523810 0.00000000 0.00000000     weight = 0.00129576

band     1 # energy   -2.22168903 # occ.  1.00000000
 
ion      s     py     pz     px    dxy    dyz    dz2    dxz  x2-y2    tot
    1  0.707  0.013  0.013  0.000  0.000  0.001  0.000  0.000  0.000  0.734
 
band     2 # energy    3.44880156 # occ.  1.00000000
 
ion      s     py     pz     px    dxy    dyz    dz2    dxz  x2-y2    tot
    1  0.000  0.000  0.000  0.000  0.488  0.000  0.000  0.488  0.000  0.976
 
band     3 # energy    3.53721418 # occ.  1.00000000
 
ion      s     py     pz     px    dxy    dyz    dz2    dxz  x2-y2    tot
    1  0.000  0.002  0.002  0.000  0.000  0.962  0.002  0.000  0.007  0.975
 
band     4 # energy    3.75029994 # occ.  1.00000000
 
ion      s     py     pz     px    dxy    dyz    dz2    dxz  x2-y2    tot
    1  0.000  0.000  0.000  0.002  0.488  0.000  0.000  0.488  0.000  0.978
 
band     5 # energy    4.66568126 # occ.  1.00000000
 
ion      s     py     pz     px    dxy    dyz    dz2    dxz  x2-y2    tot
    1  0.000  0.000  0.000  0.000  0.000  0.011  0.239  0.000  0.717  0.967
 
band     6 # energy    4.76646692 # occ.  1.00000000
 
ion      s     py     pz     px    dxy    dyz    dz2    dxz  x2-y2    tot
    1  0.000  0.000  0.000  0.000  0.000  0.000  0.728  0.000  0.243  0.971
 
band     7 # energy   28.69077223 # occ.  0.00000000
 
ion      s     py     pz     px    dxy    dyz    dz2    dxz  x2-y2    tot
    1  0.002  0.025  0.025  0.000  0.000  0.180  0.048  0.000  0.145  0.425
 
band     8 # energy   30.29243377 # occ.  0.00000000
 
ion      s     py     pz     px    dxy    dyz    dz2    dxz  x2-y2    tot
    1  0.000  0.013  0.013  0.000  0.000  0.000  0.100  0.000  0.033  0.160
 
band     9 # energy   30.64903694 # occ.  0.00000000
 
ion      s     py     pz     px    dxy    dyz    dz2    dxz  x2-y2    tot
    1  0.000  0.000  0.000  0.000  0.121  0.000  0.000  0.121  0.000  0.242
 
band    10 # energy   35.04569866 # occ.  0.00000000
 
ion      s     py     pz     px    dxy    dyz    dz2    dxz  x2-y2    tot
    1  0.000  0.000  0.000  0.443  0.387  0.000  0.000  0.387  0.000  1.217
 
band    11 # energy   35.06740122 # occ.  0.00000000
 
ion      s     py     pz     px    dxy    dyz    dz2    dxz  x2-y2    tot
    1  0.000  0.133  0.133  0.000  0.000  0.000  0.174  0.000  0.058  0.498
 
band    12 # energy   35.47672614 # occ.  0.00000000
 
ion      s     py     pz     px    dxy    dyz    dz2    dxz  x2-y2    tot
    1  0.035  0.221  0.221  0.000  0.000  0.398  0.007  0.000  0.020  0.903
 

 k-point     4 :    0.14285714 0.00000000 0.00000000     weight = 0.00129576

band     1 # energy   -1.77184553 # occ.  1.00000000
 
ion      s     py     pz     px    dxy    dyz    dz2    dxz  x2-y2    tot
    1  0.673  0.028  0.028  0.000  0.000  0.005  0.000  0.000  0.001  0.736
 
band     2 # energy    3.33284351 # occ.  1.00000000
 
ion      s     py     pz     px    dxy    dyz    dz2    dxz  x2-y2    tot
    1  0.000  0.000  0.000  0.000  0.487  0.000  0.000  0.487  0.000  0.973
 
band     3 # energy    3.50295096 # occ.  1.00000000
 
ion      s     py     pz     px    dxy    dyz    dz2    dxz  x2-y2    tot
    1  0.002  0.005  0.005  0.000  0.000  0.909  0.012  0.000  0.035  0.968
 
band     4 # energy    3.99080022 # occ.  1.00000000
 
ion      s     py     pz     px    dxy    dyz    dz2    dxz  x2-y2    tot
    1  0.000  0.000  0.000  0.005  0.486  0.000  0.000  0.486  0.000  0.977
 
band     5 # energy    4.59659182 # occ.  1.00000000
 
ion      s     py     pz     px    dxy    dyz    dz2    dxz  x2-y2    tot
    1  0.000  0.000  0.000  0.000  0.000  0.052  0.228  0.000  0.685  0.966
 
band     6 # energy    4.77835020 # occ.  1.00000000
 
ion      s     py     pz     px    dxy    dyz    dz2    dxz  x2-y2    tot
    1  0.000  0.000  0.000  0.000  0.000  0.000  0.729  0.000  0.243  0.972
 
band     7 # energy   26.69246731 # occ.  0.00000000
 
ion      s     py     pz     px    dxy    dyz    dz2    dxz  x2-y2    tot
    1  0.013  0.061  0.061  0.000  0.000  0.267  0.053  0.000  0.158  0.613
 
band     8 # energy   29.45942370 # occ.  0.00000000
 
ion      s     py     pz     px    dxy    dyz    dz2    dxz  x2-y2    tot
    1  0.000  0.041  0.041  0.000  0.000  0.000  0.140  0.000  0.047  0.268
 
band     9 # energy   30.41292326 # occ.  0.00000000
 
ion      s     py     pz     px    dxy    dyz    dz2    dxz  x2-y2    tot
    1  0.000  0.000  0.000  0.000  0.224  0.000  0.000  0.224  0.000  0.449
 
band    10 # energy   33.40665837 # occ.  0.00000000
 
ion      s     py     pz     px    dxy    dyz    dz2    dxz  x2-y2    tot
    1  0.000  0.000  0.000  0.497  0.321  0.000  0.000  0.321  0.000  1.138
 
band    11 # energy   34.55434905 # occ.  0.00000000
 
ion      s     py     pz     px    dxy    dyz    dz2    dxz  x2-y2    tot
    1  0.067  0.189  0.189  0.000  0.000  0.236  0.039  0.000  0.117  0.837
 
band    12 # energy   35.12300973 # occ.  0.00000000
 
ion      s     py     pz     px    dxy    dyz    dz2    dxz  x2-y2    tot
    1  0.000  0.144  0.144  0.000  0.000  0.000  0.045  0.000  0.015  0.348
 

 k-point     5 :    0.19047619 0.00000000 0.00000000     weight = 0.00129576

band     1 # energy   -1.18012002 # occ.  1.00000000
 
ion      s     py     pz     px    dxy    dyz    dz2    dxz  x2-y2    tot
    1  0.623  0.046  0.046  0.000  0.000  0.018  0.001  0.000  0.004  0.739
 
band     2 # energy    3.18779544 # occ.  1.00000000
 
ion      s     py     pz     px    dxy    dyz    dz2    dxz  x2-y2    tot
    1  0.000  0.000  0.000  0.000  0.485  0.000  0.000  0.485  0.000  0.970
 
band     3 # energy    3.44278823 # occ.  1.00000000
 
ion      s     py     pz     px    dxy    dyz    dz2    dxz  x2-y2    tot
    1  0.007  0.011  0.011  0.000  0.000  0.801  0.031  0.000  0.092  0.954
 
band     4 # energy    4.30781211 # occ.  1.00000000
 
ion      s     py     pz     px    dxy    dyz    dz2    dxz  x2-y2    tot
    1  0.000  0.000  0.000  0.007  0.485  0.000  0.000  0.485  0.000  0.977
 
band     5 # energy    4.56484779 # occ.  1.00000000
 
ion      s     py     pz     px    dxy    dyz    dz2    dxz  x2-y2    tot
    1  0.001  0.000  0.000  0.000  0.000  0.138  0.207  0.000  0.622  0.968
 
band     6 # energy    4.79627457 # occ.  1.00000000
 
ion      s     py     pz     px    dxy    dyz    dz2    dxz  x2-y2    tot
    1  0.000  0.000  0.000  0.000  0.000  0.000  0.729  0.000  0.243  0.973
 
band     7 # energy   24.50176128 # occ.  0.00000000
 
ion      s     py     pz     px    dxy    dyz    dz2    dxz  x2-y2    tot
    1  0.034  0.096  0.096  0.000  0.000  0.307  0.047  0.000  0.142  0.724
 
band     8 # energy   28.42878130 # occ.  0.00000000
 
ion      s     py     pz     px    dxy    dyz    dz2    dxz  x2-y2    tot
    1  0.000  0.070  0.070  0.000  0.000  0.000  0.133  0.000  0.044  0.319
 
band     9 # energy   30.16870838 # occ.  0.00000000
 
ion      s     py     pz     px    dxy    dyz    dz2    dxz  x2-y2    tot
    1  0.000  0.000  0.000  0.000  0.323  0.000  0.000  0.323  0.000  0.647
 
band    10 # energy   31.85364369 # occ.  0.00000000
 
ion      s     py     pz     px    dxy    dyz    dz2    dxz  x2-y2    tot
    1  0.000  0.000  0.000  0.548  0.257  0.000  0.000  0.257  0.000  1.062
 
band    11 # energy   33.90895995 # occ.  0.00000000
 
ion      s     py     pz     px    dxy    dyz    dz2    dxz  x2-y2    tot
    1  0.098  0.150  0.150  0.000  0.000  0.115  0.074  0.000  0.222  0.809
 
band    12 # energy   35.67613154 # occ.  0.00000000
 
ion      s     py     pz     px    dxy    dyz    dz2    dxz  x2-y2    tot
    1  0.000  0.139  0.139  0.000  0.000  0.000  0.002  0.000  0.001  0.280
 

 k-point     6 :    0.23809524 0.00000000 0.00000000     weight = 0.00129576

band     1 # energy   -0.50327773 # occ.  1.00000000
 
ion      s     py     pz     px    dxy    dyz    dz2    dxz  x2-y2    tot
    1  0.553  0.062  0.062  0.000  0.000  0.054  0.005  0.000  0.014  0.749
 
band     2 # energy    3.02771901 # occ.  1.00000000
 
ion      s     py     pz     px    dxy    dyz    dz2    dxz  x2-y2    tot
    1  0.000  0.000  0.000  0.000  0.483  0.000  0.000  0.483  0.000  0.967
 
band     3 # energy    3.40329952 # occ.  1.00000000
 
ion      s     py     pz     px    dxy    dyz    dz2    dxz  x2-y2    tot
    1  0.022  0.027  0.027  0.000  0.000  0.647  0.052  0.000  0.156  0.931
 
band     4 # energy    4.58732310 # occ.  1.00000000
 
ion      s     py     pz     px    dxy    dyz    dz2    dxz  x2-y2    tot
    1  0.001  0.001  0.001  0.000  0.000  0.244  0.182  0.000  0.545  0.972
 
band     5 # energy    4.68020936 # occ.  1.00000000
 
ion      s     py     pz     px    dxy    dyz    dz2    dxz  x2-y2    tot
    1  0.000  0.000  0.000  0.009  0.484  0.000  0.000  0.484  0.000  0.977
 
band     6 # energy    4.82025870 # occ.  1.00000000
 
ion      s     py     pz     px    dxy    dyz    dz2    dxz  x2-y2    tot
    1  0.000  0.000  0.000  0.000  0.000  0.000  0.731  0.000  0.244  0.974
 
band     7 # energy   22.25431094 # occ.  0.00000000
 
ion      s     py     pz     px    dxy    dyz    dz2    dxz  x2-y2    tot
    1  0.068  0.120  0.120  0.000  0.000  0.317  0.040  0.000  0.120  0.786
 
band     8 # energy   27.37701282 # occ.  0.00000000
 
ion      s     py     pz     px    dxy    dyz    dz2    dxz  x2-y2    tot
    1  0.000  0.094  0.094  0.000  0.000  0.000  0.106  0.000  0.035  0.329
 
band     9 # energy   29.94524678 # occ.  0.00000000
 
ion      s     py     pz     px    dxy    dyz    dz2    dxz  x2-y2    tot
    1  0.000  0.000  0.000  0.000  0.409  0.000  0.000  0.409  0.000  0.817
 
band    10 # energy   30.41265276 # occ.  0.00000000
 
ion      s     py     pz     px    dxy    dyz    dz2    dxz  x2-y2    tot
    1  0.000  0.000  0.000  0.596  0.196  0.000  0.000  0.196  0.000  0.987
 
band    11 # energy   33.49400575 # occ.  0.00000000
 
ion      s     py     pz     px    dxy    dyz    dz2    dxz  x2-y2    tot
    1  0.128  0.113  0.113  0.000  0.000  0.044  0.105  0.000  0.316  0.819
 
band    12 # energy   36.59071899 # occ.  0.00000000
 
ion      s     py     pz     px    dxy    dyz    dz2    dxz  x2-y2    tot
    1  0.000  0.131  0.131  0.000  0.000  0.000  0.009  0.000  0.003  0.275
 

 k-point     7 :    0.28571429 0.00000000 0.00000000     weight = 0.00129576

band     1 # energy    0.15006076 # occ.  1.00000000
 
ion      s     py     pz     px    dxy    dyz    dz2    dxz  x2-y2    tot
    1  0.452  0.064  0.064  0.000  0.000  0.138  0.013  0.000  0.040  0.772
 
band     2 # energy    2.86742909 # occ.  1.00000000
 
ion      s     py     pz     px    dxy    dyz    dz2    dxz  x2-y2    tot
    1  0.000  0.000  0.000  0.000  0.482  0.000  0.000  0.482  0.000  0.964
 
band     3 # energy    3.50127467 # occ.  1.00000000
 
ion      s     py     pz     px    dxy    dyz    dz2    dxz  x2-y2    tot
    1  0.058  0.060  0.060  0.000  0.000  0.451  0.066  0.000  0.199  0.895
 
band     4 # energy    4.65373241 # occ.  1.00000000
 
ion      s     py     pz     px    dxy    dyz    dz2    dxz  x2-y2    tot
    1  0.000  0.003  0.003  0.000  0.000  0.341  0.157  0.000  0.472  0.976
 
band     5 # energy    4.84930826 # occ.  1.00000000
 
ion      s     py     pz     px    dxy    dyz    dz2    dxz  x2-y2    tot
    1  0.000  0.000  0.000  0.000  0.000  0.000  0.732  0.000  0.244  0.976
 
band     6 # energy    5.08086435 # occ.  1.00000038
 
ion      s     py     pz     px    dxy    dyz    dz2    dxz  x2-y2    tot
    1  0.000  0.000  0.000  0.010  0.485  0.000  0.000  0.485  0.000  0.979
 
band     7 # energy   20.03681269 # occ.  0.00000000
 
ion      s     py     pz     px    dxy    dyz    dz2    dxz  x2-y2    tot
    1  0.115  0.130  0.130  0.000  0.000  0.314  0.033  0.000  0.100  0.822
 
band     8 # energy   26.40902508 # occ.  0.00000000
 
ion      s     py     pz     px    dxy    dyz    dz2    dxz  x2-y2    tot
    1  0.000  0.111  0.111  0.000  0.000  0.000  0.075  0.000  0.025  0.321
 
band     9 # energy   29.11543489 # occ.  0.00000000
 
ion      s     py     pz     px    dxy    dyz    dz2    dxz  x2-y2    tot
    1  0.000  0.000  0.000  0.640  0.139  0.000  0.000  0.139  0.000  0.918
 
band    10 # energy   29.75609193 # occ.  0.00000000
 
ion      s     py     pz     px    dxy    dyz    dz2    dxz  x2-y2    tot
    1  0.000  0.000  0.000  0.000  0.478  0.000  0.000  0.478  0.000  0.956
 
band    11 # energy   33.25835026 # occ.  0.00000000
 
ion      s     py     pz     px    dxy    dyz    dz2    dxz  x2-y2    tot
    1  0.156  0.080  0.080  0.000  0.000  0.009  0.132  0.000  0.397  0.853
 
band    12 # energy   37.77697462 # occ.  0.00000000
 
ion      s     py     pz     px    dxy    dyz    dz2    dxz  x2-y2    tot
    1  0.000  0.124  0.124  0.000  0.000  0.000  0.046  0.000  0.015  0.310
 

 k-point     8 :    0.33333333 0.00000000 0.00000000     weight = 0.00129576

band     1 # energy    0.62426161 # occ.  1.00000000
 
ion      s     py     pz     px    dxy    dyz    dz2    dxz  x2-y2    tot
    1  0.325  0.046  0.046  0.000  0.000  0.271  0.031  0.000  0.092  0.812
 
band     2 # energy    2.72079624 # occ.  1.00000000
 
ion      s     py     pz     px    dxy    dyz    dz2    dxz  x2-y2    tot
    1  0.000  0.000  0.000  0.000  0.481  0.000  0.000  0.481  0.000  0.961
 
band     3 # energy    3.88595438 # occ.  1.00000000
 
ion      s     py     pz     px    dxy    dyz    dz2    dxz  x2-y2    tot
    1  0.108  0.114  0.114  0.000  0.000  0.206  0.076  0.000  0.227  0.845
 
band     4 # energy    4.75199845 # occ.  1.00000000
 
ion      s     py     pz     px    dxy    dyz    dz2    dxz  x2-y2    tot
    1  0.000  0.011  0.011  0.000  0.000  0.433  0.129  0.000  0.388  0.974
 
band     5 # energy    4.88066387 # occ.  1.00000000
 
ion      s     py     pz     px    dxy    dyz    dz2    dxz  x2-y2    tot
    1  0.000  0.000  0.000  0.000  0.000  0.000  0.734  0.000  0.245  0.979
 
band     6 # energy    5.47565145 # occ.  1.01180957
 
ion      s     py     pz     px    dxy    dyz    dz2    dxz  x2-y2    tot
    1  0.000  0.000  0.000  0.008  0.487  0.000  0.000  0.487  0.000  0.982
 
band     7 # energy   17.91946381 # occ.  0.00000000
 
ion      s     py     pz     px    dxy    dyz    dz2    dxz  x2-y2    tot
    1  0.175  0.123  0.123  0.000  0.000  0.312  0.028  0.000  0.085  0.846
 
band     8 # energy   25.58346546 # occ.  0.00000000
 
ion      s     py     pz     px    dxy    dyz    dz2    dxz  x2-y2    tot
    1  0.000  0.123  0.123  0.000  0.000  0.000  0.047  0.000  0.016  0.308
 
band     9 # energy   27.99959122 # occ.  0.00000000
 
ion      s     py     pz     px    dxy    dyz    dz2    dxz  x2-y2    tot
    1  0.000  0.000  0.000  0.680  0.089  0.000  0.000  0.089  0.000  0.858
 
band    10 # energy   29.60586288 # occ.  0.00000000
 
ion      s     py     pz     px    dxy    dyz    dz2    dxz  x2-y2    tot
    1  0.000  0.000  0.000  0.000  0.532  0.000  0.000  0.532  0.000  1.063
 
band    11 # energy   33.15430123 # occ.  0.00000000
 
ion      s     py     pz     px    dxy    dyz    dz2    dxz  x2-y2    tot
    1  0.183  0.051  0.051  0.000  0.000  0.000  0.154  0.000  0.462  0.901
 
band    12 # energy   39.18007685 # occ.  0.00000000
 
ion      s     py     pz     px    dxy    dyz    dz2    dxz  x2-y2    tot
    1  0.000  0.118  0.118  0.000  0.000  0.000  0.105  0.000  0.035  0.375
 

 k-point     9 :    0.38095238 0.00000000 0.00000000     weight = 0.00129576

band     1 # energy    0.84894905 # occ.  1.00000000
 
ion      s     py     pz     px    dxy    dyz    dz2    dxz  x2-y2    tot
    1  0.220  0.022  0.022  0.000  0.000  0.384  0.050  0.000  0.151  0.849
 
band     2 # energy    2.59978959 # occ.  1.00000000
 
ion      s     py     pz     px    dxy    dyz    dz2    dxz  x2-y2    tot
    1  0.000  0.000  0.000  0.000  0.480  0.000  0.000  0.480  0.000  0.960
 
band     3 # energy    4.50284839 # occ.  1.00000000
 
ion      s     py     pz     px    dxy    dyz    dz2    dxz  x2-y2    tot
    1  0.100  0.108  0.108  0.000  0.000  0.001  0.136  0.000  0.408  0.860
 
band     4 # energy    4.91021204 # occ.  1.00000000
 
ion      s     py     pz     px    dxy    dyz    dz2    dxz  x2-y2    tot
    1  0.000  0.000  0.000  0.000  0.000  0.000  0.736  0.000  0.245  0.981
 
band     5 # energy    4.95572516 # occ.  1.00000000
 
ion      s     py     pz     px    dxy    dyz    dz2    dxz  x2-y2    tot
    1  0.026  0.096  0.096  0.000  0.000  0.495  0.049  0.000  0.146  0.908
 
band     6 # energy    5.82509900 # occ.  0.60496303
 
ion      s     py     pz     px    dxy    dyz    dz2    dxz  x2-y2    tot
    1  0.000  0.000  0.000  0.005  0.490  0.000  0.000  0.490  0.000  0.986
 
band     7 # energy   15.98448471 # occ.  0.00000000
 
ion      s     py     pz     px    dxy    dyz    dz2    dxz  x2-y2    tot
    1  0.250  0.098  0.098  0.000  0.000  0.320  0.025  0.000  0.076  0.868
 
band     8 # energy   24.93652672 # occ.  0.00000000
 
ion      s     py     pz     px    dxy    dyz    dz2    dxz  x2-y2    tot
    1  0.000  0.131  0.131  0.000  0.000  0.000  0.024  0.000  0.008  0.294
 
band     9 # energy   27.10713850 # occ.  0.00000000
 
ion      s     py     pz     px    dxy    dyz    dz2    dxz  x2-y2    tot
    1  0.000  0.000  0.000  0.713  0.047  0.000  0.000  0.047  0.000  0.808
 
band    10 # energy   29.49492955 # occ.  0.00000000
 
ion      s     py     pz     px    dxy    dyz    dz2    dxz  x2-y2    tot
    1  0.000  0.000  0.000  0.000  0.570  0.000  0.000  0.570  0.000  1.141
 
band    11 # energy   33.13545677 # occ.  0.00000000
 
ion      s     py     pz     px    dxy    dyz    dz2    dxz  x2-y2    tot
    1  0.207  0.028  0.028  0.000  0.000  0.006  0.171  0.000  0.513  0.952
 
band    12 # energy   40.51653933 # occ.  0.00000000
 
ion      s     py     pz     px    dxy    dyz    dz2    dxz  x2-y2    tot
    1  0.042  0.011  0.016  0.000  0.000  0.270  0.001  0.000  0.000  0.340
 

 k-point    10 :    0.42857143 0.00000000 0.00000000     weight = 0.00129576

band     1 # energy    0.91235683 # occ.  1.00000000
 
ion      s     py     pz     px    dxy    dyz    dz2    dxz  x2-y2    tot
    1  0.161  0.007  0.007  0.000  0.000  0.441  0.063  0.000  0.190  0.870
 
band     2 # energy    2.51367028 # occ.  1.00000000
 
ion      s     py     pz     px    dxy    dyz    dz2    dxz  x2-y2    tot
    1  0.000  0.000  0.000  0.000  0.479  0.000  0.000  0.479  0.000  0.959
 
band     3 # energy    4.76490672 # occ.  1.00000000
 
ion      s     py     pz     px    dxy    dyz    dz2    dxz  x2-y2    tot
    1  0.026  0.010  0.010  0.000  0.000  0.241  0.170  0.000  0.510  0.967
 
band     4 # energy    4.93336780 # occ.  1.00000000
 
ion      s     py     pz     px    dxy    dyz    dz2    dxz  x2-y2    tot
    1  0.000  0.000  0.000  0.000  0.000  0.000  0.737  0.000  0.246  0.983
 
band     5 # energy    5.64039859 # occ.  1.02946416
 
ion      s     py     pz     px    dxy    dyz    dz2    dxz  x2-y2    tot
    1  0.060  0.272  0.272  0.000  0.000  0.155  0.000  0.000  0.000  0.760
 
band     6 # energy    6.08838415 # occ. -0.03527769
 
ion      s     py     pz     px    dxy    dyz    dz2    dxz  x2-y2    tot
    1  0.000  0.000  0.000  0.002  0.494  0.000  0.000  0.494  0.000  0.990
 
band     7 # energy   14.37335929 # occ.  0.00000000
 
ion      s     py     pz     px    dxy    dyz    dz2    dxz  x2-y2    tot
    1  0.339  0.055  0.055  0.000  0.000  0.346  0.024  0.000  0.072  0.892
 
band     8 # energy   24.49230764 # occ.  0.00000000
 
ion      s     py     pz     px    dxy    dyz    dz2    dxz  x2-y2    tot
    1  0.000  0.136  0.136  0.000  0.000  0.000  0.009  0.000  0.003  0.284
 
band     9 # energy   26.48080464 # occ.  0.00000000
 
ion      s     py     pz     px    dxy    dyz    dz2    dxz  x2-y2    tot
    1  0.000  0.000  0.000  0.737  0.018  0.000  0.000  0.018  0.000  0.772
 
band    10 # energy   29.42212755 # occ.  0.00000000
 
ion      s     py     pz     px    dxy    dyz    dz2    dxz  x2-y2    tot
    1  0.000  0.000  0.000  0.000  0.596  0.000  0.000  0.596  0.000  1.192
 
band    11 # energy   33.15672417 # occ.  0.00000000
 
ion      s     py     pz     px    dxy    dyz    dz2    dxz  x2-y2    tot
    1  0.226  0.010  0.010  0.000  0.000  0.019  0.183  0.000  0.548  0.996
 
band    12 # energy   40.46132185 # occ.  0.00000000
 
ion      s     py     pz     px    dxy    dyz    dz2    dxz  x2-y2    tot
    1  0.018  0.026  0.026  0.000  0.000  0.106  0.000  0.000  0.000  0.176
 

 k-point    11 :    0.47619048 0.00000000 0.00000000     weight = 0.00129576

band     1 # energy    0.91930194 # occ.  1.00000000
 
ion      s     py     pz     px    dxy    dyz    dz2    dxz  x2-y2    tot
    1  0.138  0.001  0.001  0.000  0.000  0.462  0.069  0.000  0.208  0.879
 
band     2 # energy    2.46904945 # occ.  1.00000000
 
ion      s     py     pz     px    dxy    dyz    dz2    dxz  x2-y2    tot
    1  0.000  0.000  0.000  0.000  0.479  0.000  0.000  0.479  0.000  0.958
 
band     3 # energy    4.82245557 # occ.  1.00000000
 
ion      s     py     pz     px    dxy    dyz    dz2    dxz  x2-y2    tot
    1  0.015  0.001  0.001  0.000  0.000  0.314  0.162  0.000  0.487  0.980
 
band     4 # energy    4.94615095 # occ.  1.00000000
 
ion      s     py     pz     px    dxy    dyz    dz2    dxz  x2-y2    tot
    1  0.000  0.000  0.000  0.000  0.000  0.000  0.738  0.000  0.246  0.984
 
band     5 # energy    6.23041746 # occ. -0.01084677
 
ion      s     py     pz     px    dxy    dyz    dz2    dxz  x2-y2    tot
    1  0.000  0.000  0.000  0.000  0.496  0.000  0.000  0.496  0.000  0.993
 
band     6 # energy    6.27413917 # occ. -0.00532101
 
ion      s     py     pz     px    dxy    dyz    dz2    dxz  x2-y2    tot
    1  0.011  0.344  0.344  0.000  0.000  0.017  0.000  0.000  0.000  0.716
 
band     7 # energy   13.37257178 # occ.  0.00000000
 
ion      s     py     pz     px    dxy    dyz    dz2    dxz  x2-y2    tot
    1  0.418  0.009  0.009  0.000  0.000  0.382  0.024  0.000  0.073  0.915
 
band     8 # energy   24.26633609 # occ.  0.00000000
 
ion      s     py     pz     px    dxy    dyz    dz2    dxz  x2-y2    tot
    1  0.000  0.139  0.139  0.000  0.000  0.000  0.001  0.000  0.000  0.279
 
band     9 # energy   26.15697684 # occ.  0.00000000
 
ion      s     py     pz     px    dxy    dyz    dz2    dxz  x2-y2    tot
    1  0.000  0.000  0.000  0.750  0.002  0.000  0.000  0.002  0.000  0.754
 
band    10 # energy   29.38612909 # occ.  0.00000000
 
ion      s     py     pz     px    dxy    dyz    dz2    dxz  x2-y2    tot
    1  0.000  0.000  0.000  0.000  0.608  0.000  0.000  0.608  0.000  1.216
 
band    11 # energy   33.17914252 # occ.  0.00000000
 
ion      s     py     pz     px    dxy    dyz    dz2    dxz  x2-y2    tot
    1  0.236  0.001  0.001  0.000  0.000  0.029  0.189  0.000  0.566  1.023
 
band    12 # energy   40.41203083 # occ.  0.00000000
 
ion      s     py     pz     px    dxy    dyz    dz2    dxz  x2-y2    tot
    1  0.002  0.034  0.034  0.000  0.000  0.012  0.000  0.000  0.000  0.082
 

 k-point    12 :    0.04761905 0.04761905 0.00000000     weight = 0.00259151

band     1 # energy   -2.31397729 # occ.  1.00000000
 
ion      s     py     pz     px    dxy    dyz    dz2    dxz  x2-y2    tot
    1  0.713  0.003  0.013  0.003  0.000  0.000  0.000  0.000  0.000  0.734
 
band     2 # energy    3.49033217 # occ.  1.00000000
 
ion      s     py     pz     px    dxy    dyz    dz2    dxz  x2-y2    tot
    1  0.000  0.000  0.000  0.000  0.486  0.244  0.001  0.244  0.000  0.977
 
band     3 # energy    3.51805073 # occ.  1.00000000
 
ion      s     py     pz     px    dxy    dyz    dz2    dxz  x2-y2    tot
    1  0.000  0.001  0.000  0.001  0.000  0.486  0.000  0.486  0.004  0.976
 
band     4 # energy    3.70769657 # occ.  1.00000000
 
ion      s     py     pz     px    dxy    dyz    dz2    dxz  x2-y2    tot
    1  0.000  0.001  0.000  0.001  0.490  0.243  0.000  0.243  0.000  0.978
 
band     5 # energy    4.68248868 # occ.  1.00000000
 
ion      s     py     pz     px    dxy    dyz    dz2    dxz  x2-y2    tot
    1  0.000  0.000  0.000  0.000  0.000  0.002  0.000  0.002  0.964  0.968
 
band     6 # energy    4.76683067 # occ.  1.00000000
 
ion      s     py     pz     px    dxy    dyz    dz2    dxz  x2-y2    tot
    1  0.000  0.000  0.000  0.000  0.001  0.001  0.969  0.001  0.000  0.971
 
band     7 # energy   29.31614759 # occ.  0.00000000
 
ion      s     py     pz     px    dxy    dyz    dz2    dxz  x2-y2    tot
    1  0.000  0.012  0.000  0.012  0.000  0.057  0.000  0.057  0.183  0.322
 
band     8 # energy   30.01957523 # occ.  0.00000000
 
ion      s     py     pz     px    dxy    dyz    dz2    dxz  x2-y2    tot