<?xml version="1.0" encoding="ISO-8859-1"?>
<modeling>
 <generator>
  <i name="program" type="string">vasp </i>
  <i name="version" type="string">6.2.0  </i>
  <i name="subversion" type="string">18Jan21 (build Aug 12 2022 13:00:08) complex                          parallel </i>
  <i name="platform" type="string">LinuxIFC </i>
  <i name="date" type="string">2024 11 04 </i>
  <i name="time" type="string">21:16:38 </i>
 </generator>
 <incar>
  <i type="int" name="ISTART">     0</i>
  <i type="string" name="PREC">Accurate      (Accurate strictly avoids</i>
  <i type="logical" name="ADDGRID"> T  </i>
  <i type="int" name="ISPIN">     2</i>
  <i type="int" name="NELM">    90</i>
  <i type="int" name="NELMIN">     6</i>
  <i type="int" name="IBRION">    -1</i>
  <i name="EDIFF">      0.00000100</i>
  <i name="EDIFFG">     -0.00200000</i>
  <i type="int" name="NSW">     0</i>
  <i type="int" name="ISIF">     3</i>
  <i type="int" name="ISYM">     2</i>
  <i name="ENCUT">    450.00000000</i>
  <v name="MAGMOM">      5.00000000</v>
  <i type="logical" name="LREAL"> F  </i>
  <i type="int" name="ISMEAR">     1</i>
  <i name="SIGMA">      0.20000000</i>
  <i type="int" name="LMAXMIX">     4</i>
  <i type="logical" name="LWAVE"> T  </i>
  <i type="logical" name="LCHARG"> T  </i>
  <i type="int" name="LORBIT">    11</i>
  <i type="logical" name="LASPH"> T  </i>
  <i type="logical" name="GGA_COMPAT"> F  </i>
  <i type="int" name="VOSKOWN">     1</i>
 </incar>
 <primitive_cell>
  <structure name="primitive_cell" >
   <crystal>
    <varray name="basis" >
     <v>      -1.41500639       1.41500639       1.41500639 </v>
     <v>       1.41500639      -1.41500639       1.41500639 </v>
     <v>       1.41500639       1.41500639      -1.41500639 </v>
    </varray>
    <i name="volume">     11.33274695 </i>
    <varray name="rec_basis" >
     <v>       0.00000000       0.35335530       0.35335530 </v>
     <v>       0.35335530       0.00000000       0.35335530 </v>
     <v>       0.35335530       0.35335530       0.00000000 </v>
    </varray>
   </crystal>
   <varray name="positions" >
    <v>       0.00000000       0.00000000       0.00000000 </v>
   </varray>
  </structure>
  <varray name="primitive_index" >
   <v type="int" >        1 </v>
  </varray>
 </primitive_cell>
 <kpoints>
  <generation param="Monkhorst-Pack">
   <v type="int" name="divisions">      21       21       21 </v>
   <v name="usershift">      0.00000000       0.00000000       0.00000000 </v>
   <v name="genvec1">      0.04761905       0.00000000       0.00000000 </v>
   <v name="genvec2">      0.00000000       0.04761905       0.00000000 </v>
   <v name="genvec3">      0.00000000       0.00000000       0.04761905 </v>
   <v name="shift">      0.00000000       0.00000000       0.00000000 </v>
  </generation>
  <varray name="kpointlist" >
   <v>       0.00000000       0.00000000       0.00000000 </v>
   <v>       0.04761905       0.00000000       0.00000000 </v>
   <v>       0.09523810       0.00000000       0.00000000 </v>
   <v>       0.14285714       0.00000000       0.00000000 </v>
   <v>       0.19047619       0.00000000       0.00000000 </v>
   <v>       0.23809524       0.00000000       0.00000000 </v>
   <v>       0.28571429       0.00000000       0.00000000 </v>
   <v>       0.33333333       0.00000000       0.00000000 </v>
   <v>       0.38095238       0.00000000       0.00000000 </v>
   <v>       0.42857143       0.00000000       0.00000000 </v>
   <v>       0.47619048       0.00000000       0.00000000 </v>
   <v>       0.04761905       0.04761905       0.00000000 </v>
   <v>       0.09523810       0.04761905      -0.00000000 </v>
   <v>       0.14285714       0.04761905      -0.00000000 </v>
   <v>       0.19047619       0.04761905       0.00000000 </v>
   <v>       0.23809524       0.04761905       0.00000000 </v>
   <v>       0.28571429       0.04761905       0.00000000 </v>
   <v>       0.33333333       0.04761905       0.00000000 </v>
   <v>       0.38095238       0.04761905       0.00000000 </v>
   <v>       0.42857143       0.04761905      -0.00000000 </v>
   <v>       0.47619048       0.04761905       0.00000000 </v>
   <v>       0.09523810       0.09523810       0.00000000 </v>
   <v>       0.14285714       0.09523810       0.00000000 </v>
   <v>       0.19047619       0.09523810       0.00000000 </v>
   <v>       0.23809524       0.09523810       0.00000000 </v>
   <v>       0.28571429       0.09523810      -0.00000000 </v>
   <v>       0.33333333       0.09523810       0.00000000 </v>
   <v>       0.38095238       0.09523810       0.00000000 </v>
   <v>       0.42857143       0.09523810       0.00000000 </v>
   <v>       0.14285714       0.14285714       0.00000000 </v>
   <v>       0.19047619       0.14285714       0.00000000 </v>
   <v>       0.23809524       0.14285714       0.00000000 </v>
   <v>       0.28571429       0.14285714       0.00000000 </v>
   <v>       0.33333333       0.14285714       0.00000000 </v>
   <v>       0.38095238       0.14285714       0.00000000 </v>
   <v>       0.42857143       0.14285714       0.00000000 </v>
   <v>       0.19047619       0.19047619       0.00000000 </v>
   <v>       0.23809524       0.19047619       0.00000000 </v>
   <v>       0.28571429       0.19047619      -0.00000000 </v>
   <v>       0.33333333       0.19047619       0.00000000 </v>
   <v>       0.38095238       0.19047619       0.00000000 </v>
   <v>       0.23809524       0.23809524       0.00000000 </v>
   <v>       0.28571429       0.23809524       0.00000000 </v>
   <v>       0.33333333       0.23809524       0.00000000 </v>
   <v>       0.38095238       0.23809524      -0.00000000 </v>
   <v>       0.28571429       0.28571429       0.00000000 </v>
   <v>       0.33333333       0.28571429       0.00000000 </v>
   <v>       0.33333333       0.33333333       0.00000000 </v>
   <v>       0.04761905       0.04761905       0.04761905 </v>
   <v>       0.09523810       0.04761905       0.04761905 </v>
   <v>       0.14285714       0.04761905       0.04761905 </v>
   <v>       0.19047619       0.04761905       0.04761905 </v>
   <v>       0.23809524       0.04761905       0.04761905 </v>
   <v>       0.28571429       0.04761905       0.04761905 </v>
   <v>       0.33333333       0.04761905       0.04761905 </v>
   <v>       0.38095238       0.04761905       0.04761905 </v>
   <v>       0.42857143       0.04761905       0.04761905 </v>
   <v>      -0.04761905       0.04761905       0.04761905 </v>
   <v>       0.09523810       0.09523810       0.04761905 </v>
   <v>       0.14285714       0.09523810       0.04761905 </v>
   <v>       0.19047619       0.09523810       0.04761905 </v>
   <v>       0.23809524       0.09523810       0.04761905 </v>
   <v>       0.28571429       0.09523810       0.04761905 </v>
   <v>       0.33333333       0.09523810       0.04761905 </v>
   <v>       0.38095238       0.09523810       0.04761905 </v>
   <v>       0.42857143       0.09523810       0.04761905 </v>
   <v>      -0.09523810       0.09523810       0.04761905 </v>
   <v>       0.14285714       0.14285714       0.04761905 </v>
   <v>       0.19047619       0.14285714       0.04761905 </v>
   <v>       0.23809524       0.14285714       0.04761905 </v>
   <v>       0.28571429       0.14285714       0.04761905 </v>
   <v>       0.33333333       0.14285714       0.04761905 </v>
   <v>       0.38095238       0.14285714       0.04761905 </v>
   <v>      -0.14285714       0.14285714       0.04761905 </v>
   <v>      -0.09523810       0.14285714       0.04761905 </v>
   <v>       0.19047619       0.19047619       0.04761905 </v>
   <v>       0.23809524       0.19047619       0.04761905 </v>
   <v>       0.28571429       0.19047619       0.04761905 </v>
   <v>       0.33333333       0.19047619       0.04761905 </v>
   <v>       0.38095238       0.19047619       0.04761905 </v>
   <v>      -0.19047619       0.19047619       0.04761905 </v>
   <v>      -0.14285714       0.19047619       0.04761905 </v>
   <v>       0.23809524       0.23809524       0.04761905 </v>
   <v>       0.28571429       0.23809524       0.04761905 </v>
   <v>       0.33333333       0.23809524       0.04761905 </v>
   <v>      -0.23809524       0.23809524       0.04761905 </v>
   <v>      -0.19047619       0.23809524       0.04761905 </v>
   <v>      -0.14285714       0.23809524       0.04761905 </v>
   <v>       0.28571429       0.28571429       0.04761905 </v>
   <v>       0.33333333       0.28571429       0.04761905 </v>
   <v>      -0.28571429       0.28571429       0.04761905 </v>
   <v>      -0.23809524       0.28571429       0.04761905 </v>
   <v>      -0.19047619       0.28571429       0.04761905 </v>
   <v>      -0.33333333       0.33333333       0.04761905 </v>
   <v>      -0.28571429       0.33333333       0.04761905 </v>
   <v>      -0.23809524       0.33333333       0.04761905 </v>
   <v>      -0.19047619       0.33333333       0.04761905 </v>
   <v>      -0.38095238       0.38095238       0.04761905 </v>
   <v>      -0.33333333       0.38095238       0.04761905 </v>
   <v>      -0.28571429       0.38095238       0.04761905 </v>
   <v>      -0.23809524       0.38095238       0.04761905 </v>
   <v>      -0.42857143       0.42857143       0.04761905 </v>
   <v>      -0.38095238       0.42857143       0.04761905 </v>
   <v>      -0.33333333       0.42857143       0.04761905 </v>
   <v>      -0.28571429       0.42857143       0.04761905 </v>
   <v>      -0.23809524       0.42857143       0.04761905 </v>
   <v>      -0.47619048       0.47619048       0.04761905 </v>
   <v>      -0.42857143       0.47619048       0.04761905 </v>
   <v>      -0.38095238       0.47619048       0.04761905 </v>
   <v>      -0.33333333       0.47619048       0.04761905 </v>
   <v>      -0.28571429       0.47619048       0.04761905 </v>
   <v>      -0.47619048      -0.47619048       0.04761905 </v>
   <v>      -0.42857143      -0.47619048       0.04761905 </v>
   <v>      -0.38095238      -0.47619048       0.04761905 </v>
   <v>      -0.33333333      -0.47619048       0.04761905 </v>
   <v>      -0.28571429      -0.47619048       0.04761905 </v>
   <v>      -0.42857143      -0.42857143       0.04761905 </v>
   <v>      -0.38095238      -0.42857143       0.04761905 </v>
   <v>      -0.33333333      -0.42857143       0.04761905 </v>
   <v>      -0.38095238      -0.38095238       0.04761905 </v>
   <v>      -0.33333333      -0.38095238       0.04761905 </v>
   <v>       0.09523810       0.09523810       0.09523810 </v>
   <v>       0.14285714       0.09523810       0.09523810 </v>
   <v>       0.19047619       0.09523810       0.09523810 </v>
   <v>       0.23809524       0.09523810       0.09523810 </v>
   <v>       0.28571429       0.09523810       0.09523810 </v>
   <v>       0.33333333       0.09523810       0.09523810 </v>
   <v>       0.38095238       0.09523810       0.09523810 </v>
   <v>      -0.09523810       0.09523810       0.09523810 </v>
   <v>       0.14285714       0.14285714       0.09523810 </v>
   <v>       0.19047619       0.14285714       0.09523810 </v>
   <v>       0.23809524       0.14285714       0.09523810 </v>
   <v>       0.28571429       0.14285714       0.09523810 </v>
   <v>       0.33333333       0.14285714       0.09523810 </v>
   <v>       0.38095238       0.14285714       0.09523810 </v>
   <v>      -0.14285714       0.14285714       0.09523810 </v>
   <v>       0.19047619       0.19047619       0.09523810 </v>
   <v>       0.23809524       0.19047619       0.09523810 </v>
   <v>       0.28571429       0.19047619       0.09523810 </v>
   <v>       0.33333333       0.19047619       0.09523810 </v>
   <v>      -0.19047619       0.19047619       0.09523810 </v>
   <v>      -0.14285714       0.19047619       0.09523810 </v>
   <v>       0.23809524       0.23809524       0.09523810 </v>
   <v>       0.28571429       0.23809524       0.09523810 </v>
   <v>       0.33333333       0.23809524       0.09523810 </v>
   <v>      -0.23809524       0.23809524       0.09523810 </v>
   <v>      -0.19047619       0.23809524       0.09523810 </v>
   <v>       0.28571429       0.28571429       0.09523810 </v>
   <v>      -0.28571429       0.28571429       0.09523810 </v>
   <v>      -0.23809524       0.28571429       0.09523810 </v>
   <v>      -0.19047619       0.28571429       0.09523810 </v>
   <v>      -0.33333333       0.33333333       0.09523810 </v>
   <v>      -0.28571429       0.33333333       0.09523810 </v>
   <v>      -0.23809524       0.33333333       0.09523810 </v>
   <v>      -0.38095238       0.38095238       0.09523810 </v>
   <v>      -0.33333333       0.38095238       0.09523810 </v>
   <v>      -0.28571429       0.38095238       0.09523810 </v>
   <v>      -0.23809524       0.38095238       0.09523810 </v>
   <v>      -0.42857143       0.42857143       0.09523810 </v>
   <v>      -0.38095238       0.42857143       0.09523810 </v>
   <v>      -0.33333333       0.42857143       0.09523810 </v>
   <v>      -0.28571429       0.42857143       0.09523810 </v>
   <v>      -0.47619048       0.47619048       0.09523810 </v>
   <v>      -0.42857143       0.47619048       0.09523810 </v>
   <v>      -0.38095238       0.47619048       0.09523810 </v>
   <v>      -0.33333333       0.47619048       0.09523810 </v>
   <v>      -0.28571429       0.47619048       0.09523810 </v>
   <v>      -0.47619048      -0.47619048       0.09523810 </v>
   <v>      -0.42857143      -0.47619048       0.09523810 </v>
   <v>      -0.38095238      -0.47619048       0.09523810 </v>
   <v>      -0.33333333      -0.47619048       0.09523810 </v>
   <v>      -0.42857143      -0.42857143       0.09523810 </v>
   <v>      -0.38095238      -0.42857143       0.09523810 </v>
   <v>      -0.33333333      -0.42857143       0.09523810 </v>
   <v>      -0.38095238      -0.38095238       0.09523810 </v>
   <v>       0.14285714       0.14285714       0.14285714 </v>
   <v>       0.19047619       0.14285714       0.14285714 </v>
   <v>       0.23809524       0.14285714       0.14285714 </v>
   <v>       0.28571429       0.14285714       0.14285714 </v>
   <v>       0.33333333       0.14285714       0.14285714 </v>
   <v>      -0.14285714       0.14285714       0.14285714 </v>
   <v>       0.19047619       0.19047619       0.14285714 </v>
   <v>       0.23809524       0.19047619       0.14285714 </v>
   <v>       0.28571429       0.19047619       0.14285714 </v>
   <v>       0.33333333       0.19047619       0.14285714 </v>
   <v>      -0.19047619       0.19047619       0.14285714 </v>
   <v>       0.23809524       0.23809524       0.14285714 </v>
   <v>       0.28571429       0.23809524       0.14285714 </v>
   <v>      -0.23809524       0.23809524       0.14285714 </v>
   <v>      -0.19047619       0.23809524       0.14285714 </v>
   <v>       0.28571429       0.28571429       0.14285714 </v>
   <v>      -0.28571429       0.28571429       0.14285714 </v>
   <v>      -0.23809524       0.28571429       0.14285714 </v>
   <v>      -0.33333333       0.33333333       0.14285714 </v>
   <v>      -0.28571429       0.33333333       0.14285714 </v>
   <v>      -0.23809524       0.33333333       0.14285714 </v>
   <v>      -0.38095238       0.38095238       0.14285714 </v>
   <v>      -0.33333333       0.38095238       0.14285714 </v>
   <v>      -0.28571429       0.38095238       0.14285714 </v>
   <v>      -0.42857143       0.42857143       0.14285714 </v>
   <v>      -0.38095238       0.42857143       0.14285714 </v>
   <v>      -0.33333333       0.42857143       0.14285714 </v>
   <v>      -0.28571429       0.42857143       0.14285714 </v>
   <v>      -0.47619048       0.47619048       0.14285714 </v>
   <v>      -0.42857143       0.47619048       0.14285714 </v>
   <v>      -0.38095238       0.47619048       0.14285714 </v>
   <v>      -0.33333333       0.47619048       0.14285714 </v>
   <v>      -0.47619048      -0.47619048       0.14285714 </v>
   <v>      -0.42857143      -0.47619048       0.14285714 </v>
   <v>      -0.38095238      -0.47619048       0.14285714 </v>
   <v>      -0.33333333      -0.47619048       0.14285714 </v>
   <v>      -0.42857143      -0.42857143       0.14285714 </v>
   <v>      -0.38095238      -0.42857143       0.14285714 </v>
   <v>      -0.38095238      -0.38095238       0.14285714 </v>
   <v>       0.19047619       0.19047619       0.19047619 </v>
   <v>       0.23809524       0.19047619       0.19047619 </v>
   <v>       0.28571429       0.19047619       0.19047619 </v>
   <v>      -0.19047619       0.19047619       0.19047619 </v>
   <v>       0.23809524       0.23809524       0.19047619 </v>
   <v>       0.28571429       0.23809524       0.19047619 </v>
   <v>      -0.23809524       0.23809524       0.19047619 </v>
   <v>      -0.28571429       0.28571429       0.19047619 </v>
   <v>      -0.23809524       0.28571429       0.19047619 </v>
   <v>      -0.33333333       0.33333333       0.19047619 </v>
   <v>      -0.28571429       0.33333333       0.19047619 </v>
   <v>      -0.38095238       0.38095238       0.19047619 </v>
   <v>      -0.33333333       0.38095238       0.19047619 </v>
   <v>      -0.28571429       0.38095238       0.19047619 </v>
   <v>      -0.42857143       0.42857143       0.19047619 </v>
   <v>      -0.38095238       0.42857143       0.19047619 </v>
   <v>      -0.33333333       0.42857143       0.19047619 </v>
   <v>      -0.47619048       0.47619048       0.19047619 </v>
   <v>      -0.42857143       0.47619048       0.19047619 </v>
   <v>      -0.38095238       0.47619048       0.19047619 </v>
   <v>      -0.33333333       0.47619048       0.19047619 </v>
   <v>      -0.47619048      -0.47619048       0.19047619 </v>
   <v>      -0.42857143      -0.47619048       0.19047619 </v>
   <v>      -0.38095238      -0.47619048       0.19047619 </v>
   <v>      -0.42857143      -0.42857143       0.19047619 </v>
   <v>      -0.38095238      -0.42857143       0.19047619 </v>
   <v>       0.23809524       0.23809524       0.23809524 </v>
   <v>      -0.23809524       0.23809524       0.23809524 </v>
   <v>      -0.28571429       0.28571429       0.23809524 </v>
   <v>      -0.33333333       0.33333333       0.23809524 </v>
   <v>      -0.28571429       0.33333333       0.23809524 </v>
   <v>      -0.38095238       0.38095238       0.23809524 </v>
   <v>      -0.33333333       0.38095238       0.23809524 </v>
   <v>      -0.42857143       0.42857143       0.23809524 </v>
   <v>      -0.38095238       0.42857143       0.23809524 </v>
   <v>      -0.33333333       0.42857143       0.23809524 </v>
   <v>      -0.47619048       0.47619048       0.23809524 </v>
   <v>      -0.42857143       0.47619048       0.23809524 </v>
   <v>      -0.38095238       0.47619048       0.23809524 </v>
   <v>      -0.47619048      -0.47619048       0.23809524 </v>
   <v>      -0.42857143      -0.47619048       0.23809524 </v>
   <v>      -0.38095238      -0.47619048       0.23809524 </v>
   <v>      -0.42857143      -0.42857143       0.23809524 </v>
   <v>      -0.28571429       0.28571429       0.28571429 </v>
   <v>      -0.33333333       0.33333333       0.28571429 </v>
   <v>      -0.38095238       0.38095238       0.28571429 </v>
   <v>      -0.33333333       0.38095238       0.28571429 </v>
   <v>      -0.42857143       0.42857143       0.28571429 </v>
   <v>      -0.38095238       0.42857143       0.28571429 </v>
   <v>      -0.47619048       0.47619048       0.28571429 </v>
   <v>      -0.42857143       0.47619048       0.28571429 </v>
   <v>      -0.38095238       0.47619048       0.28571429 </v>
   <v>      -0.47619048      -0.47619048       0.28571429 </v>
   <v>      -0.42857143      -0.47619048       0.28571429 </v>
   <v>      -0.42857143      -0.42857143       0.28571429 </v>
   <v>      -0.33333333       0.33333333       0.33333333 </v>
   <v>      -0.38095238       0.38095238       0.33333333 </v>
   <v>      -0.42857143       0.42857143       0.33333333 </v>
   <v>      -0.38095238       0.42857143       0.33333333 </v>
   <v>      -0.47619048       0.47619048       0.33333333 </v>
   <v>      -0.42857143       0.47619048       0.33333333 </v>
   <v>      -0.47619048      -0.47619048       0.33333333 </v>
   <v>      -0.42857143      -0.47619048       0.33333333 </v>
   <v>      -0.38095238       0.38095238       0.38095238 </v>
   <v>      -0.42857143       0.42857143       0.38095238 </v>
   <v>      -0.47619048       0.47619048       0.38095238 </v>
   <v>      -0.42857143       0.47619048       0.38095238 </v>
   <v>      -0.47619048      -0.47619048       0.38095238 </v>
   <v>      -0.42857143       0.42857143       0.42857143 </v>
   <v>      -0.47619048       0.47619048       0.42857143 </v>
   <v>      -0.47619048      -0.47619048       0.42857143 </v>
   <v>      -0.47619048       0.47619048       0.47619048 </v>
  </varray>
  <varray name="weights" >
   <v>       0.00010798 </v>
   <v>       0.00129576 </v>
   <v>       0.00129576 </v>
   <v>       0.00129576 </v>
   <v>       0.00129576 </v>
   <v>       0.00129576 </v>
   <v>       0.00129576 </v>
   <v>       0.00129576 </v>
   <v>       0.00129576 </v>
   <v>       0.00129576 </v>
   <v>       0.00129576 </v>
   <v>       0.00259151 </v>
   <v>       0.00518303 </v>
   <v>       0.00518303 </v>
   <v>       0.00518303 </v>
   <v>       0.00518303 </v>
   <v>       0.00518303 </v>
   <v>       0.00518303 </v>
   <v>       0.00518303 </v>
   <v>       0.00518303 </v>
   <v>       0.00259151 </v>
   <v>       0.00259151 </v>
   <v>       0.00518303 </v>
   <v>       0.00518303 </v>
   <v>       0.00518303 </v>
   <v>       0.00518303 </v>
   <v>       0.00518303 </v>
   <v>       0.00518303 </v>
   <v>       0.00518303 </v>
   <v>       0.00259151 </v>
   <v>       0.00518303 </v>
   <v>       0.00518303 </v>
   <v>       0.00518303 </v>
   <v>       0.00518303 </v>
   <v>       0.00518303 </v>
   <v>       0.00259151 </v>
   <v>       0.00259151 </v>
   <v>       0.00518303 </v>
   <v>       0.00518303 </v>
   <v>       0.00518303 </v>
   <v>       0.00518303 </v>
   <v>       0.00259151 </v>
   <v>       0.00518303 </v>
   <v>       0.00518303 </v>
   <v>       0.00259151 </v>
   <v>       0.00259151 </v>
   <v>       0.00518303 </v>
   <v>       0.00086384 </v>
   <v>       0.00086384 </v>
   <v>       0.00259151 </v>
   <v>       0.00259151 </v>
   <v>       0.00259151 </v>
   <v>       0.00259151 </v>
   <v>       0.00259151 </v>
   <v>       0.00259151 </v>
   <v>       0.00259151 </v>
   <v>       0.00259151 </v>
   <v>       0.00064788 </v>
   <v>       0.00259151 </v>
   <v>       0.00518303 </v>
   <v>       0.00518303 </v>
   <v>       0.00518303 </v>
   <v>       0.00518303 </v>
   <v>       0.00518303 </v>
   <v>       0.00518303 </v>
   <v>       0.00259151 </v>
   <v>       0.00259151 </v>
   <v>       0.00259151 </v>
   <v>       0.00518303 </v>
   <v>       0.00518303 </v>
   <v>       0.00518303 </v>
   <v>       0.00518303 </v>
   <v>       0.00518303 </v>
   <v>       0.00259151 </v>
   <v>       0.00259151 </v>
   <v>       0.00259151 </v>
   <v>       0.00518303 </v>
   <v>       0.00518303 </v>
   <v>       0.00518303 </v>
   <v>       0.00259151 </v>
   <v>       0.00259151 </v>
   <v>       0.00518303 </v>
   <v>       0.00259151 </v>
   <v>       0.00518303 </v>
   <v>       0.00518303 </v>
   <v>       0.00259151 </v>
   <v>       0.00518303 </v>
   <v>       0.00259151 </v>
   <v>       0.00259151 </v>
   <v>       0.00259151 </v>
   <v>       0.00259151 </v>
   <v>       0.00518303 </v>
   <v>       0.00518303 </v>
   <v>       0.00259151 </v>
   <v>       0.00518303 </v>
   <v>       0.00518303 </v>
   <v>       0.00259151 </v>
   <v>       0.00259151 </v>
   <v>       0.00518303 </v>
   <v>       0.00518303 </v>
   <v>       0.00518303 </v>
   <v>       0.00259151 </v>
   <v>       0.00518303 </v>
   <v>       0.00518303 </v>
   <v>       0.00518303 </v>
   <v>       0.00259151 </v>
   <v>       0.00259151 </v>
   <v>       0.00518303 </v>
   <v>       0.00518303 </v>
   <v>       0.00518303 </v>
   <v>       0.00518303 </v>
   <v>       0.00259151 </v>
   <v>       0.00518303 </v>
   <v>       0.00518303 </v>
   <v>       0.00518303 </v>
   <v>       0.00259151 </v>
   <v>       0.00259151 </v>
   <v>       0.00518303 </v>
   <v>       0.00518303 </v>
   <v>       0.00259151 </v>
   <v>       0.00259151 </v>
   <v>       0.00086384 </v>
   <v>       0.00259151 </v>
   <v>       0.00259151 </v>
   <v>       0.00259151 </v>
   <v>       0.00259151 </v>
   <v>       0.00259151 </v>
   <v>       0.00259151 </v>
   <v>       0.00064788 </v>
   <v>       0.00259151 </v>
   <v>       0.00518303 </v>
   <v>       0.00518303 </v>
   <v>       0.00518303 </v>
   <v>       0.00518303 </v>
   <v>       0.00259151 </v>
   <v>       0.00259151 </v>
   <v>       0.00259151 </v>
   <v>       0.00518303 </v>
   <v>       0.00518303 </v>
   <v>       0.00518303 </v>
   <v>       0.00259151 </v>
   <v>       0.00259151 </v>
   <v>       0.00259151 </v>
   <v>       0.00518303 </v>
   <v>       0.00259151 </v>
   <v>       0.00259151 </v>
   <v>       0.00518303 </v>
   <v>       0.00259151 </v>
   <v>       0.00259151 </v>
   <v>       0.00518303 </v>
   <v>       0.00259151 </v>
   <v>       0.00259151 </v>
   <v>       0.00518303 </v>
   <v>       0.00518303 </v>
   <v>       0.00259151 </v>
   <v>       0.00518303 </v>
   <v>       0.00518303 </v>
   <v>       0.00259151 </v>
   <v>       0.00259151 </v>
   <v>       0.00518303 </v>
   <v>       0.00518303 </v>
   <v>       0.00518303 </v>
   <v>       0.00259151 </v>
   <v>       0.00518303 </v>
   <v>       0.00518303 </v>
   <v>       0.00518303 </v>
   <v>       0.00259151 </v>
   <v>       0.00259151 </v>
   <v>       0.00518303 </v>
   <v>       0.00518303 </v>
   <v>       0.00518303 </v>
   <v>       0.00259151 </v>
   <v>       0.00518303 </v>
   <v>       0.00259151 </v>
   <v>       0.00259151 </v>
   <v>       0.00086384 </v>
   <v>       0.00259151 </v>
   <v>       0.00259151 </v>
   <v>       0.00259151 </v>
   <v>       0.00259151 </v>
   <v>       0.00064788 </v>
   <v>       0.00259151 </v>
   <v>       0.00518303 </v>
   <v>       0.00518303 </v>
   <v>       0.00259151 </v>
   <v>       0.00259151 </v>
   <v>       0.00259151 </v>
   <v>       0.00518303 </v>
   <v>       0.00259151 </v>
   <v>       0.00259151 </v>
   <v>       0.00086384 </v>
   <v>       0.00259151 </v>
   <v>       0.00518303 </v>
   <v>       0.00259151 </v>
   <v>       0.00518303 </v>
   <v>       0.00259151 </v>
   <v>       0.00259151 </v>
   <v>       0.00518303 </v>
   <v>       0.00518303 </v>
   <v>       0.00259151 </v>
   <v>       0.00518303 </v>
   <v>       0.00518303 </v>
   <v>       0.00259151 </v>
   <v>       0.00259151 </v>
   <v>       0.00518303 </v>
   <v>       0.00518303 </v>
   <v>       0.00518303 </v>
   <v>       0.00259151 </v>
   <v>       0.00518303 </v>
   <v>       0.00518303 </v>
   <v>       0.00259151 </v>
   <v>       0.00259151 </v>
   <v>       0.00518303 </v>
   <v>       0.00086384 </v>
   <v>       0.00086384 </v>
   <v>       0.00259151 </v>
   <v>       0.00259151 </v>
   <v>       0.00064788 </v>
   <v>       0.00259151 </v>
   <v>       0.00259151 </v>
   <v>       0.00259151 </v>
   <v>       0.00259151 </v>
   <v>       0.00259151 </v>
   <v>       0.00259151 </v>
   <v>       0.00518303 </v>
   <v>       0.00259151 </v>
   <v>       0.00518303 </v>
   <v>       0.00259151 </v>
   <v>       0.00259151 </v>
   <v>       0.00518303 </v>
   <v>       0.00518303 </v>
   <v>       0.00259151 </v>
   <v>       0.00518303 </v>
   <v>       0.00518303 </v>
   <v>       0.00259151 </v>
   <v>       0.00259151 </v>
   <v>       0.00518303 </v>
   <v>       0.00518303 </v>
   <v>       0.00259151 </v>
   <v>       0.00259151 </v>
   <v>       0.00086384 </v>
   <v>       0.00064788 </v>
   <v>       0.00259151 </v>
   <v>       0.00259151 </v>
   <v>       0.00259151 </v>
   <v>       0.00259151 </v>
   <v>       0.00518303 </v>
   <v>       0.00259151 </v>
   <v>       0.00518303 </v>
   <v>       0.00259151 </v>
   <v>       0.00259151 </v>
   <v>       0.00518303 </v>
   <v>       0.00518303 </v>
   <v>       0.00259151 </v>
   <v>       0.00518303 </v>
   <v>       0.00259151 </v>
   <v>       0.00259151 </v>
   <v>       0.00064788 </v>
   <v>       0.00259151 </v>
   <v>       0.00259151 </v>
   <v>       0.00259151 </v>
   <v>       0.00259151 </v>
   <v>       0.00518303 </v>
   <v>       0.00259151 </v>
   <v>       0.00518303 </v>
   <v>       0.00259151 </v>
   <v>       0.00259151 </v>
   <v>       0.00518303 </v>
   <v>       0.00086384 </v>
   <v>       0.00064788 </v>
   <v>       0.00259151 </v>
   <v>       0.00259151 </v>
   <v>       0.00259151 </v>
   <v>       0.00259151 </v>
   <v>       0.00518303 </v>
   <v>       0.00259151 </v>
   <v>       0.00259151 </v>
   <v>       0.00064788 </v>
   <v>       0.00259151 </v>
   <v>       0.00259151 </v>
   <v>       0.00259151 </v>
   <v>       0.00259151 </v>
   <v>       0.00064788 </v>
   <v>       0.00259151 </v>
   <v>       0.00086384 </v>
   <v>       0.00064788 </v>
  </varray>
 </kpoints>
 <parameters>
  <separator name="general" >
   <i type="string" name="SYSTEM">unknown system</i>
   <i type="logical" name="LCOMPAT"> F  </i>
  </separator>
  <separator name="electronic" >
   <i type="string" name="PREC">accura</i>
   <i name="ENMAX">    450.00000000</i>
   <i name="ENAUG">    511.36800000</i>
   <i name="EDIFF">      0.00000100</i>
   <i type="int" name="IALGO">    38</i>
   <i type="int" name="IWAVPR">    10</i>
   <i type="int" name="NBANDS">    12</i>
   <i type="int" name="NBANDSLOW">    -1</i>
   <i type="int" name="NBANDSHIGH">    -1</i>
   <i name="NELECT">      8.00000000</i>
   <i type="int" name="TURBO">     0</i>
   <i type="int" name="IRESTART">     0</i>
   <i type="int" name="NREBOOT">     0</i>
   <i type="int" name="NMIN">     0</i>
   <i name="EREF">      0.00000000</i>
   <separator name="electronic smearing" >
    <i type="int" name="ISMEAR">     1</i>
    <i name="SIGMA">      0.20000000</i>
    <i name="KSPACING">      0.50000000</i>
    <i type="logical" name="KGAMMA"> T  </i>
    <i type="logical" name="KBLOWUP"> T  </i>
   </separator>
   <separator name="electronic projectors" >
    <i type="logical" name="LREAL"> F  </i>
    <v name="ROPT">      0.00000000</v>
    <i type="int" name="LMAXPAW">  -100</i>
    <i type="int" name="LMAXMIX">     4</i>
    <i type="logical" name="NLSPLINE"> F  </i>
   </separator>
   <separator name="electronic startup" >
    <i type="int" name="ISTART">     0</i>
    <i type="int" name="ICHARG">     2</i>
    <i type="int" name="INIWAV">     1</i>
   </separator>
   <separator name="electronic spin" >
    <i type="int" name="ISPIN">     2</i>
    <i type="logical" name="LNONCOLLINEAR"> F  </i>
    <v name="MAGMOM">      5.00000000</v>
    <i name="NUPDOWN">     -1.00000000</i>
    <i type="logical" name="LSORBIT"> F  </i>
    <v name="SAXIS">      0.00000000      0.00000000      1.00000000</v>
    <i type="logical" name="LSPIRAL"> F  </i>
    <v name="QSPIRAL">      0.00000000      0.00000000      0.00000000</v>
    <i type="logical" name="LZEROZ"> F  </i>
   </separator>
   <separator name="electronic exchange-correlation" >
    <i type="logical" name="LASPH"> T  </i>
    <i type="logical" name="LMETAGGA"> F  </i>
   </separator>
   <separator name="electronic convergence" >
    <i type="int" name="NELM">    90</i>
    <i type="int" name="NELMDL">    -5</i>
    <i type="int" name="NELMIN">     6</i>
    <i name="ENINI">    450.00000000</i>
    <separator name="electronic convergence detail" >
     <i type="logical" name="LDIAG"> T  </i>
     <i type="logical" name="LSUBROT"> F  </i>
     <i name="WEIMIN">      0.00000000</i>
     <i name="EBREAK">      0.00000002</i>
     <i name="DEPER">      0.30000000</i>
     <i type="int" name="NRMM">     4</i>
     <i name="TIME">      0.40000000</i>
    </separator>
   </separator>
   <separator name="electronic mixer" >
    <i name="AMIX">      0.40000000</i>
    <i name="BMIX">      1.00000000</i>
    <i name="AMIN">      0.10000000</i>
    <i name="AMIX_MAG">      1.60000000</i>
    <i name="BMIX_MAG">      1.00000000</i>
    <separator name="electronic mixer details" >
     <i type="int" name="IMIX">     4</i>
     <i type="logical" name="MIXFIRST"> F  </i>
     <i type="int" name="MAXMIX">   -45</i>
     <i name="WC">    100.00000000</i>
     <i type="int" name="INIMIX">     1</i>
     <i type="int" name="MIXPRE">     1</i>
     <i type="int" name="MREMOVE">     5</i>
    </separator>
   </separator>
   <separator name="electronic dipolcorrection" >
    <i type="logical" name="LDIPOL"> F  </i>
    <i type="logical" name="LMONO"> F  </i>
    <i type="int" name="IDIPOL">     0</i>
    <i name="EPSILON">      1.00000000</i>
    <v name="DIPOL">   -100.00000000   -100.00000000   -100.00000000</v>
    <i name="EFIELD">      0.00000000</i>
   </separator>
  </separator>
  <separator name="grids" >
   <i type="int" name="NGX">    18</i>
   <i type="int" name="NGY">    18</i>
   <i type="int" name="NGZ">    18</i>
   <i type="int" name="NGXF">    36</i>
   <i type="int" name="NGYF">    36</i>
   <i type="int" name="NGZF">    36</i>
   <i type="logical" name="ADDGRID"> T  </i>
  </separator>
  <separator name="ionic" >
   <i type="int" name="NSW">     0</i>
   <i type="int" name="IBRION">    -1</i>
   <i type="int" name="MDALGO">     0</i>
   <i type="int" name="ISIF">     3</i>
   <i name="PSTRESS">      0.00000000</i>
   <i name="EDIFFG">     -0.00200000</i>
   <i type="int" name="NFREE">     0</i>
   <i name="POTIM">      0.50000000</i>
   <i name="SMASS">     -3.00000000</i>
   <i name="SCALEE">      1.00000000</i>
  </separator>
  <separator name="ionic md" >
   <i name="TEBEG">      0.00010000</i>
   <i name="TEEND">      0.00010000</i>
   <i type="int" name="NBLOCK">     1</i>
   <i type="int" name="KBLOCK">     1</i>
   <i type="int" name="NPACO">   256</i>
   <i name="APACO">     16.00000000</i>
  </separator>
  <separator name="symmetry" >
   <i type="int" name="ISYM">     2</i>
   <i name="SYMPREC">      0.00001000</i>
  </separator>
  <separator name="dos" >
   <i type="int" name="LORBIT">    11</i>
   <v name="RWIGS">     -1.00000000</v>
   <i type="int" name="NEDOS">   301</i>
   <i name="EMIN">     10.00000000</i>
   <i name="EMAX">    -10.00000000</i>
   <i name="EFERMI">      0.00000000</i>
  </separator>
  <separator name="writing" >
   <i type="int" name="NWRITE">     2</i>
   <i type="logical" name="LWAVE"> T  </i>
   <i type="logical" name="LDOWNSAMPLE"> F  </i>
   <i type="logical" name="LCHARG"> T  </i>
   <i type="logical" name="LPARD"> F  </i>
   <i type="logical" name="LVTOT"> F  </i>
   <i type="logical" name="LVHAR"> F  </i>
   <i type="logical" name="LELF"> F  </i>
   <i type="logical" name="LOPTICS"> F  </i>
   <v name="STM">      0.00000000      0.00000000      0.00000000      0.00000000      0.00000000      0.00000000      0.00000000</v>
  </separator>
  <separator name="performance" >
   <i type="int" name="NPAR">     4</i>
   <i type="int" name="NSIM">     4</i>
   <i type="int" name="NBLK">    -1</i>
   <i type="logical" name="LPLANE"> T  </i>
   <i type="logical" name="LSCALAPACK"> T  </i>
   <i type="logical" name="LSCAAWARE"> F  </i>
   <i type="logical" name="LSCALU"> F  </i>
   <i type="logical" name="LASYNC"> F  </i>
   <i type="logical" name="LORBITALREAL"> F  </i>
  </separator>
  <separator name="miscellaneous" >
   <i type="int" name="IDIOT">     3</i>
   <i type="int" name="PHON_NSTRUCT">    -1</i>
   <i type="logical" name="LMUSIC"> F  </i>
   <v name="POMASS">     55.84700000</v>
   <v name="DARWINR">      0.00000000</v>
   <v name="DARWINV">      1.00000000</v>
   <i type="logical" name="LCORR"> T  </i>
  </separator>
  <i type="logical" name="GGA_COMPAT"> F  </i>
  <i type="logical" name="LBERRY"> F  </i>
  <i type="int" name="ICORELEVEL">     0</i>
  <i type="logical" name="LDAU"> F  </i>
  <i type="int" name="I_CONSTRAINED_M">     0</i>
  <separator name="electronic exchange-correlation" >
   <i type="string" name="GGA">--</i>
   <i type="int" name="VOSKOWN">     1</i>
   <i type="logical" name="LHFCALC"> F  </i>
   <i type="string" name="PRECFOCK"></i>
   <i type="logical" name="LSYMGRAD"> F  </i>
   <i type="logical" name="LHFONE"> F  </i>
   <i type="logical" name="LRHFCALC"> F  </i>
   <i type="logical" name="LTHOMAS"> F  </i>
   <i type="logical" name="LMODELHF"> F  </i>
   <i type="logical" name="LFOCKACE"> F  </i>
   <i name="ENCUT4O">     -1.00000000</i>
   <i type="int" name="EXXOEP">     0</i>
   <i type="int" name="FOURORBIT">     0</i>
   <i name="AEXX">      0.00000000</i>
   <i name="HFALPHA">      0.00000000</i>
   <i name="MCALPHA">      0.00000000</i>
   <i name="ALDAX">      1.00000000</i>
   <i name="AGGAX">      1.00000000</i>
   <i name="ALDAC">      1.00000000</i>
   <i name="AGGAC">      1.00000000</i>
   <i type="int" name="NKREDX">     1</i>
   <i type="int" name="NKREDY">     1</i>
   <i type="int" name="NKREDZ">     1</i>
   <i type="logical" name="SHIFTRED"> F  </i>
   <i type="logical" name="ODDONLY"> F  </i>
   <i type="logical" name="EVENONLY"> F  </i>
   <i type="int" name="LMAXFOCK">     0</i>
   <i type="int" name="NMAXFOCKAE">     0</i>
   <i type="logical" name="LFOCKAEDFT"> F  </i>
   <i name="HFSCREEN">      0.00000000</i>
   <i name="HFSCREENC">      0.00000000</i>
   <i type="int" name="NBANDSGWLOW">     0</i>
  </separator>
  <separator name="vdW DFT" >
   <i type="logical" name="LUSE_VDW"> F  </i>
   <i name="Zab_VDW">     -0.84910000</i>
   <i name="PARAM1">      0.12340000</i>
   <i name="PARAM2">      1.00000000</i>
   <i name="PARAM3">      0.00000000</i>
  </separator>
  <separator name="model GW" >
   <i type="int" name="MODEL_GW">     0</i>
   <i name="MODEL_EPS0">      6.79964817</i>
   <i name="MODEL_ALPHA">      1.00000000</i>
  </separator>
  <separator name="linear response parameters" >
   <i type="logical" name="LEPSILON"> F  </i>
   <i type="logical" name="LRPA"> F  </i>
   <i type="logical" name="LNABLA"> F  </i>
   <i type="logical" name="LVEL"> F  </i>
   <i type="int" name="KINTER">     0</i>
   <i name="CSHIFT">      0.10000000</i>
   <i name="OMEGAMAX">     -1.00000000</i>
   <i name="DEG_THRESHOLD">      0.00200000</i>
   <i name="RTIME">     -0.10000000</i>
   <i name="WPLASMAI">      0.00000000</i>
   <v name="DFIELD">      0.00000000      0.00000000      0.00000000</v>
   <v name="WPLASMA">      0.00000000      0.00000000      0.00000000      0.00000000      0.00000000      0.00000000      0.00000000      0.00000000      0.00000000</v>
  </separator>
  <separator name="orbital magnetization" >
   <i type="logical" name="NUCIND"> F  </i>
   <v name="MAGPOS">      0.00000000      0.00000000      0.00000000</v>
   <i type="logical" name="LNICSALL"> T  </i>
   <i type="logical" name="ORBITALMAG"> F  </i>
   <i type="logical" name="LMAGBLOCH"> F  </i>
   <i type="logical" name="LCHIMAG"> F  </i>
   <i type="logical" name="LGAUGE"> T  </i>
   <i type="int" name="MAGATOM">     0</i>
   <v name="MAGDIPOL">      0.00000000      0.00000000      0.00000000</v>
   <v name="AVECCONST">      0.00000000      0.00000000      0.00000000</v>
  </separator>
  <separator name="response functions" >
   <i type="logical" name="LFINITE_TEMPERATURE"> F  </i>
   <i type="logical" name="LADDER"> F  </i>
   <i type="logical" name="LRPAFORCE"> F  </i>
   <i type="logical" name="LFXC"> F  </i>
   <i type="logical" name="LHARTREE"> T  </i>
   <i type="int" name="IBSE">     0</i>
   <v type="int" name="KPOINT">    -1     0     0     0</v>
   <i type="logical" name="LTCTC"> F  </i>
   <i type="logical" name="LTCTE"> F  </i>
   <i type="logical" name="LTETE"> F  </i>
   <i type="logical" name="LTRIPLET"> F  </i>
   <i type="logical" name="LFXCEPS"> F  </i>
   <i type="logical" name="LFXHEG"> F  </i>
   <i type="int" name="NATURALO">     2</i>
   <i type="logical" name="LHOLEGF"> F  </i>
   <i type="logical" name="L2ORDER"> F  </i>
   <i type="logical" name="LDMP1"> F  </i>
   <i type="logical" name="LMP2LT"> F  </i>
   <i type="logical" name="LSMP2LT"> F  </i>
   <i type="logical" name="LGWLF"> F  </i>
   <i name="ENCUTGW">     -2.00000000</i>
   <i name="ENCUTGWSOFT">     -2.00000000</i>
   <i name="ENCUTLF">     -1.00000000</i>
   <i type="logical" name="LESF_SPLINES"> F  </i>
   <i type="int" name="LMAXMP2">    -1</i>
   <i name="SCISSOR">      0.00000000</i>
   <i type="int" name="NOMEGA">     0</i>
   <i type="int" name="NOMEGAR">     0</i>
   <i type="int" name="NBANDSGW">    -1</i>
   <i type="int" name="NBANDSO">    -1</i>
   <i type="int" name="NBANDSV">    -1</i>
   <i type="int" name="NELM">    90</i>
   <i type="int" name="NELMHF">     1</i>
   <i type="int" name="DIM">     3</i>
   <i type="int" name="IESPILON">     4</i>
   <i type="int" name="ANTIRES">     0</i>
   <i name="OMEGAMAX">    -30.00000000</i>
   <i name="OMEGAMIN">    -30.00000000</i>
   <i name="OMEGATL">   -200.00000000</i>
   <i type="int" name="OMEGAGRID">     0</i>
   <i name="CSHIFT">     -0.10000000</i>
   <i type="logical" name="LSELFENERGY"> F  </i>
   <i type="logical" name="LSPECTRAL"> F  </i>
   <i type="logical" name="LSPECTRALGW"> F  </i>
   <i type="logical" name="LSINGLES"> F  </i>
   <i type="logical" name="LFERMIGW"> F  </i>
   <i type="logical" name="ODDONLYGW"> F  </i>
   <i type="logical" name="EVENONLYGW"> F  </i>
   <i type="int" name="NKREDLFX">     1</i>
   <i type="int" name="NKREDLFY">     1</i>
   <i type="int" name="NKREDLFZ">     1</i>
   <i type="int" name="MAXMEM">  2800</i>
   <i type="int" name="TELESCOPE">     0</i>
   <i type="int" name="NTAUPAR">    -1</i>
   <i type="int" name="NOMEGAPAR">    -1</i>
   <i name="DAMP_NEWTON">      0.80000001</i>
   <i name="LAMBDA">      1.00000000</i>
  </separator>
  <separator name="External order field" >
   <i name="OFIELD_KAPPA">      0.00000000</i>
   <v name="OFIELD_K">      0.00000000      0.00000000      0.00000000</v>
   <i name="OFIELD_Q6_NEAR">      0.00000000</i>
   <i name="OFIELD_Q6_FAR">      0.00000000</i>
   <i name="OFIELD_A">      0.00000000</i>
  </separator>
 </parameters>
 <atominfo>
  <atoms>       1 </atoms>
  <types>       1 </types>
  <array name="atoms" >
   <dimension dim="1">ion</dimension>
   <field type="string">element</field>
   <field type="int">atomtype</field>
   <set>
    <rc><c>Fe</c><c>   1</c></rc>
   </set>
  </array>
  <array name="atomtypes" >
   <dimension dim="1">type</dimension>
   <field type="int">atomspertype</field>
   <field type="string">element</field>
   <field>mass</field>
   <field>valence</field>
   <field type="string">pseudopotential</field>
   <set>
    <rc><c>   1</c><c>Fe</c><c>     55.84700000</c><c>      8.00000000</c><c>  PAW_PBE Fe 06Sep2000                  </c></rc>
   </set>
  </array>
 </atominfo>
 <structure name="initialpos" >
  <crystal>
   <varray name="basis" >
    <v>      -1.41500639       1.41500639       1.41500639 </v>
    <v>       1.41500639      -1.41500639       1.41500639 </v>
    <v>       1.41500639       1.41500639      -1.41500639 </v>
   </varray>
   <i name="volume">     11.33274695 </i>
   <varray name="rec_basis" >
    <v>       0.00000000       0.35335530       0.35335530 </v>
    <v>       0.35335530       0.00000000       0.35335530 </v>
    <v>       0.35335530       0.35335530       0.00000000 </v>
   </varray>
  </crystal>
  <varray name="positions" >
   <v>       0.00000000       0.00000000       0.00000000 </v>
  </varray>
 </structure>
 <calculation>
  <scstep>
   <time name="dav">    4.92    4.93</time>
   <time name="total">    6.53    6.54</time>
   <energy>
    <i name="alphaZ">     60.98589892 </i>
    <i name="ewald">   -592.55350491 </i>
    <i name="hartreedc">   -111.34967962 </i>
    <i name="XCdc">      7.24467914 </i>
    <i name="pawpsdc">    551.74770005 </i>
    <i name="pawaedc">   -559.55805187 </i>
    <i name="eentropy">     -0.00113470 </i>
    <i name="bandstr">     70.38913501 </i>
    <i name="atom">    594.31193140 </i>
    <i name="e_fr_energy">     21.21697341 </i>
    <i name="e_wo_entrp">     21.21810811 </i>
    <i name="e_0_energy">     21.21735165 </i>
   </energy>
  </scstep>
  <scstep>
   <time name="dav">    4.75    4.77</time>
   <time name="total">    4.76    4.79</time>
   <energy>
    <i name="e_fr_energy">     -7.28513981 </i>
    <i name="e_wo_entrp">     -7.28636559 </i>
    <i name="e_0_energy">     -7.28554840 </i>
   </energy>
  </scstep>
  <scstep>
   <time name="dav">    5.14    5.16</time>
   <time name="total">    5.15    5.17</time>
   <energy>
    <i name="e_fr_energy">     -7.97157847 </i>
    <i name="e_wo_entrp">     -7.97236453 </i>
    <i name="e_0_energy">     -7.97184049 </i>
   </energy>
  </scstep>
  <scstep>
   <time name="dav">    5.02    5.04</time>
   <time name="total">    5.03    5.05</time>
   <energy>
    <i name="e_fr_energy">     -7.97399815 </i>
    <i name="e_wo_entrp">     -7.97478151 </i>
    <i name="e_0_energy">     -7.97425927 </i>
   </energy>
  </scstep>
  <scstep>
   <time name="dav">    5.11    5.13</time>
   <time name="total">    5.43    5.45</time>
   <energy>
    <i name="e_fr_energy">     -7.97401277 </i>
    <i name="e_wo_entrp">     -7.97479611 </i>
    <i name="e_0_energy">     -7.97427388 </i>
   </energy>
  </scstep>
  <scstep>
   <time name="dav">    5.08    5.09</time>
   <time name="total">    6.98    7.00</time>
   <energy>
    <i name="e_fr_energy">     -8.26717176 </i>
    <i name="e_wo_entrp">     -8.26655024 </i>
    <i name="e_0_energy">     -8.26696459 </i>
   </energy>
  </scstep>
  <scstep>
   <time name="dav">    5.17    5.17</time>
   <time name="total">    7.07    7.09</time>
   <energy>
    <i name="e_fr_energy">     -8.25789894 </i>
    <i name="e_wo_entrp">     -8.25643029 </i>
    <i name="e_0_energy">     -8.25740939 </i>
   </energy>
  </scstep>
  <scstep>
   <time name="dav">    5.64    5.64</time>
   <time name="total">    7.54    7.56</time>
   <energy>
    <i name="e_fr_energy">     -8.24767972 </i>
    <i name="e_wo_entrp">     -8.24645698 </i>
    <i name="e_0_energy">     -8.24727214 </i>
   </energy>
  </scstep>
  <scstep>
   <time name="dav">    6.35    6.35</time>
   <time name="total">    8.28    8.36</time>
   <energy>
    <i name="e_fr_energy">     -8.24219571 </i>
    <i name="e_wo_entrp">     -8.24128116 </i>
    <i name="e_0_energy">     -8.24189086 </i>
   </energy>
  </scstep>
  <scstep>
   <time name="dav">    5.07    5.08</time>
   <time name="total">    7.00    7.10</time>
   <energy>
    <i name="e_fr_energy">     -8.24205868 </i>
    <i name="e_wo_entrp">     -8.24098555 </i>
    <i name="e_0_energy">     -8.24170097 </i>
   </energy>
  </scstep>
  <scstep>
   <time name="dav">    5.30    5.31</time>
   <time name="total">    7.20    7.23</time>
   <energy>
    <i name="e_fr_energy">     -8.24206216 </i>
    <i name="e_wo_entrp">     -8.24097223 </i>
    <i name="e_0_energy">     -8.24169885 </i>
   </energy>
  </scstep>
  <scstep>
   <time name="dav">    4.23    4.24</time>
   <time name="total">    6.13    6.15</time>
   <energy>
    <i name="e_fr_energy">     -8.24205860 </i>
    <i name="e_wo_entrp">     -8.24095860 </i>
    <i name="e_0_energy">     -8.24169193 </i>
   </energy>
  </scstep>
  <scstep>
   <time name="dav">    3.33    3.33</time>
   <time name="total">    4.94    5.04</time>
   <energy>
    <i name="alphaZ">     60.98589892 </i>
    <i name="ewald">   -592.55350491 </i>
    <i name="hartreedc">    -94.85759365 </i>
    <i name="XCdc">      4.28709518 </i>
    <i name="pawpsdc">    720.73554217 </i>
    <i name="pawaedc">   -729.78320460 </i>
    <i name="eentropy">     -0.00109167 </i>
    <i name="bandstr">     28.63286952 </i>
    <i name="atom">    594.31193140 </i>
    <i name="e_fr_energy">     -8.24205764 </i>
    <i name="e_wo_entrp">     -8.24096597 </i>
    <i name="e_0_energy">     -8.24169375 </i>
   </energy>
  </scstep>
  <structure>
   <crystal>
    <varray name="basis" >
     <v>      -1.41500639       1.41500639       1.41500639 </v>
     <v>       1.41500639      -1.41500639       1.41500639 </v>
     <v>       1.41500639       1.41500639      -1.41500639 </v>
    </varray>
    <i name="volume">     11.33274695 </i>
    <varray name="rec_basis" >
     <v>       0.00000000       0.35335530       0.35335530 </v>
     <v>       0.35335530       0.00000000       0.35335530 </v>
     <v>       0.35335530       0.35335530       0.00000000 </v>
    </varray>
   </crystal>
   <varray name="positions" >
    <v>       0.00000000       0.00000000       0.00000000 </v>
   </varray>
  </structure>
  <varray name="forces" >
   <v>      -0.00000000      -0.00000000       0.00000000 </v>
  </varray>
  <varray name="stress" >
   <v>      -3.51477293       0.00000000      -0.00000000 </v>
   <v>       0.00000000      -3.51477293      -0.00000000 </v>
   <v>      -0.00000000       0.00000000      -3.51477293 </v>
  </varray>
  <energy>
   <i name="e_fr_energy">     -8.24205764 </i>
   <i name="e_wo_entrp">     -8.24096597 </i>
   <i name="e_0_energy">     -8.24169375 </i>
  </energy>
  <time name="totalsc">   88.70   91.62</time>
  <eigenvalues>
   <array>
    <dimension dim="1">band</dimension>
    <dimension dim="2">kpoint</dimension>
    <dimension dim="3">spin</dimension>
    <field>eigene</field>
    <field>occ</field>
    <set>
     <set comment="spin 1">
      <set comment="kpoint 1">
       <r>   -2.5952    1.0000 </r>
       <r>    3.5497    1.0000 </r>
       <r>    3.5497    1.0000 </r>
       <r>    3.5497    1.0000 </r>
       <r>    4.7579    1.0000 </r>
       <r>    4.7579    1.0000 </r>
       <r>   30.8978    0.0000 </r>
       <r>   30.8978    0.0000 </r>
       <r>   30.8978    0.0000 </r>
       <r>   35.9955    0.0000 </r>
       <r>   35.9955    0.0000 </r>
       <r>   38.3180    0.0000 </r>
      </set>
      <set comment="kpoint 2">
       <r>   -2.5008    1.0000 </r>
       <r>    3.5237    1.0000 </r>
       <r>    3.5480    1.0000 </r>
       <r>    3.6004    1.0000 </r>
       <r>    4.7315    1.0000 </r>
       <r>    4.7599    1.0000 </r>
       <r>   30.2499    0.0000 </r>
       <r>   30.7637    0.0000 </r>
       <r>   30.8290    0.0000 </r>
       <r>   35.5461    0.0000 </r>
       <r>   36.2994    0.0000 </r>
       <r>   36.7484    0.0000 </r>
      </set>
      <set comment="kpoint 3">
       <r>   -2.2217    1.0000 </r>
       <r>    3.4488    1.0000 </r>
       <r>    3.5372    1.0000 </r>
       <r>    3.7503    1.0000 </r>
       <r>    4.6657    1.0000 </r>
       <r>    4.7665    1.0000 </r>
       <r>   28.6908    0.0000 </r>
       <r>   30.2924    0.0000 </r>
       <r>   30.6490    0.0000 </r>
       <r>   35.0457    0.0000 </r>
       <r>   35.0674    0.0000 </r>
       <r>   35.4767    0.0000 </r>
      </set>
      <set comment="kpoint 4">
       <r>   -1.7718    1.0000 </r>
       <r>    3.3328    1.0000 </r>
       <r>    3.5030    1.0000 </r>
       <r>    3.9908    1.0000 </r>
       <r>    4.5966    1.0000 </r>
       <r>    4.7784    1.0000 </r>
       <r>   26.6925    0.0000 </r>
       <r>   29.4594    0.0000 </r>
       <r>   30.4129    0.0000 </r>
       <r>   33.4067    0.0000 </r>
       <r>   34.5543    0.0000 </r>
       <r>   35.1230    0.0000 </r>
      </set>
      <set comment="kpoint 5">
       <r>   -1.1801    1.0000 </r>
       <r>    3.1878    1.0000 </r>
       <r>    3.4428    1.0000 </r>
       <r>    4.3078    1.0000 </r>
       <r>    4.5648    1.0000 </r>
       <r>    4.7963    1.0000 </r>
       <r>   24.5018    0.0000 </r>
       <r>   28.4288    0.0000 </r>
       <r>   30.1687    0.0000 </r>
       <r>   31.8536    0.0000 </r>
       <r>   33.9090    0.0000 </r>
       <r>   35.6761    0.0000 </r>
      </set>
      <set comment="kpoint 6">
       <r>   -0.5033    1.0000 </r>
       <r>    3.0277    1.0000 </r>
       <r>    3.4033    1.0000 </r>
       <r>    4.5873    1.0000 </r>
       <r>    4.6802    1.0000 </r>
       <r>    4.8203    1.0000 </r>
       <r>   22.2543    0.0000 </r>
       <r>   27.3770    0.0000 </r>
       <r>   29.9452    0.0000 </r>
       <r>   30.4127    0.0000 </r>
       <r>   33.4940    0.0000 </r>
       <r>   36.5907    0.0000 </r>
      </set>
      <set comment="kpoint 7">
       <r>    0.1501    1.0000 </r>
       <r>    2.8674    1.0000 </r>
       <r>    3.5013    1.0000 </r>
       <r>    4.6537    1.0000 </r>
       <r>    4.8493    1.0000 </r>
       <r>    5.0809    1.0000 </r>
       <r>   20.0368    0.0000 </r>
       <r>   26.4090    0.0000 </r>
       <r>   29.1154    0.0000 </r>
       <r>   29.7561    0.0000 </r>
       <r>   33.2584    0.0000 </r>
       <r>   37.7770    0.0000 </r>
      </set>
      <set comment="kpoint 8">
       <r>    0.6243    1.0000 </r>
       <r>    2.7208    1.0000 </r>
       <r>    3.8860    1.0000 </r>
       <r>    4.7520    1.0000 </r>
       <r>    4.8807    1.0000 </r>
       <r>    5.4757    1.0118 </r>
       <r>   17.9195    0.0000 </r>
       <r>   25.5835    0.0000 </r>
       <r>   27.9996    0.0000 </r>
       <r>   29.6059    0.0000 </r>
       <r>   33.1543    0.0000 </r>
       <r>   39.1801    0.0000 </r>
      </set>
      <set comment="kpoint 9">
       <r>    0.8489    1.0000 </r>
       <r>    2.5998    1.0000 </r>
       <r>    4.5028    1.0000 </r>
       <r>    4.9102    1.0000 </r>
       <r>    4.9557    1.0000 </r>
       <r>    5.8251    0.6050 </r>
       <r>   15.9845    0.0000 </r>
       <r>   24.9365    0.0000 </r>
       <r>   27.1071    0.0000 </r>
       <r>   29.4949    0.0000 </r>
       <r>   33.1355    0.0000 </r>
       <r>   40.5165    0.0000 </r>
      </set>
      <set comment="kpoint 10">
       <r>    0.9124    1.0000 </r>
       <r>    2.5137    1.0000 </r>
       <r>    4.7649    1.0000 </r>
       <r>    4.9334    1.0000 </r>
       <r>    5.6404    1.0295 </r>
       <r>    6.0884   -0.0353 </r>
       <r>   14.3734    0.0000 </r>
       <r>   24.4923    0.0000 </r>
       <r>   26.4808    0.0000 </r>
       <r>   29.4221    0.0000 </r>
       <r>   33.1567    0.0000 </r>
       <r>   40.4613    0.0000 </r>
      </set>
      <set comment="kpoint 11">
       <r>    0.9193    1.0000 </r>
       <r>    2.4690    1.0000 </r>
       <r>    4.8225    1.0000 </r>
       <r>    4.9462    1.0000 </r>
       <r>    6.2304   -0.0108 </r>
       <r>    6.2741   -0.0053 </r>
       <r>   13.3726    0.0000 </r>
       <r>   24.2663    0.0000 </r>
       <r>   26.1570    0.0000 </r>
       <r>   29.3861    0.0000 </r>
       <r>   33.1791    0.0000 </r>
       <r>   40.4120    0.0000 </r>
      </set>
      <set comment="kpoint 12">
       <r>   -2.3140    1.0000 </r>
       <r>    3.4903    1.0000 </r>
       <r>    3.5181    1.0000 </r>
       <r>    3.7077    1.0000 </r>
       <r>    4.6825    1.0000 </r>
       <r>    4.7668    1.0000 </r>
       <r>   29.3161    0.0000 </r>
       <r>   30.0196    0.0000 </r>
       <r>   31.0078    0.0000 </r>
       <r>   35.0033    0.0000 </r>
       <r>   35.1065    0.0000 </r>
       <r>   36.5151    0.0000 </r>
      </set>
      <set comment="kpoint 13">
       <r>   -1.9489    1.0000 </r>
       <r>    3.3987    1.0000 </r>
       <r>    3.4855    1.0000 </r>
       <r>    3.9099    1.0000 </r>
       <r>    4.6078    1.0000 </r>
       <r>    4.7822    1.0000 </r>
       <r>   27.6681    0.0000 </r>
       <r>   29.1214    0.0000 </r>
       <r>   30.9855    0.0000 </r>
       <r>   33.3813    0.0000 </r>
       <r>   34.8607    0.0000 </r>
       <r>   35.9086    0.0000 </r>
      </set>
      <set comment="kpoint 14">
       <r>   -1.4259    1.0000 </r>
       <r>    3.2660    1.0000 </r>
       <r>    3.4324    1.0000 </r>
       <r>    4.1957    1.0000 </r>
       <r>    4.5500    1.0000 </r>
       <r>    4.8042    1.0000 </r>
       <r>   25.6174    0.0000 </r>
       <r>   28.1766    0.0000 </r>
       <r>   30.7190    0.0000 </r>
       <r>   31.9614    0.0000 </r>
       <r>   35.0029    0.0000 </r>
       <r>   35.2474    0.0000 </r>
      </set>
      <set comment="kpoint 15">
       <r>   -0.7848    1.0000 </r>
       <r>    3.1112    1.0000 </r>
       <r>    3.3671    1.0000 </r>
       <r>    4.5280    1.0000 </r>
       <r>    4.5642    1.0000 </r>
       <r>    4.8319    1.0000 </r>
       <r>   23.4101    0.0000 </r>
       <r>   27.2119    0.0000 </r>
       <r>   30.0702    0.0000 </r>
       <r>   30.9724    0.0000 </r>
       <r>   34.4818    0.0000 </r>
       <r>   35.8146    0.0000 </r>
      </set>
      <set comment="kpoint 16">
       <r>   -0.1044    1.0000 </r>
       <r>    2.9497    1.0000 </r>
       <r>    3.3637    1.0000 </r>
       <r>    4.5859    1.0000 </r>
       <r>    4.8623    1.0000 </r>
       <r>    4.9568    1.0000 </r>
       <r>   21.1769    0.0000 </r>
       <r>   26.2886    0.0000 </r>
       <r>   28.9981    0.0000 </r>
       <r>   30.5304    0.0000 </r>
       <r>   34.0642    0.0000 </r>
       <r>   36.7541    0.0000 </r>
      </set>
      <set comment="kpoint 17">
       <r>    0.4762    1.0000 </r>
       <r>    2.7960    1.0000 </r>
       <r>    3.5574    1.0000 </r>
       <r>    4.6720    1.0000 </r>
       <r>    4.9015    1.0000 </r>
       <r>    5.3814    1.0023 </r>
       <r>   19.0021    0.0000 </r>
       <r>   25.4624    0.0000 </r>
       <r>   27.9268    0.0000 </r>
       <r>   30.2672    0.0000 </r>
       <r>   33.8193    0.0000 </r>
       <r>   37.8518    0.0000 </r>
      </set>
      <set comment="kpoint 18">
       <r>    0.8193    1.0000 </r>
       <r>    2.6627    1.0000 </r>
       <r>    4.0280    1.0000 </r>
       <r>    4.7814    1.0000 </r>
       <r>    4.9698    1.0000 </r>
       <r>    5.8098    0.6669 </r>
       <r>   16.9606    0.0000 </r>
       <r>   24.7766    0.0000 </r>
       <r>   27.0057    0.0000 </r>
       <r>   30.0816    0.0000 </r>
       <r>   33.7071    0.0000 </r>
       <r>   38.9177    0.0000 </r>
      </set>
      <set comment="kpoint 19">
       <r>    0.9435    1.0000 </r>
       <r>    2.5599    1.0000 </r>
       <r>    4.5212    1.0000 </r>
       <r>    4.8549    1.0000 </r>
       <r>    5.2348    1.0001 </r>
       <r>    6.2470   -0.0084 </r>
       <r>   15.1558    0.0000 </r>
       <r>   24.2633    0.0000 </r>
       <r>   26.2986    0.0000 </r>
       <r>   29.9554    0.0000 </r>
       <r>   33.6786    0.0000 </r>
       <r>   39.6390    0.0000 </r>
      </set>
      <set comment="kpoint 20">
       <r>    0.9659    1.0000 </r>
       <r>    2.4953    1.0000 </r>
       <r>    4.7359    1.0000 </r>
       <r>    4.8606    1.0000 </r>
       <r>    5.6570    1.0212 </r>
       <r>    6.7189   -0.0000 </r>
       <r>   13.7891    0.0000 </r>
       <r>   23.9458    0.0000 </r>
       <r>   25.8527    0.0000 </r>
       <r>   29.8817    0.0000 </r>
       <r>   33.6862    0.0000 </r>
       <r>   39.9207    0.0000 </r>
      </set>
      <set comment="kpoint 21">
       <r>    0.9655    1.0000 </r>
       <r>    2.4732    1.0000 </r>
       <r>    4.8215    1.0000 </r>
       <r>    4.8259    1.0000 </r>
       <r>    5.8197    0.6272 </r>
       <r>    6.9802   -0.0000 </r>
       <r>   13.2411    0.0000 </r>
       <r>   23.8384    0.0000 </r>
       <r>   25.7002    0.0000 </r>
       <r>   29.8575    0.0000 </r>
       <r>   33.6933    0.0000 </r>
       <r>   39.9802    0.0000 </r>
      </set>
      <set comment="kpoint 22">
       <r>   -1.5091    1.0000 </r>
       <r>    3.3241    1.0000 </r>
       <r>    3.3880    1.0000 </r>
       <r>    4.1704    1.0000 </r>
       <r>    4.5358    1.0000 </r>
       <r>    4.8148    1.0000 </r>
       <r>   26.3650    0.0000 </r>
       <r>   27.5614    0.0000 </r>
       <r>   31.2265    0.0000 </r>
       <r>   31.7467    0.0000 </r>
       <r>   34.7357    0.0000 </r>
       <r>   36.3739    0.0000 </r>
      </set>
      <set comment="kpoint 23">
       <r>   -0.9299    1.0000 </r>
       <r>    3.1944    1.0000 </r>
       <r>    3.2933    1.0000 </r>
       <r>    4.4889    1.0000 </r>
       <r>    4.5165    1.0000 </r>
       <r>    4.8559    1.0000 </r>
       <r>   24.5319    0.0000 </r>
       <r>   26.2883    0.0000 </r>
       <r>   30.2915    0.0000 </r>
       <r>   31.2666    0.0000 </r>
       <r>   34.9233    0.0000 </r>
       <r>   36.3392    0.0000 </r>
      </set>
      <set comment="kpoint 24">
       <r>   -0.2657    1.0000 </r>
       <r>    3.0344    1.0000 </r>
       <r>    3.2249    1.0000 </r>
       <r>    4.5055    1.0000 </r>
       <r>    4.8737    1.0000 </r>
       <r>    4.9472    1.0000 </r>
       <r>   22.3876    0.0000 </r>
       <r>   25.2924    0.0000 </r>
       <r>   29.0147    0.0000 </r>
       <r>   31.1483    0.0000 </r>
       <r>   35.2727    0.0000 </r>
       <r>   36.2468    0.0000 </r>
      </set>
      <set comment="kpoint 25">
       <r>    0.3784    1.0000 </r>
       <r>    2.8748    1.0000 </r>
       <r>    3.2577    1.0000 </r>
       <r>    4.5701    1.0000 </r>
       <r>    4.9371    1.0000 </r>
       <r>    5.3932    1.0029 </r>
       <r>   20.1970    0.0000 </r>
       <r>   24.4452    0.0000 </r>
       <r>   27.8892    0.0000 </r>
       <r>   30.9873    0.0000 </r>
       <r>   35.3203    0.0000 </r>
       <r>   36.6976    0.0000 </r>
      </set>
      <set comment="kpoint 26">
       <r>    0.8439    1.0000 </r>
       <r>    2.7345    1.0000 </r>
       <r>    3.5039    1.0000 </r>
       <r>    4.6701    1.0000 </r>
       <r>    4.9972    1.0000 </r>
       <r>    5.9048    0.2780 </r>
       <r>   18.0795    0.0000 </r>
       <r>   23.7313    0.0000 </r>
       <r>   26.9317    0.0000 </r>
       <r>   30.8368    0.0000 </r>
       <r>   35.2097    0.0000 </r>
       <r>   37.4774    0.0000 </r>
      </set>
      <set comment="kpoint 27">
       <r>    1.0535    1.0000 </r>
       <r>    2.6224    1.0000 </r>
       <r>    3.9298    1.0000 </r>
       <r>    4.7673    1.0000 </r>
       <r>    5.1208    1.0000 </r>
       <r>    6.4797   -0.0000 </r>
       <r>   16.1266    0.0000 </r>
       <r>   23.1659    0.0000 </r>
       <r>   26.1716    0.0000 </r>
       <r>   30.7174    0.0000 </r>
       <r>   35.1421    0.0000 </r>
       <r>   38.2279    0.0000 </r>
      </set>
      <set comment="kpoint 28">
       <r>    1.1025    1.0000 </r>
       <r>    2.5440    1.0000 </r>
       <r>    4.2888    1.0000 </r>
       <r>    4.8083    1.0000 </r>
       <r>    5.3496    1.0011 </r>
       <r>    7.1265   -0.0000 </r>
       <r>   14.4759    0.0000 </r>
       <r>   22.7710    0.0000 </r>
       <r>   25.6415    0.0000 </r>
       <r>   30.6361    0.0000 </r>
       <r>   35.1264    0.0000 </r>
       <r>   38.7648    0.0000 </r>
      </set>
      <set comment="kpoint 29">
       <r>    1.1018    1.0000 </r>
       <r>    2.5036    1.0000 </r>
       <r>    4.4605    1.0000 </r>
       <r>    4.8076    1.0000 </r>
       <r>    5.5371    1.0247 </r>
       <r>    7.6676   -0.0000 </r>
       <r>   13.4222    0.0000 </r>
       <r>   22.5672    0.0000 </r>
       <r>   25.3689    0.0000 </r>
       <r>   30.5950    0.0000 </r>
       <r>   35.1314    0.0000 </r>
       <r>   39.0232    0.0000 </r>
      </set>
      <set comment="kpoint 30">
       <r>   -0.3208    1.0000 </r>
       <r>    3.1146    1.0000 </r>
       <r>    3.1251    1.0000 </r>
       <r>    4.4715    1.0000 </r>
       <r>    4.8713    1.0000 </r>
       <r>    4.9603    1.0000 </r>
       <r>   23.2781    0.0000 </r>
       <r>   24.4083    0.0000 </r>
       <r>   29.0585    0.0000 </r>
       <r>   31.4261    0.0000 </r>
       <r>   34.9613    0.0000 </r>
       <r>   37.3521    0.0000 </r>
      </set>
      <set comment="kpoint 31">
       <r>    0.3304    1.0000 </r>
       <r>    2.9346    1.0000 </r>
       <r>    3.0839    1.0000 </r>
       <r>    4.4992    1.0000 </r>
       <r>    4.9559    1.0000 </r>
       <r>    5.4198    1.0048 </r>
       <r>   21.4253    0.0000 </r>
       <r>   23.1622    0.0000 </r>
       <r>   27.9635    0.0000 </r>
       <r>   31.4669    0.0000 </r>
       <r>   35.2551    0.0000 </r>
       <r>   37.7952    0.0000 </r>
      </set>
      <set comment="kpoint 32">
       <r>    0.8931    1.0000 </r>
       <r>    2.7814    1.0000 </r>
       <r>    3.1511    1.0000 </r>
       <r>    4.5733    1.0000 </r>
       <r>    5.0136    1.0000 </r>
       <r>    5.9883    0.0433 </r>
       <r>   19.3172    0.0000 </r>
       <r>   22.3260    0.0000 </r>
       <r>   27.0237    0.0000 </r>
       <r>   31.4266    0.0000 </r>
       <r>   35.7191    0.0000 </r>
       <r>   37.8919    0.0000 </r>
      </set>
      <set comment="kpoint 33">
       <r>    1.2181    1.0000 </r>
       <r>    2.6691    1.0000 </r>
       <r>    3.3997    1.0000 </r>
       <r>    4.6736    1.0000 </r>
       <r>    5.0898    1.0000 </r>
       <r>    6.6535   -0.0000 </r>
       <r>   17.2695    0.0000 </r>
       <r>   21.6780    0.0000 </r>
       <r>   26.2545    0.0000 </r>
       <r>   31.3642    0.0000 </r>
       <r>   36.2294    0.0000 </r>
       <r>   37.9355    0.0000 </r>
      </set>
      <set comment="kpoint 34">
       <r>    1.3161    1.0000 </r>
       <r>    2.5913    1.0000 </r>
       <r>    3.7313    1.0000 </r>
       <r>    4.7559    1.0000 </r>
       <r>    5.2179    1.0000 </r>
       <r>    7.4268   -0.0000 </r>
       <r>   15.4152    0.0000 </r>
       <r>   21.1978    0.0000 </r>
       <r>   25.6801    0.0000 </r>
       <r>   31.3100    0.0000 </r>
       <r>   36.6894    0.0000 </r>
       <r>   37.9845    0.0000 </r>
      </set>
      <set comment="kpoint 35">
       <r>    1.3188    1.0000 </r>
       <r>    2.5442    1.0000 </r>
       <r>    3.9671    1.0000 </r>
       <r>    4.7907    1.0000 </r>
       <r>    5.3681    1.0017 </r>
       <r>    8.2152   -0.0000 </r>
       <r>   13.9494    0.0000 </r>
       <r>   20.8989    0.0000 </r>
       <r>   25.3242    0.0000 </r>
       <r>   31.2753    0.0000 </r>
       <r>   37.0291    0.0000 </r>
       <r>   38.0065    0.0000 </r>
      </set>
      <set comment="kpoint 36">
       <r>    1.3117    1.0000 </r>
       <r>    2.5282    1.0000 </r>
       <r>    4.0466    1.0000 </r>
       <r>    4.7973    1.0000 </r>
       <r>    5.4351    1.0062 </r>
       <r>    8.6122   -0.0000 </r>
       <r>   13.3243    0.0000 </r>
       <r>   20.7970    0.0000 </r>
       <r>   25.2036    0.0000 </r>
       <r>   31.2635    0.0000 </r>
       <r>   37.1632    0.0000 </r>
       <r>   38.0030    0.0000 </r>
      </set>
      <set comment="kpoint 37">
       <r>    0.9189    1.0000 </r>
       <r>    2.7815    1.0000 </r>
       <r>    3.0421    1.0000 </r>
       <r>    4.5340    1.0000 </r>
       <r>    5.0191    1.0000 </r>
       <r>    6.0195   -0.0011 </r>
       <r>   20.3269    0.0000 </r>
       <r>   21.2369    0.0000 </r>
       <r>   27.0711    0.0000 </r>
       <r>   31.7029    0.0000 </r>
       <r>   35.3320    0.0000 </r>
       <r>   39.2733    0.0000 </r>
      </set>
      <set comment="kpoint 38">
       <r>    1.3645    1.0000 </r>
       <r>    2.6525    1.0000 </r>
       <r>    3.1143    1.0000 </r>
       <r>    4.6086    1.0000 </r>
       <r>    5.0808    1.0000 </r>
       <r>    6.7440   -0.0000 </r>
       <r>   18.5188    0.0000 </r>
       <r>   20.2091    0.0000 </r>
       <r>   26.3318    0.0000 </r>
       <r>   31.8457    0.0000 </r>
       <r>   35.6166    0.0000 </r>
       <r>   39.9126    0.0000 </r>
      </set>
      <set comment="kpoint 39">
       <r>    1.5643    1.0000 </r>
       <r>    2.5877    1.0000 </r>
       <r>    3.2984    1.0000 </r>
       <r>    4.7029    1.0000 </r>
       <r>    5.1565    1.0000 </r>
       <r>    7.6062   -0.0000 </r>
       <r>   16.5659    0.0000 </r>
       <r>   19.6073    0.0000 </r>
       <r>   25.7550    0.0000 </r>
       <r>   31.9197    0.0000 </r>
       <r>   36.0587    0.0000 </r>
       <r>   39.9066    0.0000 </r>
      </set>
      <set comment="kpoint 40">
       <r>    1.5936    1.0000 </r>
       <r>    2.5615    1.0000 </r>
       <r>    3.4979    1.0000 </r>
       <r>    4.7774    1.0000 </r>
       <r>    5.2535    1.0001 </r>
       <r>    8.5715   -0.0000 </r>
       <r>   14.8195    0.0000 </r>
       <r>   19.2081    0.0000 </r>
       <r>   25.3575    0.0000 </r>
       <r>   31.9539    0.0000 </r>
       <r>   36.5510    0.0000 </r>
       <r>   39.6961    0.0000 </r>
      </set>
      <set comment="kpoint 41">
       <r>    1.5795    1.0000 </r>
       <r>    2.5508    1.0000 </r>
       <r>    3.6125    1.0000 </r>
       <r>    4.8113    1.0000 </r>
       <r>    5.3302    1.0007 </r>
       <r>    9.3939   -0.0000 </r>
       <r>   13.5967    0.0000 </r>
       <r>   19.0043    0.0000 </r>
       <r>   25.1544    0.0000 </r>
       <r>   31.9669    0.0000 </r>
       <r>   36.9135    0.0000 </r>
       <r>   39.4832    0.0000 </r>
      </set>
      <set comment="kpoint 42">
       <r>    1.7028    1.0000 </r>
       <r>    2.5408    1.0000 </r>
       <r>    3.1450    1.0000 </r>
       <r>    4.6797    1.0000 </r>
       <r>    5.1383    1.0000 </r>
       <r>    7.6654   -0.0000 </r>
       <r>   17.5691    0.0000 </r>
       <r>   18.4515    0.0000 </r>
       <r>   25.7867    0.0000 </r>
       <r>   32.2203    0.0000 </r>
       <r>   35.6062    0.0000 </r>
       <r>   41.8586    0.0000 </r>
      </set>
      <set comment="kpoint 43">
       <r>    1.8496    1.0000 </r>
       <r>    2.5125    1.0000 </r>
       <r>    3.2014    1.0000 </r>
       <r>    4.7710    1.0000 </r>
       <r>    5.1898    1.0000 </r>
       <r>    8.7399   -0.0000 </r>
       <r>   15.9197    0.0000 </r>
       <r>   17.6950    0.0000 </r>
       <r>   25.3885    0.0000 </r>
       <r>   32.5097    0.0000 </r>
       <r>   35.7303    0.0000 </r>
       <r>   42.1179    0.0000 </r>
      </set>
      <set comment="kpoint 44">
       <r>    1.8660    1.0000 </r>
       <r>    2.5424    1.0000 </r>
       <r>    3.2460    1.0000 </r>
       <r>    4.8449    1.0000 </r>
       <r>    5.2339    1.0001 </r>
       <r>    9.8685   -0.0000 </r>
       <r>   14.3065    0.0000 </r>
       <r>   17.3589    0.0000 </r>
       <r>   25.1448    0.0000 </r>
       <r>   32.6854    0.0000 </r>
       <r>   35.9114    0.0000 </r>
       <r>   41.7162    0.0000 </r>
      </set>
      <set comment="kpoint 45">
       <r>    1.8592    1.0000 </r>
       <r>    2.5600    1.0000 </r>
       <r>    3.2617    1.0000 </r>
       <r>    4.8720    1.0000 </r>
       <r>    5.2529    1.0001 </r>
       <r>   10.5224   -0.0000 </r>
       <r>   13.4837    0.0000 </r>
       <r>   17.2506    0.0000 </r>
       <r>   25.0627    0.0000 </r>
       <r>   32.7430    0.0000 </r>
       <r>   36.0007    0.0000 </r>
       <r>   41.5247    0.0000 </r>
      </set>
      <set comment="kpoint 46">
       <r>    2.0294    1.0000 </r>
       <r>    2.5052    1.0000 </r>
       <r>    3.0902    1.0000 </r>
       <r>    4.8669    1.0000 </r>
       <r>    5.1891    1.0000 </r>
       <r>   10.0167   -0.0000 </r>
       <r>   15.0137    0.0000 </r>
       <r>   16.3477    0.0000 </r>
       <r>   25.1445    0.0000 </r>
       <r>   33.0822    0.0000 </r>
       <r>   35.4104    0.0000 </r>
       <r>   42.6160    0.0000 </r>
      </set>
      <set comment="kpoint 47">
       <r>    2.0858    1.0000 </r>
       <r>    2.5786    1.0000 </r>
       <r>    2.9839    1.0000 </r>
       <r>    4.9490    1.0000 </r>
       <r>    5.1668    1.0000 </r>
       <r>   11.2707   -0.0000 </r>
       <r>   13.7136    0.0000 </r>
       <r>   15.8971    0.0000 </r>
       <r>   25.0222    0.0000 </r>
       <r>   33.4946    0.0000 </r>
       <r>   35.1624    0.0000 </r>
       <r>   42.2199    0.0000 </r>
      </set>
      <set comment="kpoint 48">
       <r>    2.1686    1.0000 </r>
       <r>    2.7381    1.0000 </r>
       <r>    2.7381    1.0000 </r>
       <r>    5.0652    1.0000 </r>
       <r>    5.0652    1.0000 </r>
       <r>   12.6625    0.0000 </r>
       <r>   12.6625    0.0000 </r>
       <r>   15.3367    0.0000 </r>
       <r>   24.9821    0.0000 </r>
       <r>   34.3398    0.0000 </r>
       <r>   34.3398    0.0000 </r>
       <r>   42.1304    0.0000 </r>
      </set>
      <set comment="kpoint 49">
       <r>   -2.0390    1.0000 </r>
       <r>    3.4325    1.0000 </r>
       <r>    3.4325    1.0000 </r>
       <r>    3.9032    1.0000 </r>
       <r>    4.7059    1.0000 </r>
       <r>    4.7059    1.0000 </r>
       <r>   28.5169    0.0000 </r>
       <r>   28.5169    0.0000 </r>
       <r>   31.4067    0.0000 </r>
       <r>   33.0557    0.0000 </r>
       <r>   36.3436    0.0000 </r>
       <r>   36.3436    0.0000 </r>
      </set>
      <set comment="kpoint 50">
       <r>   -1.5953    1.0000 </r>
       <r>    3.3055    1.0000 </r>
       <r>    3.3685    1.0000 </r>
       <r>    4.1752    1.0000 </r>
       <r>    4.6395    1.0000 </r>
       <r>    4.7381    1.0000 </r>
       <r>   26.6406    0.0000 </r>
       <r>   27.6214    0.0000 </r>
       <r>   31.2872    0.0000 </r>
       <r>   31.6480    0.0000 </r>
       <r>   36.1063    0.0000 </r>
       <r>   36.7635    0.0000 </r>
      </set>
      <set comment="kpoint 51">
       <r>   -1.0104    1.0000 </r>
       <r>    3.1530    1.0000 </r>
       <r>    3.2891    1.0000 </r>
       <r>    4.5182    1.0000 </r>
       <r>    4.6046    1.0000 </r>
       <r>    4.7742    1.0000 </r>
       <r>   24.5393    0.0000 </r>
       <r>   26.7063    0.0000 </r>
       <r>   29.7831    0.0000 </r>
       <r>   31.6606    0.0000 </r>
       <r>   36.1021    0.0000 </r>
       <r>   36.3115    0.0000 </r>
      </set>
      <set comment="kpoint 52">
       <r>   -0.3386    1.0000 </r>
       <r>    2.9908    1.0000 </r>
       <r>    3.2283    1.0000 </r>
       <r>    4.6106    1.0000 </r>
       <r>    4.8116    1.0000 </r>
       <r>    4.9291    1.0000 </r>
       <r>   22.3363    0.0000 </r>
       <r>   25.8227    0.0000 </r>
       <r>   28.4967    0.0000 </r>
       <r>   31.4928    0.0000 </r>
       <r>   35.5335    0.0000 </r>
       <r>   36.9976    0.0000 </r>
      </set>
      <set comment="kpoint 53">
       <r>    0.3132    1.0000 </r>
       <r>    2.8326    1.0000 </r>
       <r>    3.2860    1.0000 </r>
       <r>    4.6601    1.0000 </r>
       <r>    4.8486    1.0000 </r>
       <r>    5.3841    1.0024 </r>
       <r>   20.1353    0.0000 </r>
       <r>   25.0139    0.0000 </r>
       <r>   27.3841    0.0000 </r>
       <r>   31.2574    0.0000 </r>
       <r>   35.1256    0.0000 </r>
       <r>   38.0577    0.0000 </r>
      </set>
      <set comment="kpoint 54">
       <r>    0.7836    1.0000 </r>
       <r>    2.6907    1.0000 </r>
       <r>    3.6016    1.0000 </r>
       <r>    4.7309    1.0000 </r>
       <r>    4.8837    1.0000 </r>
       <r>    5.8768    0.3882 </r>
       <r>   18.0194    0.0000 </r>
       <r>   24.3179    0.0000 </r>
       <r>   26.4380    0.0000 </r>
       <r>   31.0330    0.0000 </r>
       <r>   34.8708    0.0000 </r>
       <r>   39.3908    0.0000 </r>
      </set>
      <set comment="kpoint 55">
       <r>    0.9961    1.0000 </r>
       <r>    2.5751    1.0000 </r>
       <r>    4.1743    1.0000 </r>
       <r>    4.8089    1.0000 </r>
       <r>    4.9142    1.0000 </r>
       <r>    6.4126   -0.0003 </r>
       <r>   16.0743    0.0000 </r>
       <r>   23.7664    0.0000 </r>
       <r>   25.6796    0.0000 </r>
       <r>   30.8541    0.0000 </r>
       <r>   34.7379    0.0000 </r>
       <r>   40.7125    0.0000 </r>
      </set>
      <set comment="kpoint 56">
       <r>    1.0476    1.0000 </r>
       <r>    2.4936    1.0000 </r>
       <r>    4.7076    1.0000 </r>
       <r>    4.9297    1.0000 </r>
       <r>    4.9371    1.0000 </r>
       <r>    6.9982   -0.0000 </r>
       <r>   14.4394    0.0000 </r>
       <r>   23.3844    0.0000 </r>
       <r>   25.1442    0.0000 </r>
       <r>   30.7327    0.0000 </r>
       <r>   34.6850    0.0000 </r>
       <r>   40.6555    0.0000 </r>
      </set>
      <set comment="kpoint 57">
       <r>    1.0485    1.0000 </r>
       <r>    2.4516    1.0000 </r>
       <r>    4.8369    1.0000 </r>
       <r>    4.9493    1.0000 </r>
       <r>    5.1813    1.0000 </r>
       <r>    7.4857   -0.0000 </r>
       <r>   13.4060    0.0000 </r>
       <r>   23.1890    0.0000 </r>
       <r>   24.8660    0.0000 </r>
       <r>   30.6717    0.0000 </r>
       <r>   34.6714    0.0000 </r>
       <r>   40.6032    0.0000 </r>
      </set>
      <set comment="kpoint 58">
       <r>   -2.4070    1.0000 </r>
       <r>    3.5485    1.0000 </r>
       <r>    3.5485    1.0000 </r>
       <r>    3.6012    1.0000 </r>
       <r>    4.6737    1.0000 </r>
       <r>    4.7911    1.0000 </r>
       <r>   29.7510    0.0000 </r>
       <r>   30.7114    0.0000 </r>
       <r>   30.7114    0.0000 </r>
       <r>   34.4529    0.0000 </r>
       <r>   36.3785    0.0000 </r>
       <r>   36.3785    0.0000 </r>
      </set>
      <set comment="kpoint 59">
       <r>   -1.0872    1.0000 </r>
       <r>    3.1937    1.0000 </r>
       <r>    3.2297    1.0000 </r>
       <r>    4.5172    1.0000 </r>
       <r>    4.6255    1.0000 </r>
       <r>    4.7540    1.0000 </r>
       <r>   25.3725    0.0000 </r>
       <r>   26.0832    0.0000 </r>
       <r>   29.4653    0.0000 </r>
       <r>   32.1475    0.0000 </r>
       <r>   36.5340    0.0000 </r>
       <r>   37.4493    0.0000 </r>
      </set>
      <set comment="kpoint 60">
       <r>   -0.4607    1.0000 </r>
       <r>    3.0407    1.0000 </r>
       <r>    3.1170    1.0000 </r>
       <r>    4.6121    1.0000 </r>
       <r>    4.8015    1.0000 </r>
       <r>    4.9310    1.0000 </r>
       <r>   23.4882    0.0000 </r>
       <r>   24.9803    0.0000 </r>
       <r>   27.9933    0.0000 </r>
       <r>   32.3931    0.0000 </r>
       <r>   36.7295    0.0000 </r>
       <r>   37.3072    0.0000 </r>
      </set>
      <set comment="kpoint 61">
       <r>    0.2115    1.0000 </r>
       <r>    2.8785    1.0000 </r>
       <r>    3.0648    1.0000 </r>
       <r>    4.6350    1.0000 </r>
       <r>    4.8499    1.0000 </r>
       <r>    5.4089    1.0039 </r>
       <r>   21.3509    0.0000 </r>
       <r>   24.1054    0.0000 </r>
       <r>   26.8018    0.0000 </r>
       <r>   32.3860    0.0000 </r>
       <r>   36.7848    0.0000 </r>
       <r>   37.4971    0.0000 </r>
      </set>
      <set comment="kpoint 62">
       <r>    0.7898    1.0000 </r>
       <r>    2.7307    1.0000 </r>
       <r>    3.1768    1.0000 </r>
       <r>    4.6889    1.0000 </r>
       <r>    4.8935    1.0000 </r>
       <r>    5.9488    0.1335 </r>
       <r>   19.2029    0.0000 </r>
       <r>   23.3625    0.0000 </r>
       <r>   25.8228    0.0000 </r>
       <r>   32.2412    0.0000 </r>
       <r>   36.5328    0.0000 </r>
       <r>   38.3700    0.0000 </r>
      </set>
      <set comment="kpoint 63">
       <r>    1.1173    1.0000 </r>
       <r>    2.6079    1.0000 </r>
       <r>    3.5534    1.0000 </r>
       <r>    4.7577    1.0000 </r>
       <r>    4.9336    1.0000 </r>
       <r>    6.5585   -0.0000 </r>
       <r>   17.1571    0.0000 </r>
       <r>   22.7560    0.0000 </r>
       <r>   25.0345    0.0000 </r>
       <r>   32.0679    0.0000 </r>
       <r>   36.3545    0.0000 </r>
       <r>   39.3372    0.0000 </r>
      </set>
      <set comment="kpoint 64">
       <r>    1.2153    1.0000 </r>
       <r>    2.5160    1.0000 </r>
       <r>    4.0663    1.0000 </r>
       <r>    4.8202    1.0000 </r>
       <r>    4.9810    1.0000 </r>
       <r>    7.2493   -0.0000 </r>
       <r>   15.3222    0.0000 </r>
       <r>   22.3031    0.0000 </r>
       <r>   24.4468    0.0000 </r>
       <r>   31.9230    0.0000 </r>
[...]
       </set>
       <set comment="band 5">
        <r>  0.0008  0.0002  0.0007  0.0027  0.0234  0.6700  0.0004  0.2845  0.0035 </r>
       </set>
       <set comment="band 6">
        <r>  0.1052  0.0262  0.0038  0.4551  0.0187  0.0014  0.0419  0.0062  0.1686 </r>
       </set>
       <set comment="band 7">
        <r>  0.0731  0.5238  0.0118  0.0010  0.1163  0.0030  0.0446  0.0012  0.0406 </r>
       </set>
       <set comment="band 8">
        <r>  0.0367  0.0042  0.6074  0.0000  0.0016  0.0239  0.0231  0.1022  0.0000 </r>
       </set>
       <set comment="band 9">
        <r>  0.0222  0.0137  0.0255  0.0000  0.0055  0.0002  0.7179  0.0032  0.0605 </r>
       </set>
       <set comment="band 10">
        <r>  0.0756  0.0541  0.0059  0.0085  0.0012  0.0008  0.0313  0.0000  0.5964 </r>
       </set>
       <set comment="band 11">
        <r>  0.4257  0.0476  0.0119  0.2158  0.0066  0.0001  0.0378  0.0013  0.0562 </r>
       </set>
       <set comment="band 12">
        <r>  0.0113  0.0106  0.0342  0.0027  0.0611  0.3880  0.0002  0.1712  0.0002 </r>
       </set>
      </set>
      <set comment="kpoint 276">
       <set comment="band 1">
        <r>  0.0024  0.0091  0.0038  0.0090  0.0114  0.0002  0.8170  0.0002  0.0000 </r>
       </set>
       <set comment="band 2">
        <r>  0.0000  0.0255  0.0000  0.0256  0.0000  0.0007  0.0000  0.0007  0.7951 </r>
       </set>
       <set comment="band 3">
        <r>  0.0092  0.0076  0.0223  0.0076  0.2385  0.3346  0.0030  0.3346  0.0000 </r>
       </set>
       <set comment="band 4">
        <r>  0.0050  0.0106  0.0110  0.0106  0.6536  0.1285  0.0198  0.1285  0.0000 </r>
       </set>
       <set comment="band 5">
        <r>  0.0000  0.0019  0.0000  0.0019  0.0000  0.4902  0.0000  0.4902  0.0037 </r>
       </set>
       <set comment="band 6">
        <r>  0.0000  0.3018  0.0000  0.3018  0.0000  0.0052  0.0000  0.0052  0.2051 </r>
       </set>
       <set comment="band 7">
        <r>  0.1803  0.2058  0.0123  0.2058  0.1297  0.0005  0.0840  0.0005  0.0000 </r>
       </set>
       <set comment="band 8">
        <r>  0.0356  0.0006  0.6193  0.0006  0.0009  0.0572  0.0230  0.0572  0.0000 </r>
       </set>
       <set comment="band 9">
        <r>  0.0437  0.0020  0.0286  0.0020  0.0046  0.0013  0.7557  0.0013  0.0000 </r>
       </set>
       <set comment="band 10">
        <r>  0.0000  0.0435  0.0000  0.0435  0.0000  0.0006  0.0000  0.0006  0.7111 </r>
       </set>
       <set comment="band 11">
        <r>  0.4809  0.1283  0.0134  0.1283  0.0097  0.0005  0.0331  0.0005  0.0000 </r>
       </set>
       <set comment="band 12">
        <r>  0.0128  0.0058  0.0387  0.0058  0.0589  0.2740  0.0003  0.2740  0.0000 </r>
       </set>
      </set>
      <set comment="kpoint 277">
       <set comment="band 1">
        <r>  0.0008  0.0037  0.0037  0.0346  0.0012  0.0015  0.2019  0.0012  0.6001 </r>
       </set>
       <set comment="band 2">
        <r>  0.0000  0.0116  0.0116  0.0000  0.0031  0.0000  0.6159  0.0031  0.2071 </r>
       </set>
       <set comment="band 3">
        <r>  0.0118  0.0144  0.0144  0.0092  0.3069  0.2923  0.0002  0.3068  0.0006 </r>
       </set>
       <set comment="band 4">
        <r>  0.0000  0.0121  0.0121  0.0000  0.4693  0.0000  0.0096  0.4693  0.0032 </r>
       </set>
       <set comment="band 5">
        <r>  0.0005  0.0007  0.0007  0.0086  0.1512  0.6620  0.0022  0.1513  0.0065 </r>
       </set>
       <set comment="band 6">
        <r>  0.0465  0.0303  0.0303  0.5011  0.0160  0.0067  0.0425  0.0160  0.1274 </r>
       </set>
       <set comment="band 7">
        <r>  0.0000  0.3057  0.3057  0.0000  0.0347  0.0000  0.1001  0.0347  0.0334 </r>
       </set>
       <set comment="band 8">
        <r>  0.1699  0.2347  0.2347  0.0145  0.0409  0.0461  0.0026  0.0409  0.0078 </r>
       </set>
       <set comment="band 9">
        <r>  0.0000  0.0339  0.0339  0.0000  0.0038  0.0000  0.5754  0.0038  0.1918 </r>
       </set>
       <set comment="band 10">
        <r>  0.0172  0.0202  0.0202  0.0347  0.0002  0.0027  0.1793  0.0002  0.5378 </r>
       </set>
       <set comment="band 11">
        <r>  0.5126  0.0575  0.0575  0.1374  0.0036  0.0010  0.0040  0.0036  0.0121 </r>
       </set>
       <set comment="band 12">
        <r>  0.0207  0.0194  0.0195  0.0095  0.1599  0.2649  0.0000  0.1599  0.0001 </r>
       </set>
      </set>
      <set comment="kpoint 278">
       <set comment="band 1">
        <r>  0.0199  0.0000  0.0000  0.0961  0.0000  0.0000  0.1800  0.0000  0.5395 </r>
       </set>
       <set comment="band 2">
        <r>  0.0000  0.0000  0.0000  0.0000  0.0000  0.0000  0.6432  0.0000  0.2146 </r>
       </set>
       <set comment="band 3">
        <r>  0.0000  0.0442  0.0000  0.0000  0.9179  0.0000  0.0000  0.0000  0.0000 </r>
       </set>
       <set comment="band 4">
        <r>  0.0000  0.0000  0.0442  0.0000  0.0000  0.0000  0.0000  0.9179  0.0000 </r>
       </set>
       <set comment="band 5">
        <r>  0.0000  0.0000  0.0000  0.0000  0.0000  0.9827  0.0000  0.0000  0.0000 </r>
       </set>
       <set comment="band 6">
        <r>  0.1723  0.0000  0.0000  0.3967  0.0000  0.0000  0.0672  0.0000  0.2016 </r>
       </set>
       <set comment="band 7">
        <r>  0.0000  0.6333  0.0144  0.0000  0.1562  0.0000  0.0000  0.0036  0.0000 </r>
       </set>
       <set comment="band 8">
        <r>  0.0000  0.0144  0.6333  0.0000  0.0036  0.0000  0.0000  0.1562  0.0000 </r>
       </set>
       <set comment="band 9">
        <r>  0.0000  0.0000  0.0000  0.0000  0.0000  0.0000  0.6614  0.0000  0.2205 </r>
       </set>
       <set comment="band 10">
        <r>  0.2308  0.0000  0.0000  0.0022  0.0000  0.0000  0.1229  0.0000  0.3688 </r>
       </set>
       <set comment="band 11">
        <r>  0.3375  0.0000  0.0000  0.2691  0.0000  0.0000  0.0531  0.0000  0.1593 </r>
       </set>
       <set comment="band 12">
        <r>  0.0000  0.0000  0.0000  0.0000  0.0000  0.6396  0.0000  0.0000  0.0000 </r>
       </set>
      </set>
      <set comment="kpoint 279">
       <set comment="band 1">
        <r>  0.0075  0.0008  0.0000  0.0618  0.0008  0.0000  0.2153  0.0000  0.5573 </r>
       </set>
       <set comment="band 2">
        <r>  0.0000  0.0031  0.0000  0.0001  0.0015  0.0000  0.6164  0.0000  0.2347 </r>
       </set>
       <set comment="band 3">
        <r>  0.0000  0.0000  0.0348  0.0000  0.0000  0.1695  0.0000  0.7624  0.0000 </r>
       </set>
       <set comment="band 4">
        <r>  0.0027  0.0349  0.0000  0.0023  0.9214  0.0000  0.0045  0.0000  0.0001 </r>
       </set>
       <set comment="band 5">
        <r>  0.0000  0.0000  0.0017  0.0000  0.0000  0.8126  0.0000  0.1711  0.0000 </r>
       </set>
       <set comment="band 6">
        <r>  0.1328  0.0057  0.0000  0.4700  0.0062  0.0000  0.0481  0.0000  0.1562 </r>
       </set>
       <set comment="band 7">
        <r>  0.0249  0.6272  0.0000  0.0000  0.1142  0.0000  0.0131  0.0000  0.0175 </r>
       </set>
       <set comment="band 8">
        <r>  0.0000  0.0000  0.6722  0.0000  0.0000  0.0058  0.0000  0.1118  0.0000 </r>
       </set>
       <set comment="band 9">
        <r>  0.0055  0.0112  0.0000  0.0000  0.0025  0.0000  0.7191  0.0000  0.1488 </r>
       </set>
       <set comment="band 10">
        <r>  0.1451  0.0178  0.0000  0.0028  0.0005  0.0000  0.0910  0.0000  0.5212 </r>
       </set>
       <set comment="band 11">
        <r>  0.4479  0.0116  0.0000  0.2198  0.0018  0.0000  0.0365  0.0000  0.0889 </r>
       </set>
       <set comment="band 12">
        <r>  0.0000  0.0000  0.0147  0.0000  0.0000  0.4634  0.0000  0.0665  0.0000 </r>
       </set>
      </set>
      <set comment="kpoint 280">
       <set comment="band 1">
        <r>  0.0017  0.0027  0.0000  0.0346  0.0016  0.0000  0.2632  0.0000  0.5449 </r>
       </set>
       <set comment="band 2">
        <r>  0.0003  0.0128  0.0000  0.0002  0.0031  0.0000  0.5709  0.0000  0.2661 </r>
       </set>
       <set comment="band 3">
        <r>  0.0000  0.0000  0.0293  0.0000  0.0000  0.3833  0.0000  0.5559  0.0000 </r>
       </set>
       <set comment="band 4">
        <r>  0.0066  0.0222  0.0000  0.0102  0.9189  0.0000  0.0097  0.0000  0.0000 </r>
       </set>
       <set comment="band 5">
        <r>  0.0000  0.0000  0.0004  0.0000  0.0000  0.5896  0.0000  0.3987  0.0000 </r>
       </set>
       <set comment="band 6">
        <r>  0.0616  0.0516  0.0000  0.5169  0.0138  0.0000  0.0226  0.0000  0.1402 </r>
       </set>
       <set comment="band 7">
        <r>  0.0927  0.5343  0.0000  0.0155  0.0882  0.0000  0.0392  0.0000  0.0286 </r>
       </set>
       <set comment="band 8">
        <r>  0.0000  0.0000  0.6877  0.0000  0.0000  0.0269  0.0000  0.0645  0.0000 </r>
       </set>
       <set comment="band 9">
        <r>  0.0342  0.0076  0.0000  0.0005  0.0030  0.0000  0.8074  0.0000  0.0219 </r>
       </set>
       <set comment="band 10">
        <r>  0.0237  0.0410  0.0000  0.0253  0.0002  0.0000  0.0130  0.0000  0.7198 </r>
       </set>
       <set comment="band 11">
        <r>  0.5478  0.0587  0.0000  0.1426  0.0051  0.0000  0.0263  0.0000  0.0138 </r>
       </set>
       <set comment="band 12">
        <r>  0.0000  0.0000  0.0268  0.0000  0.0000  0.3076  0.0000  0.1796  0.0000 </r>
       </set>
      </set>
      <set comment="kpoint 281">
       <set comment="band 1">
        <r>  0.0019  0.0009  0.0009  0.0349  0.0003  0.0001  0.2029  0.0003  0.6061 </r>
       </set>
       <set comment="band 2">
        <r>  0.0000  0.0029  0.0029  0.0000  0.0008  0.0000  0.6344  0.0008  0.2123 </r>
       </set>
       <set comment="band 3">
        <r>  0.0031  0.0132  0.0132  0.0038  0.3488  0.2367  0.0002  0.3485  0.0006 </r>
       </set>
       <set comment="band 4">
        <r>  0.0000  0.0126  0.0126  0.0000  0.4731  0.0000  0.0024  0.4734  0.0008 </r>
       </set>
       <set comment="band 5">
        <r>  0.0004  0.0001  0.0001  0.0019  0.1206  0.7420  0.0003  0.1207  0.0008 </r>
       </set>
       <set comment="band 6">
        <r>  0.0863  0.0065  0.0065  0.5403  0.0058  0.0004  0.0376  0.0058  0.1128 </r>
       </set>
       <set comment="band 7">
        <r>  0.0000  0.3339  0.3339  0.0000  0.0352  0.0000  0.0362  0.0352  0.0121 </r>
       </set>
       <set comment="band 8">
        <r>  0.0492  0.3171  0.3171  0.0014  0.0364  0.0136  0.0016  0.0364  0.0047 </r>
       </set>
       <set comment="band 9">
        <r>  0.0000  0.0131  0.0131  0.0000  0.0014  0.0000  0.6462  0.0014  0.2154 </r>
       </set>
       <set comment="band 10">
        <r>  0.0629  0.0096  0.0096  0.0194  0.0000  0.0003  0.1814  0.0000  0.5443 </r>
       </set>
       <set comment="band 11">
        <r>  0.5679  0.0145  0.0145  0.1476  0.0012  0.0001  0.0118  0.0012  0.0353 </r>
       </set>
       <set comment="band 12">
        <r>  0.0022  0.0086  0.0086  0.0013  0.0592  0.3114  0.0000  0.0592  0.0000 </r>
       </set>
      </set>
      <set comment="kpoint 282">
       <set comment="band 1">
        <r>  0.0000  0.0116  0.0000  0.0115  0.0000  0.0003  0.0000  0.0003  0.8271 </r>
       </set>
       <set comment="band 2">
        <r>  0.0003  0.0039  0.0039  0.0039  0.0019  0.0001  0.8387  0.0001  0.0000 </r>
       </set>
       <set comment="band 3">
        <r>  0.0038  0.0073  0.0138  0.0073  0.2875  0.3241  0.0003  0.3241  0.0000 </r>
       </set>
       <set comment="band 4">
        <r>  0.0007  0.0051  0.0077  0.0051  0.6568  0.1496  0.0042  0.1496  0.0000 </r>
       </set>
       <set comment="band 5">
        <r>  0.0000  0.0019  0.0000  0.0019  0.0000  0.4909  0.0000  0.4910  0.0016 </r>
       </set>
       <set comment="band 6">
        <r>  0.0000  0.3276  0.0000  0.3276  0.0000  0.0048  0.0000  0.0048  0.1275 </r>
       </set>
       <set comment="band 7">
        <r>  0.0912  0.2693  0.0337  0.2693  0.0639  0.0005  0.0587  0.0005  0.0000 </r>
       </set>
       <set comment="band 8">
        <r>  0.0397  0.0080  0.6334  0.0080  0.0021  0.0335  0.0162  0.0335  0.0000 </r>
       </set>
       <set comment="band 9">
        <r>  0.0114  0.0058  0.0201  0.0058  0.0018  0.0003  0.8343  0.0003  0.0000 </r>
       </set>
       <set comment="band 10">
        <r>  0.0000  0.0305  0.0000  0.0305  0.0000  0.0004  0.0000  0.0004  0.7951 </r>
       </set>
       <set comment="band 11">
        <r>  0.6262  0.0673  0.0161  0.0673  0.0024  0.0005  0.0069  0.0005  0.0000 </r>
       </set>
       <set comment="band 12">
        <r>  0.0036  0.0042  0.0141  0.0042  0.0565  0.1726  0.0000  0.1726  0.0000 </r>
       </set>
      </set>
      <set comment="kpoint 283">
       <set comment="band 1">
        <r>  0.0024  0.0000  0.0000  0.0350  0.0000  0.0000  0.2032  0.0000  0.6076 </r>
       </set>
       <set comment="band 2">
        <r>  0.0000  0.0000  0.0000  0.0000  0.0000  0.0000  0.6405  0.0000  0.2142 </r>
       </set>
       <set comment="band 3">
        <r>  0.0000  0.0254  0.0000  0.0000  0.9490  0.0000  0.0000  0.0000  0.0000 </r>
       </set>
       <set comment="band 4">
        <r>  0.0000  0.0000  0.0254  0.0000  0.0000  0.0000  0.0000  0.9490  0.0000 </r>
       </set>
       <set comment="band 5">
        <r>  0.0000  0.0000  0.0000  0.0000  0.0000  0.9863  0.0000  0.0000  0.0000 </r>
       </set>
       <set comment="band 6">
        <r>  0.0993  0.0000  0.0000  0.5519  0.0000  0.0000  0.0362  0.0000  0.1086 </r>
       </set>
       <set comment="band 7">
        <r>  0.0000  0.6657  0.0335  0.0000  0.0686  0.0000  0.0000  0.0035  0.0000 </r>
       </set>
       <set comment="band 8">
        <r>  0.0000  0.0335  0.6657  0.0000  0.0035  0.0000  0.0000  0.0686  0.0000 </r>
       </set>
       <set comment="band 9">
        <r>  0.0000  0.0000  0.0000  0.0000  0.0000  0.0000  0.6847  0.0000  0.2282 </r>
       </set>
       <set comment="band 10">
        <r>  0.0904  0.0000  0.0000  0.0148  0.0000  0.0000  0.1819  0.0000  0.5458 </r>
       </set>
       <set comment="band 11">
        <r>  0.5832  0.0000  0.0000  0.1508  0.0000  0.0000  0.0155  0.0000  0.0465 </r>
       </set>
       <set comment="band 12">
        <r>  0.0000  0.0000  0.0000  0.0000  0.0000  0.3310  0.0000  0.0000  0.0000 </r>
       </set>
      </set>
      <set comment="kpoint 284">
       <set comment="band 1">
        <r>  0.0003  0.0011  0.0000  0.0155  0.0001  0.0000  0.1764  0.0000  0.6577 </r>
       </set>
       <set comment="band 2">
        <r>  0.0000  0.0028  0.0000  0.0000  0.0004  0.0000  0.6712  0.0000  0.1791 </r>
       </set>
       <set comment="band 3">
        <r>  0.0000  0.0000  0.0155  0.0000  0.0000  0.3189  0.0000  0.6446  0.0000 </r>
       </set>
       <set comment="band 4">
        <r>  0.0009  0.0131  0.0000  0.0034  0.9609  0.0000  0.0010  0.0000  0.0000 </r>
       </set>
       <set comment="band 5">
        <r>  0.0000  0.0000  0.0004  0.0000  0.0000  0.6640  0.0000  0.3240  0.0000 </r>
       </set>
       <set comment="band 6">
        <r>  0.0473  0.0144  0.0000  0.6198  0.0052  0.0000  0.0185  0.0000  0.0727 </r>
       </set>
       <set comment="band 7">
        <r>  0.0256  0.6705  0.0000  0.0067  0.0388  0.0000  0.0114  0.0000  0.0129 </r>
       </set>
       <set comment="band 8">
        <r>  0.0000  0.0000  0.7171  0.0000  0.0000  0.0082  0.0000  0.0342  0.0000 </r>
       </set>
       <set comment="band 9">
        <r>  0.0038  0.0078  0.0000  0.0005  0.0006  0.0000  0.7954  0.0000  0.1035 </r>
       </set>
       <set comment="band 10">
        <r>  0.0171  0.0092  0.0000  0.0264  0.0000  0.0000  0.0917  0.0000  0.7321 </r>
       </set>
       <set comment="band 11">
        <r>  0.6838  0.0173  0.0000  0.0733  0.0007  0.0000  0.0057  0.0000  0.0065 </r>
       </set>
       <set comment="band 12">
        <r>  0.0000  0.0000  0.0045  0.0000  0.0000  0.1751  0.0000  0.0544  0.0000 </r>
       </set>
      </set>
      <set comment="kpoint 285">
       <set comment="band 1">
        <r>  0.0000  0.0012  0.0039  0.0007  0.0001  0.0000  0.8419  0.0000  0.0048 </r>
       </set>
       <set comment="band 2">
        <r>  0.0000  0.0026  0.0000  0.0032  0.0000  0.0001  0.0048  0.0001  0.8419 </r>
       </set>
       <set comment="band 3">
        <r>  0.0007  0.0045  0.0045  0.0045  0.3223  0.3219  0.0000  0.3218  0.0000 </r>
       </set>
       <set comment="band 4">
        <r>  0.0000  0.0005  0.0025  0.0007  0.6538  0.1871  0.0004  0.1418  0.0000 </r>
       </set>
       <set comment="band 5">
        <r>  0.0000  0.0020  0.0000  0.0018  0.0010  0.4682  0.0000  0.5135  0.0004 </r>
       </set>
       <set comment="band 6">
        <r>  0.0000  0.2059  0.4549  0.0487  0.0060  0.0006  0.0415  0.0027  0.0017 </r>
       </set>
       <set comment="band 7">
        <r>  0.0000  0.2671  0.0181  0.4243  0.0002  0.0056  0.0017  0.0035  0.0415 </r>
       </set>
       <set comment="band 8">
        <r>  0.0516  0.2229  0.2229  0.2229  0.0118  0.0118  0.0000  0.0118  0.0000 </r>
       </set>
       <set comment="band 9">
        <r>  0.0000  0.0095  0.0126  0.0002  0.0002  0.0000  0.7478  0.0001  0.1359 </r>
       </set>
       <set comment="band 10">
        <r>  0.0000  0.0054  0.0023  0.0147  0.0000  0.0002  0.1359  0.0001  0.7478 </r>
       </set>
       <set comment="band 11">
        <r>  0.7288  0.0185  0.0185  0.0185  0.0002  0.0002  0.0000  0.0002  0.0000 </r>
       </set>
       <set comment="band 12">
        <r>  0.0003  0.0013  0.0013  0.0013  0.0520  0.0520  0.0000  0.0520  0.0000 </r>
       </set>
      </set>
      <set comment="kpoint 286">
       <set comment="band 1">
        <r>  0.0000  0.0000  0.0000  0.0039  0.0000  0.0000  0.2185  0.0000  0.6303 </r>
       </set>
       <set comment="band 2">
        <r>  0.0000  0.0000  0.0000  0.0000  0.0000  0.0000  0.6338  0.0000  0.2197 </r>
       </set>
       <set comment="band 3">
        <r>  0.0000  0.0038  0.0000  0.0000  0.9829  0.0000  0.0000  0.0000  0.0000 </r>
       </set>
       <set comment="band 4">
        <r>  0.0000  0.0000  0.0038  0.0000  0.0000  0.0000  0.0000  0.9829  0.0000 </r>
       </set>
       <set comment="band 5">
        <r>  0.0000  0.0000  0.0000  0.0000  0.0000  0.9885  0.0000  0.0000  0.0000 </r>
       </set>
       <set comment="band 6">
        <r>  0.0169  0.0000  0.0000  0.7078  0.0000  0.0000  0.0071  0.0000  0.0214 </r>
       </set>
       <set comment="band 7">
        <r>  0.0000  0.5389  0.1982  0.0000  0.0069  0.0000  0.0000  0.0025  0.0000 </r>
       </set>
       <set comment="band 8">
        <r>  0.0000  0.1982  0.5389  0.0000  0.0025  0.0000  0.0000  0.0069  0.0000 </r>
       </set>
       <set comment="band 9">
        <r>  0.0000  0.0000  0.0000  0.0000  0.0000  0.0000  0.6963  0.0000  0.2321 </r>
       </set>
       <set comment="band 10">
        <r>  0.0023  0.0000  0.0000  0.0132  0.0000  0.0000  0.2251  0.0000  0.6755 </r>
       </set>
       <set comment="band 11">
        <r>  0.7642  0.0000  0.0000  0.0194  0.0000  0.0000  0.0003  0.0000  0.0008 </r>
       </set>
       <set comment="band 12">
        <r>  0.0000  0.0000  0.0000  0.0000  0.0000  0.0497  0.0000  0.0000  0.0000 </r>
       </set>
      </set>
     </set>
    </set>
   </array>
  </projected>
 </calculation>
 <structure name="finalpos" >
  <crystal>
   <varray name="basis" >
    <v>      -1.41500639       1.41500639       1.41500639 </v>
    <v>       1.41500639      -1.41500639       1.41500639 </v>
    <v>       1.41500639       1.41500639      -1.41500639 </v>
   </varray>
   <i name="volume">     11.33274695 </i>
   <varray name="rec_basis" >
    <v>       0.00000000       0.35335530       0.35335530 </v>
    <v>       0.35335530       0.00000000       0.35335530 </v>
    <v>       0.35335530       0.35335530       0.00000000 </v>
   </varray>
  </crystal>
  <varray name="positions" >
   <v>       0.00000000       0.00000000       0.00000000 </v>
  </varray>
 </structure>
</modeling>
