unknown system                          
           1
    -1.415006    1.415006    1.415006
     1.415006   -1.415006    1.415006
     1.415006    1.415006   -1.415006
   Fe
     1
Direct configuration=     1
   0.00000000  0.00000000  0.00000000
