   1   1   0   0
  0.1450827E+02  0.2737643E-09  0.2737643E-09  0.2737643E-09  0.5000000E-15
  1.000000000000000E-004
  CAR 
 unknown system                          
     38.12459479     -6.31382745  301     10.11302938      1.00000000
     -6.314  0.0000E+00  0.0000E+00
     -6.166  0.0000E+00  0.0000E+00
     -6.018  0.0000E+00  0.0000E+00
     -5.869  0.0000E+00  0.0000E+00
     -5.721  0.0000E+00  0.0000E+00
     -5.573  0.0000E+00  0.0000E+00
     -5.425  0.0000E+00  0.0000E+00
     -5.277  0.0000E+00  0.0000E+00
     -5.129  0.0000E+00  0.0000E+00
     -4.981  0.0000E+00  0.0000E+00
     -4.833  0.0000E+00  0.0000E+00
     -4.684  0.0000E+00  0.0000E+00
     -4.536  0.1418E-15  0.2100E-16
     -4.388  0.1535E-06  0.2273E-07
     -4.240  0.4268E-04  0.6345E-05
     -4.092  0.5028E-03  0.8083E-04
     -3.944  0.3255E-03  0.1290E-03
     -3.796  0.1035E-02  0.2823E-03
     -3.648  0.4828E-03  0.3538E-03
     -3.499  0.4940E-03  0.4270E-03
     -3.351  0.1634E-02  0.6691E-03
     -3.203  0.9508E-03  0.8099E-03
     -3.055  0.1277E-02  0.9990E-03
     -2.907  0.3260E-03  0.1047E-02
     -2.759  0.2215E-02  0.1375E-02
     -2.611  0.1243E-02  0.1560E-02
     -2.462  0.1194E-02  0.1736E-02
     -2.314  0.1520E-02  0.1962E-02
     -2.166  0.4109E-03  0.2022E-02
     -2.018  0.2694E-02  0.2421E-02
     -1.870  0.1571E-02  0.2654E-02
     -1.722  0.3045E-02  0.3105E-02
     -1.574  0.3494E-03  0.3157E-02
     -1.426  0.9195E-03  0.3293E-02
     -1.277  0.2185E-02  0.3617E-02
     -1.129  0.1665E-02  0.3863E-02
     -0.981  0.2890E-02  0.4292E-02
     -0.833  0.9112E-03  0.4426E-02
     -0.685  0.4276E-02  0.5060E-02
     -0.537  0.1125E-02  0.5227E-02
     -0.389  0.1839E-02  0.5499E-02
     -0.241  0.6531E-03  0.5596E-02
     -0.092  0.1777E-02  0.5859E-02
      0.056  0.3155E-02  0.6326E-02
      0.204  0.2917E-02  0.6758E-02
      0.352  0.3965E-02  0.7346E-02
      0.500  0.1412E-03  0.7367E-02
      0.648  0.3518E-02  0.7888E-02
      0.796  0.1952E-02  0.8177E-02
      0.944  0.2473E-02  0.8543E-02
      1.093  0.7273E-03  0.8651E-02
      1.241  0.1529E-02  0.8878E-02
      1.389  0.5636E-02  0.9713E-02
      1.537  0.1969E-02  0.1000E-01
      1.685  0.4496E-02  0.1067E-01
      1.833  0.1246E-02  0.1085E-01
      1.981  0.2710E-02  0.1126E-01
      2.129  0.1893E-02  0.1154E-01
      2.278  0.4586E-02  0.1222E-01
      2.426  0.1007E-02  0.1237E-01
      2.574  0.2085E-02  0.1267E-01
      2.722  0.3602E-02  0.1321E-01
      2.870  0.2891E-02  0.1364E-01
      3.018  0.4779E-02  0.1434E-01
      3.166  0.1227E-02  0.1453E-01
      3.314  0.5943E-02  0.1541E-01
      3.463  0.2252E-02  0.1574E-01
      3.611  0.1870E-02  0.1602E-01
      3.759  0.7229E-03  0.1612E-01
      3.907  0.3156E-02  0.1659E-01
      4.055  0.2245E-02  0.1692E-01
      4.203  0.4958E-02  0.1766E-01
      4.351  0.5566E-02  0.1848E-01
      4.500  0.1220E-02  0.1866E-01
      4.648  0.3030E-02  0.1911E-01
      4.796  0.4207E-02  0.1974E-01
      4.944  0.4560E-02  0.2041E-01
      5.092  0.1815E-02  0.2068E-01
      5.240  0.3681E-02  0.2122E-01
      5.388  0.4865E-02  0.2195E-01
      5.536  0.2936E-02  0.2238E-01
      5.685  0.1389E-02  0.2259E-01
      5.833  0.1438E-02  0.2280E-01
      5.981  0.4663E-02  0.2349E-01
      6.129  0.4514E-02  0.2416E-01
      6.277  0.5568E-02  0.2498E-01
      6.425  0.2606E-02  0.2537E-01
      6.573  0.2079E-02  0.2568E-01
      6.721  0.4899E-02  0.2640E-01
      6.870  0.4989E-02  0.2714E-01
      7.018  0.3070E-02  0.2760E-01
      7.166  0.2397E-02  0.2795E-01
      7.314  0.7153E-02  0.2901E-01
      7.462  0.1355E-02  0.2921E-01
      7.610  0.1437E-02  0.2942E-01
      7.758  0.1514E-02  0.2965E-01
      7.906  0.4340E-02  0.3029E-01
      8.055  0.4883E-02  0.3102E-01
      8.203  0.9186E-02  0.3238E-01
      8.351  0.4667E-02  0.3307E-01
      8.499  0.1789E-02  0.3333E-01
      8.647  0.2416E-02  0.3369E-01
      8.795  0.5891E-02  0.3456E-01
      8.943  0.2330E-02  0.3491E-01
      9.091  0.2038E-02  0.3521E-01
      9.240  0.5693E-02  0.3605E-01
      9.388  0.4621E-02  0.3674E-01
      9.536  0.5083E-02  0.3749E-01
      9.684  0.9256E-03  0.3763E-01
      9.832  0.6092E-02  0.3853E-01
      9.980  0.3845E-02  0.3910E-01
     10.128  0.6779E-02  0.4010E-01
     10.277  0.4423E-02  0.4076E-01
     10.425  0.2848E-02  0.4118E-01
     10.573  0.1109E-02  0.4135E-01
     10.721  0.7403E-02  0.4244E-01
     10.869  0.6241E-02  0.4337E-01
     11.017  0.3158E-02  0.4383E-01
     11.165  0.5229E-02  0.4461E-01
     11.313  0.5628E-02  0.4544E-01
     11.462  0.3029E-02  0.4589E-01
     11.610  0.1301E-02  0.4608E-01
     11.758  0.5738E-02  0.4693E-01
     11.906  0.2721E-02  0.4734E-01
     12.054  0.8631E-02  0.4862E-01
     12.202  0.5416E-02  0.4942E-01
     12.350  0.5978E-02  0.5030E-01
     12.498  0.4662E-02  0.5099E-01
     12.647  0.3159E-02  0.5146E-01
     12.795  0.4692E-02  0.5216E-01
     12.943  0.4793E-02  0.5287E-01
     13.091  0.7605E-02  0.5399E-01
     13.239  0.6056E-02  0.5489E-01
     13.387  0.3706E-02  0.5544E-01
     13.535  0.4826E-02  0.5615E-01
     13.683  0.5160E-02  0.5692E-01
     13.832  0.6163E-02  0.5783E-01
     13.980  0.6536E-02  0.5880E-01
     14.128  0.3759E-02  0.5936E-01
     14.276  0.5837E-02  0.6022E-01
     14.424  0.4817E-02  0.6093E-01
     14.572  0.7988E-02  0.6212E-01
     14.720  0.4228E-02  0.6274E-01
     14.868  0.3883E-02  0.6332E-01
     15.017  0.5785E-02  0.6418E-01
     15.165  0.1158E-02  0.6435E-01
     15.313  0.3571E-02  0.6488E-01
     15.461  0.6517E-02  0.6584E-01
     15.609  0.5204E-02  0.6661E-01
     15.757  0.8430E-02  0.6786E-01
     15.905  0.3673E-02  0.6841E-01
     16.054  0.5264E-02  0.6919E-01
     16.202  0.2346E-02  0.6953E-01
     16.350  0.5557E-02  0.7036E-01
     16.498  0.3519E-02  0.7088E-01
     16.646  0.3572E-02  0.7141E-01
     16.794  0.5202E-02  0.7218E-01
     16.942  0.6634E-02  0.7316E-01
     17.090  0.5028E-02  0.7390E-01
     17.239  0.3320E-02  0.7440E-01
     17.387  0.4026E-02  0.7499E-01
     17.535  0.7116E-02  0.7605E-01
     17.683  0.4622E-02  0.7673E-01
     17.831  0.3040E-02  0.7718E-01
     17.979  0.4663E-02  0.7787E-01
     18.127  0.9749E-02  0.7932E-01
     18.275  0.7451E-02  0.8042E-01
     18.424  0.3301E-02  0.8091E-01
     18.572  0.3408E-02  0.8141E-01
     18.720  0.6919E-02  0.8244E-01
     18.868  0.3827E-02  0.8301E-01
     19.016  0.4187E-02  0.8363E-01
     19.164  0.8037E-02  0.8482E-01
     19.312  0.7464E-02  0.8592E-01
     19.460  0.1548E-02  0.8615E-01
     19.609  0.3485E-02  0.8667E-01
     19.757  0.3187E-02  0.8714E-01
     19.905  0.7147E-02  0.8820E-01
     20.053  0.7618E-02  0.8933E-01
     20.201  0.7855E-02  0.9049E-01
     20.349  0.6114E-02  0.9140E-01
     20.497  0.5429E-02  0.9220E-01
     20.645  0.5475E-02  0.9301E-01
     20.794  0.2328E-02  0.9336E-01
     20.942  0.1064E-01  0.9493E-01
     21.090  0.6720E-02  0.9593E-01
     21.238  0.5440E-02  0.9673E-01
     21.386  0.6842E-02  0.9775E-01
     21.534  0.2723E-02  0.9815E-01
     21.682  0.8781E-02  0.9945E-01
     21.831  0.6535E-02  0.1004E+00
     21.979  0.2817E-02  0.1008E+00
     22.127  0.3331E-02  0.1013E+00
     22.275  0.5349E-02  0.1021E+00
     22.423  0.6633E-02  0.1031E+00
     22.571  0.5817E-02  0.1040E+00
     22.719  0.4097E-02  0.1046E+00
     22.867  0.4696E-02  0.1053E+00
     23.016  0.8506E-02  0.1065E+00
     23.164  0.7770E-02  0.1077E+00
     23.312  0.1092E-01  0.1093E+00
     23.460  0.6939E-02  0.1103E+00
     23.608  0.8962E-02  0.1117E+00
     23.756  0.2233E-02  0.1120E+00
     23.904  0.5175E-02  0.1127E+00
     24.052  0.5872E-02  0.1136E+00
     24.201  0.3169E-02  0.1141E+00
     24.349  0.9626E-02  0.1155E+00
     24.497  0.5897E-02  0.1164E+00
     24.645  0.4448E-02  0.1170E+00
     24.793  0.4849E-02  0.1178E+00
     24.941  0.3181E-02  0.1182E+00
     25.089  0.1185E-01  0.1200E+00
     25.237  0.1245E-01  0.1218E+00
     25.386  0.4827E-02  0.1225E+00
     25.534  0.4460E-02  0.1232E+00
     25.682  0.7437E-02  0.1243E+00
     25.830  0.7497E-02  0.1254E+00
     25.978  0.5280E-02  0.1262E+00
     26.126  0.6218E-02  0.1271E+00
     26.274  0.6787E-02  0.1281E+00
     26.422  0.8464E-02  0.1294E+00
     26.571  0.5559E-02  0.1302E+00
     26.719  0.1054E-02  0.1304E+00
     26.867  0.5482E-02  0.1312E+00
     27.015  0.5276E-02  0.1320E+00
     27.163  0.8814E-02  0.1333E+00
     27.311  0.7971E-02  0.1344E+00
     27.459  0.8151E-02  0.1357E+00
     27.608  0.7013E-02  0.1367E+00
     27.756  0.1658E-02  0.1369E+00
     27.904  0.5998E-02  0.1378E+00
     28.052  0.9992E-02  0.1393E+00
     28.200  0.5026E-02  0.1400E+00
     28.348  0.3513E-02  0.1406E+00
     28.496  0.7623E-03  0.1407E+00
     28.644  0.3351E-02  0.1412E+00
     28.793  0.9036E-02  0.1425E+00
     28.941  0.4190E-02  0.1431E+00
     29.089  0.4887E-02  0.1439E+00
     29.237  0.3575E-02  0.1444E+00
     29.385  0.4439E-02  0.1450E+00
     29.533  0.1071E-01  0.1466E+00
     29.681  0.6821E-02  0.1476E+00
     29.829  0.6423E-02  0.1486E+00
     29.978  0.3907E-02  0.1492E+00
     30.126  0.4515E-02  0.1498E+00
     30.274  0.1673E-02  0.1501E+00
     30.422  0.4263E-02  0.1507E+00
     30.570  0.5618E-02  0.1516E+00
     30.718  0.3879E-02  0.1521E+00
     30.866  0.2425E-02  0.1525E+00
     31.014  0.3969E-02  0.1531E+00
     31.163  0.5545E-02  0.1539E+00
     31.311  0.3695E-02  0.1544E+00
     31.459  0.1481E-02  0.1547E+00
     31.607  0.3039E-04  0.1547E+00
     31.755  0.4217E-02  0.1553E+00
     31.903  0.2922E-02  0.1557E+00
     32.051  0.9576E-03  0.1559E+00
     32.199  0.1422E-02  0.1561E+00
     32.348  0.1429E-02  0.1563E+00
     32.496  0.1905E-02  0.1566E+00
     32.644  0.3627E-02  0.1571E+00
     32.792  0.2277E-02  0.1574E+00
     32.940  0.6554E-03  0.1575E+00
     33.088  0.1192E-02  0.1577E+00
     33.236  0.2808E-02  0.1581E+00
     33.384  0.1189E-02  0.1583E+00
     33.533  0.1775E-02  0.1586E+00
     33.681  0.1638E-02  0.1588E+00
     33.829  0.5208E-03  0.1589E+00
     33.977  0.2203E-04  0.1589E+00
     34.125  0.1846E-02  0.1592E+00
     34.273  0.4801E-03  0.1592E+00
     34.421  0.5252E-04  0.1593E+00
     34.570  0.7907E-03  0.1594E+00
     34.718  0.4094E-03  0.1594E+00
     34.866  0.1107E-02  0.1596E+00
     35.014  0.1053E-02  0.1598E+00
     35.162  0.4480E-03  0.1598E+00
     35.310  0.5122E-03  0.1599E+00
     35.458  0.1936E-07  0.1599E+00
     35.606  0.6006E-13  0.1599E+00
     35.755  0.7822E-05  0.1599E+00
     35.903  0.4626E-03  0.1600E+00
     36.051  0.2495E-04  0.1600E+00
     36.199  0.2238E-03  0.1600E+00
     36.347  0.9208E-06  0.1600E+00
     36.495  0.8507E-15  0.1600E+00
     36.643  0.0000E+00  0.1600E+00
     36.791  0.0000E+00  0.1600E+00
     36.940  0.0000E+00  0.1600E+00
     37.088  0.0000E+00  0.1600E+00
     37.236  0.0000E+00  0.1600E+00
     37.384  0.0000E+00  0.1600E+00
     37.532  0.0000E+00  0.1600E+00
     37.680  0.0000E+00  0.1600E+00
     37.828  0.0000E+00  0.1600E+00
     37.976  0.0000E+00  0.1600E+00
     38.125  0.0000E+00  0.1600E+00
