    1    1  100    1
  0.1450827E+02  0.2737643E-09  0.2737643E-09  0.2737643E-09  0.5000000E-15
  1.000000000000000E-004
  CAR 
 unknown system                          
      4    120      8
 
  0.0000000E+00  0.0000000E+00  0.0000000E+00  0.2962963E-03
    1       -4.293899   1.000000
    2       21.242298   0.000000
    3       21.242305   0.000000
    4       21.242314   0.000000
    5       22.053533   0.000000
    6       22.053541   0.000000
    7       22.053550   0.000000
    8       27.384394   0.000000
 
  0.6666667E-01  0.0000000E+00  0.0000000E+00  0.2370370E-02
    1       -4.164674   1.000000
    2       19.113145   0.000000
    3       20.583764   0.000000
    4       20.583776   0.000000
    5       22.870072   0.000000
    6       22.870086   0.000000
    7       23.084591   0.000000
    8       28.255445   0.000000
 
  0.1333333E+00  0.0000000E+00  0.0000000E+00  0.2370370E-02
    1       -3.777507   1.000000
    2       16.295089   0.000000
    3       19.825938   0.000000
    4       19.825949   0.000000
    5       23.369116   0.000000
    6       23.956181   0.000000
    7       23.956195   0.000000
    8       27.229786   0.000000
 
  0.2000000E+00  0.1387779E-16  0.0000000E+00  0.2370370E-02
    1       -3.133976   1.000000
    2       13.474666   0.000000
    3       19.250535   0.000000
    4       19.250545   0.000000
    5       23.298750   0.000000
    6       24.180631   0.000000
    7       24.180642   0.000000
    8       27.205906   0.000000
 
  0.2666667E+00  0.0000000E+00  0.0000000E+00  0.2370370E-02
    1       -2.236782   1.000000
    2       10.780236   0.000000
    3       18.871707   0.000000
    4       18.871716   0.000000
    5       23.200992   0.000000
    6       23.296574   0.000000
    7       23.296583   0.000000
    8       28.598324   0.000000
 
  0.3333333E+00 -0.2775558E-16  0.0000000E+00  0.2370370E-02
    1       -1.090045   1.000000
    2        8.263448   1.000000
    3       18.678245   0.000000
    4       18.678252   0.000000
    5       22.296336   0.000000
    6       22.296346   0.000000
    7       23.186254   0.000000
    8       27.439284   0.000000
 
  0.4000000E+00  0.2775558E-16  0.0000000E+00  0.2370370E-02
    1        0.299025   1.000000
    2        5.952870   1.000000
    3       18.634671   0.000000
    4       18.634676   0.000000
    5       21.496828   0.000000
    6       21.496839   0.000000
    7       23.269255   0.000000
    8       26.524196   0.000000
 
  0.4666667E+00  0.0000000E+00  0.0000000E+00  0.2370370E-02
    1        1.899554   1.000000
    2        3.889501   1.000000
    3       18.663287   0.000000
    4       18.663291   0.000000
    5       21.037956   0.000000
    6       21.037969   0.000000
    7       23.377360   0.000000
    8       25.987364   0.000000
 
  0.6666667E-01  0.6666667E-01  0.0000000E+00  0.1777778E-02
    1       -4.121610   1.000000
    2       19.586942   0.000000
    3       19.586943   0.000000
    4       20.839464   0.000000
    5       21.139334   0.000000
    6       23.924368   0.000000
    7       23.924369   0.000000
    8       27.140103   0.000000
 
  0.1333333E+00  0.6666667E-01  0.0000000E+00  0.7111111E-02
    1       -3.820459   1.000000
    2       17.298890   0.000000
    3       18.749158   0.000000
    4       20.294582   0.000000
    5       21.664651   0.000000
    6       24.640142   0.000000
    7       25.068142   0.000000
    8       25.677185   0.000000
 
  0.2000000E+00  0.6666667E-01  0.0000000E+00  0.7111111E-02
    1       -3.262437   1.000000
    2       14.494039   0.000000
    3       18.114995   0.000000
    4       19.663870   0.000000
    5       22.352184   0.000000
    6       24.442497   0.000000
    7       25.202764   0.000000
    8       25.679165   0.000000
 
  0.2666667E+00  0.6666667E-01  0.0000000E+00  0.7111111E-02
    1       -2.449845   1.000000
    2       11.760299   0.000000
    3       17.694446   0.000000
    4       19.152102   0.000000
    5       21.799635   0.000000
    6       24.273224   0.000000
    7       25.032096   0.000000
    8       26.231060   0.000000
 
  0.3333333E+00  0.6666667E-01  0.0000000E+00  0.7111111E-02
    1       -1.386253   1.000000
    2        9.185324   1.000000
    3       17.488705   0.000000
    4       18.715880   0.000000
    5       20.936439   0.000000
    6       24.001822   0.000000
    7       24.246601   0.000000
    8       27.821273   0.000000
 
  0.4000000E+00  0.6666667E-01  0.0000000E+00  0.7111111E-02
    1       -0.077402   1.000000
    2        6.805987   1.000000
    3       17.494040   0.000000
    4       18.244490   0.000000
    5       20.419647   0.000000
    6       23.048601   0.000000
    7       24.262454   0.000000
    8       27.738586   0.000000
 
  0.4666667E+00  0.6666667E-01  0.0000000E+00  0.7111111E-02
    1        1.461510   1.000000
    2        4.651580   1.000000
    3       17.700616   0.000000
    4       17.710431   0.000000
    5       20.377666   0.000000
    6       22.286298   0.000000
    7       24.283688   0.000000
    8       27.203825   0.000000
 
 -0.4666667E+00  0.6666667E-01  0.0000000E+00  0.7111111E-02
    1        2.523805   1.000000
    2        3.434992   1.000000
    3       17.226253   0.000000
    4       18.087283   0.000000
    5       20.723245   0.000000
    6       21.767364   0.000000
    7       24.221439   0.000000
    8       27.115766   0.000000
 
 -0.4000000E+00  0.6666667E-01  0.0000000E+00  0.7111111E-02
    1        0.925381   1.000000
    2        5.341692   1.000000
    3       16.887757   0.000000
    4       18.609729   0.000000
    5       21.364666   0.000000
    6       21.544333   0.000000
    7       24.075049   0.000000
    8       27.507314   0.000000
 
 -0.3333333E+00  0.6666667E-01  0.0000000E+00  0.7111111E-02
    1       -0.540426   1.000000
    2        7.575445   1.000000
    3       16.739271   0.000000
    4       19.187055   0.000000
    5       21.691013   0.000000
    6       22.247802   0.000000
    7       23.944992   0.000000
    8       28.233180   0.000000
 
 -0.2666667E+00  0.6666667E-01  0.0000000E+00  0.7111111E-02
    1       -1.768407   1.000000
    2       10.022582   0.994740
    3       16.799440   0.000000
    4       19.737946   0.000000
    5       22.253012   0.000000
    6       23.320727   0.000000
    7       23.895607   0.000000
    8       27.880455   0.000000
 
 -0.2000000E+00  0.6666667E-01  0.0000000E+00  0.7111111E-02
    1       -2.748829   1.000000
    2       12.654823   0.000000
    3       17.075653   0.000000
    4       20.276729   0.000000
    5       23.052631   0.000000
    6       23.908017   0.000000
    7       24.461994   0.000000
    8       26.212681   0.000000
 
 -0.1333333E+00  0.6666667E-01  0.0000000E+00  0.7111111E-02
    1       -3.476892   1.000000
    2       15.424738   0.000000
    3       17.569820   0.000000
    4       20.867656   0.000000
    5       23.155919   0.000000
    6       23.861927   0.000000
    7       25.075519   0.000000
    8       25.784194   0.000000
 
 -0.6666667E-01  0.6666667E-01  0.0000000E+00  0.3555556E-02
    1       -3.949488   1.000000
    2       18.121355   0.000000
    3       18.369974   0.000000
    4       21.320782   0.000000
    5       22.386717   0.000000
    6       23.500407   0.000000
    7       24.384978   0.000000
    8       26.898140   0.000000
 
  0.1333333E+00  0.1333333E+00  0.0000000E+00  0.1777778E-02
    1       -3.605561   1.000000
    2       17.838861   0.000000
    3       17.838862   0.000000
    4       19.495736   0.000000
    5       19.768244   0.000000
    6       23.878230   0.000000
    7       26.288437   0.000000
    8       26.288438   0.000000
 
  0.2000000E+00  0.1333333E+00  0.0000000E+00  0.7111111E-02
    1       -3.133685   1.000000
    2       15.655154   0.000000
    3       17.134012   0.000000
    4       18.933791   0.000000
    5       20.045935   0.000000
    6       22.572176   0.000000
    7       27.003362   0.000000
    8       27.243297   0.000000
 
  0.2666667E+00  0.1333333E+00  0.0000000E+00  0.7111111E-02
    1       -2.406762   1.000000
    2       12.944667   0.000000
    3       16.645758   0.000000
    4       18.216775   0.000000
    5       19.950654   0.000000
    6       22.915029   0.000000
    7       26.981641   0.000000
    8       27.180177   0.000000
 
  0.3333333E+00  0.1333333E+00  0.0000000E+00  0.7111111E-02
    1       -1.427877   1.000000
    2       10.332063   0.000000
    3       16.377463   0.000000
    4       17.397622   0.000000
    5       19.355528   0.000000
    6       24.383579   0.000000
    7       26.028560   0.000000
    8       27.341601   0.000000
 
  0.4000000E+00  0.1333333E+00  0.0000000E+00  0.7111111E-02
    1       -0.201811   1.000000
    2        7.894773   1.000000
    3       16.329192   0.000000
    4       16.495134   0.000000
    5       19.107471   0.000000
    6       25.047243   0.000000
    7       25.634747   0.000000
    8       28.037521   0.000000
 
  0.4666667E+00  0.1333333E+00  0.0000000E+00  0.7111111E-02
    1        1.261852   1.000000
    2        5.666764   1.000000
    3       15.658410   0.000000
    4       16.498698   0.000000
    5       19.209784   0.000000
    6       24.206805   0.000000
    7       26.009585   0.000000
    8       29.544497   0.000000
 
 -0.4666667E+00  0.1333333E+00  0.0000000E+00  0.7111111E-02
    1        2.861526   1.000000
    2        3.759791   1.000000
    3       14.983240   0.000000
    4       16.880944   0.000000
    5       19.599772   0.000000
    6       23.563665   0.000000
    7       25.920655   0.000000
    8       29.683224   0.000000
 
 -0.4000000E+00  0.1333333E+00  0.0000000E+00  0.7111111E-02
    1        1.797337   1.000000
    2        4.976923   1.000000
    3       14.509910   0.000000
    4       17.466162   0.000000
    5       20.244803   0.000000
    6       23.145585   0.000000
    7       25.691514   0.000000
    8       29.983581   0.000000
 
 -0.3333333E+00  0.1333333E+00  0.0000000E+00  0.7111111E-02
    1        0.260285   1.000000
    2        7.124969   1.000000
    3       14.255972   0.000000
    4       18.235298   0.000000
    5       21.122997   0.000000
    6       22.973199   0.000000
    7       25.463301   0.000000
    8       29.509731   0.000000
 
 -0.2666667E+00  0.1333333E+00  0.0000000E+00  0.7111111E-02
    1       -1.046593   1.000000
    2        9.491601   1.000000
    3       14.230858   0.000000
    4       19.150137   0.000000
    5       22.207939   0.000000
    6       23.066710   0.000000
    7       25.276722   0.000000
    8       27.359754   0.000000
 
 -0.2000000E+00  0.1333333E+00  0.0000000E+00  0.7111111E-02
    1       -2.108503   1.000000
    2       12.034995   0.000000
    3       14.447185   0.000000
    4       20.129854   0.000000
    5       23.413392   0.000000
    6       23.445371   0.000000
    7       25.064703   0.000000
    8       25.492866   0.000000
 
 -0.1333333E+00  0.1333333E+00  0.0000000E+00  0.3555556E-02
    1       -2.919785   1.000000
    2       14.491966   0.000000
    3       15.121783   0.000000
    4       20.961431   0.000000
    5       23.381924   0.000000
    6       24.624109   0.000000
    7       24.654216   0.000000
    8       24.776702   0.000000
 
  0.2000000E+00  0.2000000E+00  0.0000000E+00  0.1777778E-02
    1       -2.748268   1.000000
    2       16.356221   0.000000
    3       16.356222   0.000000
    4       17.923021   0.000000
    5       18.022950   0.000000
    6       20.884313   0.000000
    7       28.697543   0.000000
    8       28.697543   0.000000
 
  0.2666667E+00  0.2000000E+00  0.0000000E+00  0.7111111E-02
    1       -2.107729   1.000000
    2       14.270019   0.000000
    3       15.795243   0.000000
    4       16.887749   0.000000
    5       18.179475   0.000000
    6       20.444265   0.000000
    7       29.023780   0.000000
    8       29.433986   0.000000
 
  0.3333333E+00  0.2000000E+00  0.0000000E+00  0.7111111E-02
    1       -1.214784   1.000000
    2       11.681847   0.000000
    3       15.455603   0.000000
    4       15.670530   0.000000
    5       18.082788   0.000000
    6       21.700595   0.000000
    7       28.228665   0.000000
    8       29.594834   0.000000
 
  0.4000000E+00  0.2000000E+00  0.0000000E+00  0.7111111E-02
    1       -0.073513   1.000000
    2        9.207765   1.000000
    3       14.508756   0.000000
    4       15.338516   0.000000
    5       17.964924   0.000000
    6       23.591061   0.000000
    7       27.270070   0.000000
    8       29.518033   0.000000
 
  0.4666667E+00  0.2000000E+00  0.0000000E+00  0.7111111E-02
    1        1.309015   1.000000
    2        6.920150   1.000000
    3       13.506487   0.000000
    4       15.443487   0.000000
    5       18.074256   0.000000
    6       25.592380   0.000000
    7       26.396718   0.000000
    8       29.397390   0.000000
 
 -0.4666667E+00  0.2000000E+00  0.0000000E+00  0.7111111E-02
    1        2.904716   1.000000
    2        4.867466   1.000000
    3       12.707875   0.000000
    4       15.768493   0.000000
    5       18.430865   0.000000
    6       25.690224   0.000000
    7       27.112375   0.000000
    8       29.706734   0.000000
 
 -0.4000000E+00  0.2000000E+00  0.0000000E+00  0.7111111E-02
    1        2.905040   1.000000
    2        4.864742   1.000000
    3       12.132786   0.000000
    4       16.309378   0.000000
    5       19.030593   0.000000
    6       25.185698   0.000000
    7       27.423513   0.000000
    8       30.889885   0.000000
 
 -0.3333333E+00  0.2000000E+00  0.0000000E+00  0.7111111E-02
    1        1.308469   1.000000
    2        6.910553   1.000000
    3       11.793593   0.000000
    4       17.057936   0.000000
    5       19.863505   0.000000
    6       24.901621   0.000000
    7       27.185929   0.000000
    8       29.330039   0.000000
 
 -0.2666667E+00  0.2000000E+00  0.0000000E+00  0.7111111E-02
    1       -0.074375   1.000000
    2        9.171486   1.000000
    3       11.711381   0.000000
    4       17.996654   0.000000
    5       20.912022   0.000000
    6       24.850383   0.000000
    7       26.779076   0.000000
    8       27.074719   0.000000
 
 -0.2000000E+00  0.2000000E+00  0.0000000E+00  0.3555556E-02
    1       -1.215679   1.000000
    2       11.325094   0.000000
    3       12.166194   0.000000
    4       19.080161   0.000000
    5       22.139535   0.000000
    6       25.024122   0.000000
    7       25.056767   0.000000
    8       26.109073   0.000000
 
  0.2666667E+00  0.2666667E+00  0.0000000E+00  0.1777778E-02
    1       -1.554004   1.000000
    2       15.160453   0.000000
    3       15.160455   0.000000
    4       15.314252   0.000000
    5       16.607592   0.000000
    6       19.029863   0.000000
    7       31.004232   0.000000
    8       31.005164   0.000000
 
  0.3333333E+00  0.2666667E+00  0.0000000E+00  0.7111111E-02
    1       -0.747875   1.000000
    2       13.131766   0.000000
    3       13.951144   0.000000
    4       14.747181   0.000000
    5       16.917659   0.000000
    6       19.213337   0.000000
    7       30.506121   0.000000
    8       31.678809   0.000000
 
  0.4000000E+00  0.2666667E+00  0.0000000E+00  0.7111111E-02
    1        0.306963   1.000000
    2       10.709286   0.000000
    3       12.610170   0.000000
    4       14.557384   0.000000
    5       17.010190   0.000000
    6       20.819185   0.000000
    7       29.630704   0.000000
    8       31.695958   0.000000
 
  0.4666667E+00  0.2666667E+00  0.0000000E+00  0.7111111E-02
    1        1.604665   1.000000
    2        8.392061   1.000000
    3       11.478603   0.000000
    4       14.591321   0.000000
    5       17.114243   0.000000
    6       22.941018   0.000000
    7       28.762372   0.000000
    8       31.335129   0.000000
 
 -0.4666667E+00  0.2666667E+00  0.0000000E+00  0.7111111E-02
    1        3.130942   1.000000
    2        6.268699   1.000000
    3       10.573861   0.000000
    4       14.848099   0.000000
    5       17.421468   0.000000
    6       25.243330   0.000000
    7       28.018180   0.000000
    8       30.791516   0.000000
 
 -0.4000000E+00  0.2666667E+00  0.0000000E+00  0.7111111E-02
    1        4.202783   1.000000
    2        5.039755   1.000000
    3        9.908669   1.000000
    4       15.325510   0.000000
    5       17.961279   0.000000
    6       27.448564   0.000000
    7       27.485846   0.000000
    8       30.202515   0.000000
 
 -0.3333333E+00  0.2666667E+00  0.0000000E+00  0.7111111E-02
    1        2.598321   1.000000
    2        6.912983   1.000000
    3        9.507757   1.000000
    4       16.018948   0.000000
    5       18.733878   0.000000
    6       27.070541   0.000000
    7       28.798043   0.000000
    8       29.400023   0.000000
 
 -0.2666667E+00  0.2666667E+00  0.0000000E+00  0.3555556E-02
    1        1.143585   1.000000
    2        8.754413   1.000000
    3        9.678139   1.000000
    4       16.918269   0.000000
    5       19.727257   0.000000
    6       26.706718   0.000000
    7       27.278815   0.000000
    8       28.094996   0.000000
 
  0.3333333E+00  0.3333333E+00  0.0000000E+00  0.1777778E-02
    1       -0.029232   1.000000
    2       12.230366   0.000000
    3       14.259726   0.000000
    4       14.259728   0.000000
    5       15.601838   0.000000
    6       17.954781   0.000000
    7       32.430988   0.000000
    8       33.098431   0.000000
 
  0.4000000E+00  0.3333333E+00  0.0000000E+00  0.7111111E-02
    1        0.937788   1.000000
    2       10.777385   0.000000
    3       12.455733   0.000000
    4       13.995943   0.000000
    5       16.075897   0.000000
    6       18.412174   0.000000
    7       31.987757   0.000000
    8       33.626382   0.000000
 
  0.4666667E+00  0.3333333E+00  0.0000000E+00  0.7111111E-02
    1        2.147475   1.000000
    2        9.472263   1.000000
    3       10.232705   0.000356
    4       13.956607   0.000000
    5       16.334407   0.000000
    6       20.228692   0.000000
    7       31.199779   0.000000
    8       33.409809   0.000000
 
 -0.4666667E+00  0.3333333E+00  0.0000000E+00  0.7111111E-02
    1        3.588121   1.000000
    2        7.821596   1.000000
    3        8.719467   1.000000
    4       14.141464   0.000000
    5       16.615548   0.000000
    6       22.533446   0.000000
    7       30.449580   0.000000
    8       32.743655   0.000000
 
 -0.4000000E+00  0.3333333E+00  0.0000000E+00  0.7111111E-02
    1        5.179365   1.000000
    2        5.961075   1.000000
    3        7.931705   1.000000
    4       14.549287   0.000000
    5       17.096220   0.000000
    6       25.029100   0.000000
    7       29.803173   0.000000
    8       31.786732   0.000000
 
 -0.3333333E+00  0.3333333E+00  0.0000000E+00  0.3555556E-02
    1        4.116994   1.000000
    2        6.815946   1.000000
    3        7.768392   1.000000
    4       15.177227   0.000000
    5       17.803597   0.000000
    6       27.529398   0.000000
    7       29.035057   0.000000
    8       30.065979   0.000000
 
  0.4000000E+00  0.4000000E+00  0.0000000E+00  0.1777778E-02
    1        1.815321   1.000000
    2        9.253423   1.000000
    3       13.657851   0.000000
    4       13.657852   0.000000
    5       14.924967   0.000000
    6       17.290372   0.000000
    7       33.665911   0.000000
    8       34.893277   0.000000
 
  0.4666667E+00  0.4000000E+00  0.0000000E+00  0.7111111E-02
    1        2.932357   1.000000
    2        7.933208   1.000000
    3       11.966305   0.000000
    4       13.544395   0.000000
    5       15.574905   0.000000
    6       17.939735   0.000000
    7       33.429408   0.000000
    8       35.165005   0.000000
 
 -0.4666667E+00  0.4000000E+00  0.0000000E+00  0.7111111E-02
    1        4.266389   1.000000
    2        6.858371   1.000000
    3        9.824330   1.000000
    4       13.655756   0.000000
    5       15.999415   0.000000
    6       19.931285   0.000000
    7       32.746445   0.000000
    8       34.555716   0.000000
 
 -0.4000000E+00  0.4000000E+00  0.0000000E+00  0.3555556E-02
    1        5.520994   1.000000
    2        6.286687   1.000000
    3        7.867770   1.000000
    4       13.991307   0.000000
    5       16.449759   0.000000
    6       22.395245   0.000000
    7       31.771770   0.000000
    8       33.168281   0.000000
 
  0.4666667E+00  0.4666667E+00  0.0000000E+00  0.1777778E-02
    1        3.939998   1.000000
    2        6.546573   1.000000
    3       13.356584   0.000000
    4       13.356585   0.000000
    5       14.584994   0.000000
    6       16.963536   0.000000
    7       34.552283   0.000000
    8       36.104667   0.000000
 
 -0.4666667E+00  0.4666667E+00  0.0000000E+00  0.3555556E-02
    1        4.873091   1.000000
    2        5.701714   1.000000
    3       11.806126   0.000000
    4       13.393770   0.000000
    5       15.408001   0.000000
    6       17.782574   0.000000
    7       34.229751   0.000000
    8       35.830105   0.000000
 
  0.2000000E+00  0.1333333E+00  0.6666667E-01  0.7111111E-02
    1       -3.433918   1.000000
    2       16.328203   0.000000
    3       16.735718   0.000000
    4       20.610816   0.000000
    5       21.254385   0.000000
    6       24.211598   0.000000
    7       25.551941   0.000000
    8       25.912350   0.000000
 
  0.2666667E+00  0.1333333E+00  0.6666667E-01  0.1422222E-01
    1       -2.791405   1.000000
    2       13.743145   0.000000
    3       16.007196   0.000000
    4       19.969530   0.000000
    5       21.684654   0.000000
    6       23.753288   0.000000
    7       25.766484   0.000000
    8       26.000546   0.000000
 
  0.3333333E+00  0.1333333E+00  0.6666667E-01  0.1422222E-01
    1       -1.895609   1.000000
    2       11.081494   0.000000
    3       15.650884   0.000000
    4       19.104086   0.000000
    5       21.250487   0.000000
    6       24.313610   0.000000
    7       25.237564   0.000000
    8       26.389529   0.000000
 
  0.4000000E+00  0.1333333E+00  0.6666667E-01  0.1422222E-01
    1       -0.750642   1.000000
    2        8.578888   1.000000
    3       15.520282   0.000000
    4       18.174208   0.000000
    5       20.921768   0.000000
    6       23.548781   0.000000
    7       25.494579   0.000000
    8       27.770999   0.000000
 
  0.4666667E+00  0.1333333E+00  0.6666667E-01  0.1422222E-01
    1        0.636381   1.000000
    2        6.276053   1.000000
    3       15.602494   0.000000
    4       17.316845   0.000000
    5       20.879910   0.000000
    6       22.678544   0.000000
    7       25.641199   0.000000
    8       29.195263   0.000000
 
 -0.4666667E+00  0.1333333E+00  0.6666667E-01  0.1422222E-01
    1        2.235635   1.000000
    2        4.216280   1.000000
    3       15.842334   0.000000
    4       16.672765   0.000000
    5       21.018441   0.000000
    6       22.075322   0.000000
    7       25.729595   0.000000
    8       28.941747   0.000000
 
  0.2666667E+00  0.2000000E+00  0.6666667E-01  0.7111111E-02
    1       -2.577422   1.000000
    2       14.781656   0.000000
    3       15.270461   0.000000
    4       18.628510   0.000000
    5       19.785741   0.000000
    6       21.655521   0.000000
    7       27.484565   0.000000
    8       28.133660   0.000000
 
  0.3333333E+00  0.2000000E+00  0.6666667E-01  0.1422222E-01
    1       -1.767391   1.000000
    2       12.334043   0.000000
    3       14.650776   0.000000
    4       17.469328   0.000000
    5       20.001060   0.000000
    6       22.334836   0.000000
    7       26.764847   0.000000
    8       28.591184   0.000000
 
  0.4000000E+00  0.2000000E+00  0.6666667E-01  0.1422222E-01
    1       -0.707154   1.000000
    2        9.804585   1.000000
    3       14.425614   0.000000
    4       16.289281   0.000000
    5       19.855509   0.000000
    6       23.962529   0.000000
    7       25.857148   0.000000
    8       28.729255   0.000000
 
  0.4666667E+00  0.2000000E+00  0.6666667E-01  0.1422222E-01
    1        0.597598   1.000000
    2        7.445888   1.000000
    3       14.379941   0.000000
    4       15.308051   0.000000
    5       19.876478   0.000000
    6       24.512941   0.000000
    7       26.218055   0.000000
    8       28.937544   0.000000
 
 -0.4666667E+00  0.2000000E+00  0.6666667E-01  0.1422222E-01
    1        2.132376   1.000000
    2        5.302419   1.000000
    3       14.130200   0.000000
    4       14.955633   0.000000
    5       20.121943   0.000000
    6       23.842020   0.000000
    7       27.361282   0.000000
    8       29.730847   0.000000
 
 -0.4000000E+00  0.2000000E+00  0.6666667E-01  0.1422222E-01
    1        3.198381   1.000000
    2        4.083134   1.000000
    3       13.584327   0.000000
    4       15.342109   0.000000
    5       20.585096   0.000000
    6       23.285564   0.000000
    7       27.560551   0.000000
    8       30.867916   0.000000
 
 -0.3333333E+00  0.2000000E+00  0.6666667E-01  0.1422222E-01
    1        1.597331   1.000000
    2        5.987950   1.000000
    3       13.188407   0.000000
    4       16.025634   0.000000
    5       21.232585   0.000000
    6       22.964786   0.000000
    7       27.307735   0.000000
    8       29.688159   0.000000
 
 -0.2666667E+00  0.2000000E+00  0.6666667E-01  0.1422222E-01
    1        0.135724   1.000000
    2        8.204118   1.000000
    3       13.013361   0.000000
    4       16.929798   0.000000
    5       21.945651   0.000000
    6       22.985257   0.000000
    7       26.518228   0.000000
    8       28.175203   0.000000
 
 -0.2000000E+00  0.2000000E+00  0.6666667E-01  0.1422222E-01
    1       -1.088420   1.000000
    2       10.608845   0.000000
    3       13.084216   0.000000
    4       18.015778   0.000000
    5       22.447352   0.000000
    6       23.450434   0.000000
    7       25.061140   0.000000
    8       27.531885   0.000000
 
 -0.1333333E+00  0.2000000E+00  0.6666667E-01  0.7111111E-02
    1       -2.065699   1.000000
    2       12.916370   0.000000
    3       13.651479   0.000000
    4       19.194884   0.000000
    5       22.490635   0.000000
    6       23.229701   0.000000
    7       25.018807   0.000000
    8       26.944987   0.000000
 
  0.3333333E+00  0.2666667E+00  0.6666667E-01  0.7111111E-02
    1       -1.384288   1.000000
    2       13.527696   0.000000
    3       14.022933   0.000000
    4       15.702263   0.000000
    5       18.542171   0.000000
    6       20.142953   0.000000
    7       28.859033   0.000000
    8       30.658907   0.000000
 
  0.4000000E+00  0.2666667E+00  0.6666667E-01  0.1422222E-01
    1       -0.410172   1.000000
    2       11.219048   0.000000
    3       13.483281   0.000000
    4       14.431428   0.000000
    5       18.857875   0.000000
    6       21.321995   0.000000
    7       28.003096   0.000000
    8       31.100231   0.000000
 
  0.4666667E+00  0.2666667E+00  0.6666667E-01  0.1422222E-01
    1        0.809782   1.000000
    2        8.835612   1.000000
    3       12.930575   0.000000
    4       13.745882   0.000000
    5       18.913534   0.000000
    6       23.286312   0.000000
    7       27.099806   0.000000
    8       31.024852   0.000000
 
 -0.4666667E+00  0.2666667E+00  0.6666667E-01  0.1422222E-01
    1        2.266146   1.000000
    2        6.632454   1.000000
    3       12.063055   0.000000
    4       13.827689   0.000000
    5       19.130021   0.000000
    6       25.238567   0.000000
    7       26.536706   0.000000
    8       30.681410   0.000000
 
 -0.4000000E+00  0.2666667E+00  0.6666667E-01  0.1422222E-01
    1        3.867805   1.000000
    2        4.727455   1.000000
    3       11.342958   0.000000
    4       14.223559   0.000000
    5       19.561641   0.000000
    6       25.372500   0.000000
    7       27.913731   0.000000
    8       30.076379   0.000000
 
 -0.3333333E+00  0.2666667E+00  0.6666667E-01  0.1422222E-01
    1        2.799516   1.000000
    2        5.940062   1.000000
    3       10.848153   0.000000
    4       14.861646   0.000000
    5       20.210629   0.000000
    6       24.979615   0.000000
    7       28.654887   0.000000
    8       29.536897   0.000000
 
 -0.2666667E+00  0.2666667E+00  0.6666667E-01  0.1422222E-01
    1        1.268809   1.000000
    2        8.043277   1.000000
    3       10.610641   0.000000
    4       15.724223   0.000000
    5       21.061102   0.000000
    6       24.735510   0.000000
    7       26.794596   0.000000
    8       29.489680   0.000000
 
 -0.2000000E+00  0.2666667E+00  0.6666667E-01  0.7111111E-02
    1       -0.031758   1.000000
    2       10.042374   0.977166
    3       10.926724   0.000000
    4       16.792203   0.000000
    5       22.061401   0.000000
    6       24.374193   0.000000
    7       25.105117   0.000000
    8       28.745424   0.000000
 
  0.4000000E+00  0.3333333E+00  0.6666667E-01  0.7111111E-02
    1        0.139007   1.000000
    2       12.279912   0.000000
    3       12.580520   0.000000
    4       13.379077   0.000000
    5       17.589341   0.000000
    6       19.181133   0.000000
    7       30.290276   0.000000
    8       32.940296   0.000000
 
  0.4666667E+00  0.3333333E+00  0.6666667E-01  0.1422222E-01
    1        1.272020   1.000000
    2       10.359964   0.000000
    3       11.184596   0.000000
    4       12.928023   0.000000
    5       18.061654   0.000000
    6       20.598526   0.000000
    7       29.480376   0.000000
    8       33.172890   0.000000
 
 -0.4666667E+00  0.3333333E+00  0.6666667E-01  0.1422222E-01
    1        2.643466   1.000000
    2        8.168029   1.000000
    3       10.104872   0.591232
    4       12.998587   0.000000
    5       18.288466   0.000000
    6       22.771415   0.000000
    7       28.671816   0.000000
    8       32.591624   0.000000
 