 vasp.6.2.0 18Jan21 (build Aug 12 2022 13:00:08) complex                        
  
 executed on             LinuxIFC date 2024.11.05  05:20:26
 running on    4 total cores
 distrk:  each k-point on    4 cores,    1 groups
 distr:  one band on NCORE=   1 cores,    4 groups


--------------------------------------------------------------------------------------------------------


 INCAR:
   ISTART = 0            (Read existing wavefunction, if there)
   ISPIN = 1            (Non-Spin polarised DFT)
   LREAL = .FALSE.       (Projection operators: automatic)
   LWAVE = .FALSE.        (Write WAVECAR or not)
   LCHARG = .FALSE.        (Write CHGCAR or not)
   ADDGRID = .TRUE.        (Increase grid, helps GGA convergence)
   LASPH = .TRUE.        (Give more accurate total energies and band structure calculations)
   PREC = Accurate      (Accurate strictly avoids any aliasing or wrap around errors)
   ENCUT = 700          (Cut-off energy for plane wave basis set, in eV)
   ISMEAR = 0            (Gaussian smearing, metals:1)
   SIGMA = 0.05         (Smearing value in eV, metals:0.2)
   NELM = 90           (Max electronic SCF steps)
   NELMIN = 6            (Min electronic SCF steps)
   EDIFF = 1E-06        (SCF energy convergence, in eV)
   NSW = 100          (Max ionic steps)
   IBRION = 2            (Algorithm: 0-MD, 1-Quasi-New, 2-CG)
   ISIF = 2            (Stress/relaxation: 2-Ions, 3-Shape/Ions/V, 4-Shape/Ions)
   EDIFFG = -2E-03        (Ionic convergence, eV/AA)
   ISYM = 2              (Symmetry: 0\=none, 2\=GGA, 3\=hybrids)

 POTCAR:    PAW_PBE Si 05Jan2001                  
 POTCAR:    PAW_PBE Si 05Jan2001                  
   VRHFIN =Si: s2p2                                                                                 
   LEXCH  = PE                                                                                      
   EATOM  =   103.0669 eV,    7.5752 Ry                                                             
                                                                                                    
   TITEL  = PAW_PBE Si 05Jan2001                                                                    
   LULTRA =        F    use ultrasoft PP ?                                                          
   IUNSCR =        1    unscreen: 0-lin 1-nonlin 2-no                                               
   RPACOR =    1.500    partial core radius                                                         
   POMASS =   28.085; ZVAL   =    4.000    mass and valenz                                          
   RCORE  =    1.900    outmost cutoff radius                                                       
   RWIGS  =    2.480; RWIGS  =    1.312    wigner-seitz radius (au A)                               
   ENMAX  =  245.345; ENMIN  =  184.009 eV                                                          
   ICORE  =        2    local potential                                                             
   LCOR   =        T    correct aug charges                                                         
   LPAW   =        T    paw PP                                                                      
   EAUG   =  322.069                                                                                
   DEXC   =    0.000                                                                                
   RMAX   =    1.950    core radius for proj-oper                                                   
   RAUG   =    1.300    factor for augmentation sphere                                              
   RDEP   =    1.993    radius for radial grids                                                     
   RDEPT  =    1.837    core radius for aug-charge                                                  
                                                                                                    
   Atomic configuration                                                                             
    6 entries                                                                                       
     n  l   j            E        occ.                                                              
     1  0  0.50     -1785.8828   2.0000                                                             
     2  0  0.50      -139.4969   2.0000                                                             
     2  1  1.50       -95.5546   6.0000                                                             
     3  0  0.50       -10.8127   2.0000                                                             
     3  1  0.50        -4.0811   2.0000                                                             
     3  2  1.50        -4.0817   0.0000                                                             
   Description                                                                                      
     l       E           TYP  RCUT    TYP  RCUT                                                     
     0    -10.8127223     23  1.900                                                                 
     0     -7.6451159     23  1.900                                                                 
     1     -4.0811372     23  1.900                                                                 
     1      2.4879257     23  1.900                                                                 
     2     -4.0817478      7  1.900                                                                 
  local pseudopotential read in
  partial core-charges read in
  partial kinetic energy density read in
  atomic valenz-charges read in
  non local Contribution for L=           0  read in
    real space projection operators read in
  non local Contribution for L=           0  read in
    real space projection operators read in
  non local Contribution for L=           1  read in
    real space projection operators read in
  non local Contribution for L=           1  read in
    real space projection operators read in
    PAW grid and wavefunctions read in
 
   number of l-projection  operators is LMAX  =           4
   number of lm-projection operators is LMMAX =           8
 
  PAW_PBE Si 05Jan2001                  :
 energy of atom  1       EATOM= -103.0669
 kinetic energy error for atom=    0.0003 (will be added to EATOM!!)
 
 
 POSCAR: Si1
  positions in direct lattice
  No initial velocities read in
 exchange correlation table for  LEXCH =        8
   RHO(1)=    0.500       N(1)  =     2000
   RHO(2)=  100.500       N(2)  =     4000
 


--------------------------------------------------------------------------------------------------------


 ion  position               nearest neighbor table
   1  0.000  0.000  0.000-
 
  LATTYP: Found a face centered cubic cell.
 ALAT       =     3.8716117039
  
  Lattice vectors:
  
 A1 = (   2.3708689500,   0.0000000000,   1.3688206800)
 A2 = (   0.7902896500,   2.2352764500,   1.3688206800)
 A3 = (   0.0000000000,   0.0000000000,   2.7376433800)


Analysis of symmetry for initial positions (statically):
=====================================================================
 Subroutine PRICEL returns:
 Original cell was already a primitive cell.
 

 Routine SETGRP: Setting up the symmetry group for a 
 face centered cubic supercell.


 Subroutine GETGRP returns: Found 48 space group operations
 (whereof 48 operations were pure point group operations)
 out of a pool of 48 trial point group operations.


The static configuration has the point symmetry O_h .


Analysis of symmetry for dynamics (positions and initial velocities):
=====================================================================
 Subroutine PRICEL returns:
 Original cell was already a primitive cell.
 

 Routine SETGRP: Setting up the symmetry group for a 
 face centered cubic supercell.


 Subroutine GETGRP returns: Found 48 space group operations
 (whereof 48 operations were pure point group operations)
 out of a pool of 48 trial point group operations.


The dynamic configuration has the point symmetry O_h .


 Subroutine INISYM returns: Found 48 space group operations
 (whereof 48 operations are pure point group operations),
 and found     1 'primitive' translations


----------------------------------------------------------------------------------------

                                     Primitive cell                                     

  volume of cell :      14.5083

  direct lattice vectors                    reciprocal lattice vectors
     2.370868950  0.000000000  1.368820680     0.421786282 -0.149123986  0.000000000
     0.790289650  2.235276450  1.368820680     0.000000000  0.447371957  0.000000000
     0.000000000  0.000000000  2.737643380    -0.210892985 -0.149123876  0.365277672

  length of vectors
     2.737643080  2.737642890  2.737643380     0.447371916  0.447371957  0.447371835

  position of ions in fractional coordinates (direct lattice)
     0.000000000  0.000000000  0.000000000

  ion indices of the primitive-cell ions
   primitive index   ion index
                 1           1

----------------------------------------------------------------------------------------

 
 
 KPOINTS: Automatic                               

Automatic generation of k-mesh.
 Grid dimensions read from file:
 generate k-points for:   15   15   15

 Generating k-lattice:

  Cartesian coordinates                     Fractional coordinates (reciprocal lattice)
     0.028119085 -0.009941599  0.000000000     0.066666667  0.000000000  0.000000000
     0.000000000  0.029824797  0.000000000     0.000000000  0.066666667  0.000000000
    -0.014059532 -0.009941592  0.024351845     0.000000000  0.000000000  0.066666667

  Length of vectors
     0.029824794  0.029824797  0.029824789

  Shift w.r.t. Gamma in fractional coordinates (k-lattice)
     0.000000000  0.000000000  0.000000000

 
 Subroutine IBZKPT returns following result:
 ===========================================
 
 Found    120 irreducible k-points:
 
 Following reciprocal coordinates:
            Coordinates               Weight
  0.000000  0.000000  0.000000      1.000000
  0.066667  0.000000  0.000000      8.000000
  0.133333  0.000000  0.000000      8.000000
  0.200000  0.000000  0.000000      8.000000
  0.266667  0.000000  0.000000      8.000000
  0.333333 -0.000000  0.000000      8.000000
  0.400000  0.000000  0.000000      8.000000
  0.466667  0.000000  0.000000      8.000000
  0.066667  0.066667  0.000000      6.000000
  0.133333  0.066667  0.000000     24.000000
  0.200000  0.066667  0.000000     24.000000
  0.266667  0.066667  0.000000     24.000000
  0.333333  0.066667  0.000000     24.000000
  0.400000  0.066667  0.000000     24.000000
  0.466667  0.066667  0.000000     24.000000
 -0.466667  0.066667  0.000000     24.000000
 -0.400000  0.066667  0.000000     24.000000
 -0.333333  0.066667  0.000000     24.000000
 -0.266667  0.066667  0.000000     24.000000
 -0.200000  0.066667  0.000000     24.000000
 -0.133333  0.066667  0.000000     24.000000
 -0.066667  0.066667  0.000000     12.000000
  0.133333  0.133333  0.000000      6.000000
  0.200000  0.133333  0.000000     24.000000
  0.266667  0.133333  0.000000     24.000000
  0.333333  0.133333  0.000000     24.000000
  0.400000  0.133333  0.000000     24.000000
  0.466667  0.133333  0.000000     24.000000
 -0.466667  0.133333  0.000000     24.000000
 -0.400000  0.133333  0.000000     24.000000
 -0.333333  0.133333  0.000000     24.000000
 -0.266667  0.133333  0.000000     24.000000
 -0.200000  0.133333  0.000000     24.000000
 -0.133333  0.133333  0.000000     12.000000
  0.200000  0.200000  0.000000      6.000000
  0.266667  0.200000  0.000000     24.000000
  0.333333  0.200000  0.000000     24.000000
  0.400000  0.200000  0.000000     24.000000
  0.466667  0.200000  0.000000     24.000000
 -0.466667  0.200000  0.000000     24.000000
 -0.400000  0.200000  0.000000     24.000000
 -0.333333  0.200000  0.000000     24.000000
 -0.266667  0.200000  0.000000     24.000000
 -0.200000  0.200000  0.000000     12.000000
  0.266667  0.266667  0.000000      6.000000
  0.333333  0.266667  0.000000     24.000000
  0.400000  0.266667  0.000000     24.000000
  0.466667  0.266667  0.000000     24.000000
 -0.466667  0.266667  0.000000     24.000000
 -0.400000  0.266667  0.000000     24.000000
 -0.333333  0.266667  0.000000     24.000000
 -0.266667  0.266667  0.000000     12.000000
  0.333333  0.333333  0.000000      6.000000
  0.400000  0.333333  0.000000     24.000000
  0.466667  0.333333  0.000000     24.000000
 -0.466667  0.333333  0.000000     24.000000
 -0.400000  0.333333  0.000000     24.000000
 -0.333333  0.333333  0.000000     12.000000
  0.400000  0.400000  0.000000      6.000000
  0.466667  0.400000  0.000000     24.000000
 -0.466667  0.400000  0.000000     24.000000
 -0.400000  0.400000  0.000000     12.000000
  0.466667  0.466667  0.000000      6.000000
 -0.466667  0.466667  0.000000     12.000000
  0.200000  0.133333  0.066667     24.000000
  0.266667  0.133333  0.066667     48.000000
  0.333333  0.133333  0.066667     48.000000
  0.400000  0.133333  0.066667     48.000000
  0.466667  0.133333  0.066667     48.000000
 -0.466667  0.133333  0.066667     48.000000
  0.266667  0.200000  0.066667     24.000000
  0.333333  0.200000  0.066667     48.000000
  0.400000  0.200000  0.066667     48.000000
  0.466667  0.200000  0.066667     48.000000
 -0.466667  0.200000  0.066667     48.000000
 -0.400000  0.200000  0.066667     48.000000
 -0.333333  0.200000  0.066667     48.000000
 -0.266667  0.200000  0.066667     48.000000
 -0.200000  0.200000  0.066667     48.000000
 -0.133333  0.200000  0.066667     24.000000
  0.333333  0.266667  0.066667     24.000000
  0.400000  0.266667  0.066667     48.000000
  0.466667  0.266667  0.066667     48.000000
 -0.466667  0.266667  0.066667     48.000000
 -0.400000  0.266667  0.066667     48.000000
 -0.333333  0.266667  0.066667     48.000000
 -0.266667  0.266667  0.066667     48.000000
 -0.200000  0.266667  0.066667     24.000000
  0.400000  0.333333  0.066667     24.000000
  0.466667  0.333333  0.066667     48.000000
 -0.466667  0.333333  0.066667     48.000000
 -0.400000  0.333333  0.066667     48.000000
 -0.333333  0.333333  0.066667     48.000000
 -0.266667  0.333333  0.066667     24.000000
  0.466667  0.400000  0.066667     24.000000
 -0.466667  0.400000  0.066667     48.000000
 -0.400000  0.400000  0.066667     48.000000
 -0.333333  0.400000  0.066667     24.000000
 -0.466667  0.466667  0.066667     24.000000
 -0.400000  0.466667  0.066667     24.000000
  0.400000  0.266667  0.133333     24.000000
  0.466667  0.266667  0.133333     48.000000
 -0.466667  0.266667  0.133333     48.000000
 -0.400000  0.266667  0.133333     48.000000
  0.466667  0.333333  0.133333     24.000000
 -0.466667  0.333333  0.133333     48.000000
 -0.400000  0.333333  0.133333     48.000000
 -0.333333  0.333333  0.133333     48.000000
 -0.266667  0.333333  0.133333     48.000000
 -0.200000  0.333333  0.133333     24.000000
 -0.466667  0.400000  0.133333     24.000000
 -0.400000  0.400000  0.133333     48.000000
 -0.333333  0.400000  0.133333     48.000000
 -0.266667  0.400000  0.133333     24.000000
 -0.400000  0.466667  0.133333     24.000000
 -0.333333  0.466667  0.133333     24.000000
 -0.400000  0.400000  0.200000     24.000000
 -0.333333  0.400000  0.200000     48.000000
 -0.333333  0.466667  0.200000     24.000000
 -0.266667  0.466667  0.200000     24.000000
 
 Following cartesian coordinates:
            Coordinates               Weight
  0.000000  0.000000  0.000000      1.000000
  0.028400 -0.010041  0.000000      8.000000
  0.056801 -0.020082  0.000000      8.000000
  0.085201 -0.030123  0.000000      8.000000
  0.113601 -0.040164  0.000000      8.000000
  0.142001 -0.050205  0.000000      8.000000
  0.170402 -0.060246  0.000000      8.000000
  0.198802 -0.070287  0.000000      8.000000
  0.028400  0.020082  0.000000      6.000000
  0.056801  0.010041  0.000000     24.000000
  0.085201  0.000000  0.000000     24.000000
  0.113601 -0.010041  0.000000     24.000000
  0.142001 -0.020082  0.000000     24.000000
  0.170402 -0.030123  0.000000     24.000000
  0.198802 -0.040164  0.000000     24.000000
 -0.198802  0.100410  0.000000     24.000000
 -0.170402  0.090369  0.000000     24.000000
 -0.142001  0.080328  0.000000     24.000000
 -0.113601  0.070287  0.000000     24.000000
 -0.085201  0.060246  0.000000     24.000000
 -0.056801  0.050205  0.000000     24.000000
 -0.028400  0.040164  0.000000     12.000000
  0.056801  0.040164  0.000000      6.000000
  0.085201  0.030123  0.000000     24.000000
  0.113601  0.020082  0.000000     24.000000
  0.142001  0.010041  0.000000     24.000000
  0.170402  0.000000  0.000000     24.000000
  0.198802 -0.010041  0.000000     24.000000
 -0.198802  0.130533  0.000000     24.000000
 -0.170402  0.120492  0.000000     24.000000
 -0.142001  0.110451  0.000000     24.000000
 -0.113601  0.100410  0.000000     24.000000
 -0.085201  0.090369  0.000000     24.000000
 -0.056801  0.080328  0.000000     12.000000
  0.085201  0.060246  0.000000      6.000000
  0.113601  0.050205  0.000000     24.000000
  0.142001  0.040164  0.000000     24.000000
  0.170402  0.030123  0.000000     24.000000
  0.198802  0.020082  0.000000     24.000000
 -0.198802  0.160656  0.000000     24.000000
 -0.170402  0.150615  0.000000     24.000000
 -0.142001  0.140574  0.000000     24.000000
 -0.113601  0.130533  0.000000     24.000000
 -0.085201  0.120492  0.000000     12.000000
  0.113601  0.080328  0.000000      6.000000
  0.142001  0.070287  0.000000     24.000000
  0.170402  0.060246  0.000000     24.000000
  0.198802  0.050205  0.000000     24.000000
 -0.198802  0.190779  0.000000     24.000000
 -0.170402  0.180738  0.000000     24.000000
 -0.142001  0.170697  0.000000     24.000000
 -0.113601  0.160656  0.000000     12.000000
  0.142001  0.100410  0.000000      6.000000
  0.170402  0.090369  0.000000     24.000000
  0.198802  0.080328  0.000000     24.000000
 -0.198802  0.220902  0.000000     24.000000
 -0.170402  0.210861  0.000000     24.000000
 -0.142001  0.200820  0.000000     12.000000
  0.170402  0.120492  0.000000      6.000000
  0.198802  0.110451  0.000000     24.000000
 -0.198802  0.251025  0.000000     24.000000
 -0.170402  0.240984  0.000000     12.000000
  0.198802  0.140574  0.000000      6.000000
 -0.198802  0.281148  0.000000     12.000000
  0.071001  0.020082  0.024595     24.000000
  0.099401  0.010041  0.024595     48.000000
  0.127801  0.000000  0.024595     48.000000
  0.156202 -0.010041  0.024595     48.000000
  0.184602 -0.020082  0.024595     48.000000
 -0.213002  0.120492  0.024595     48.000000
  0.099401  0.040164  0.024595     24.000000
  0.127801  0.030123  0.024595     48.000000
  0.156202  0.020082  0.024595     48.000000
  0.184602  0.010041  0.024595     48.000000
 -0.213002  0.150615  0.024595     48.000000
 -0.184602  0.140574  0.024595     48.000000
 -0.156202  0.130533  0.024595     48.000000
 -0.127801  0.120492  0.024595     48.000000
 -0.099401  0.110451  0.024595     48.000000
 -0.071001  0.100410  0.024595     24.000000
  0.127801  0.060246  0.024595     24.000000
  0.156202  0.050205  0.024595     48.000000
  0.184602  0.040164  0.024595     48.000000
 -0.213002  0.180738  0.024595     48.000000
 -0.184602  0.170697  0.024595     48.000000
 -0.156202  0.160656  0.024595     48.000000
 -0.127801  0.150615  0.024595     48.000000
 -0.099401  0.140574  0.024595     24.000000
  0.156202  0.080328  0.024595     24.000000
  0.184602  0.070287  0.024595     48.000000
 -0.213002  0.210861  0.024595     48.000000
 -0.184602  0.200820  0.024595     48.000000
 -0.156202  0.190779  0.024595     48.000000
 -0.127801  0.180738  0.024595     24.000000
  0.184602  0.100410  0.024595     24.000000
 -0.213002  0.240984  0.024595     48.000000
 -0.184602  0.230943  0.024595     48.000000
 -0.156202  0.220902  0.024595     24.000000
 -0.213002  0.271107  0.024595     24.000000
 -0.184602  0.261066  0.024595     24.000000
  0.142001  0.040164  0.049191     24.000000
  0.170402  0.030123  0.049191     48.000000
 -0.227202  0.170697  0.049191     48.000000
 -0.198802  0.160656  0.049191     48.000000
  0.170402  0.060246  0.049191     24.000000
 -0.227202  0.200820  0.049191     48.000000
 -0.198802  0.190779  0.049191     48.000000
 -0.170402  0.180738  0.049191     48.000000
 -0.142001  0.170697  0.049191     48.000000
 -0.113601  0.160656  0.049191     24.000000
 -0.227202  0.230943  0.049191     24.000000
 -0.198802  0.220902  0.049191     48.000000
 -0.170402  0.210861  0.049191     48.000000
 -0.142001  0.200820  0.049191     24.000000
 -0.198802  0.251025  0.049191     24.000000
 -0.170402  0.240984  0.049191     24.000000
 -0.213002  0.210861  0.073786     24.000000
 -0.184602  0.200820  0.073786     48.000000
 -0.184602  0.230943  0.073786     24.000000
 -0.156201  0.220902  0.073786     24.000000
 


--------------------------------------------------------------------------------------------------------




 Dimension of arrays:
   k-points           NKPTS =    120   k-points in BZ     NKDIM =    120   number of bands    NBANDS=      8
   number of dos      NEDOS =    301   number of ions     NIONS =      1
   non local maximal  LDIM  =      4   non local SUM 2l+1 LMDIM =      8
   total plane-waves  NPLWV =  13824
   max r-space proj   IRMAX =      1   max aug-charges    IRDMAX= 255034
   dimension x,y,z NGX =    24 NGY =   24 NGZ =   24
   dimension x,y,z NGXF=    48 NGYF=   48 NGZF=   48
   support grid    NGXF=    96 NGYF=   96 NGZF=   96
   ions per type =               1
   NGX,Y,Z   is equivalent  to a cutoff of  14.57, 14.57, 14.57 a.u.
   NGXF,Y,Z  is equivalent  to a cutoff of  29.15, 29.15, 29.15 a.u.

 SYSTEM =  unknown system                          
 POSCAR =  Si1                                     

 Startparameter for this run:
   NWRITE =      2    write-flag & timer
   PREC   = accura    normal or accurate (medium, high low for compatibility)
   ISTART =      0    job   : 0-new  1-cont  2-samecut
   ICHARG =      2    charge: 1-file 2-atom 10-const
   ISPIN  =      1    spin polarized calculation?
   LNONCOLLINEAR =      F non collinear calculations
   LSORBIT =      F    spin-orbit coupling
   INIWAV =      1    electr: 0-lowe 1-rand  2-diag
   LASPH  =      T    aspherical Exc in radial PAW
   METAGGA=      F    non-selfconsistent MetaGGA calc.

 Electronic Relaxation 1
   ENCUT  =  700.0 eV  51.45 Ry    7.17 a.u.   5.91  5.91  5.91*2*pi/ulx,y,z
   ENINI  =  700.0     initial cutoff
   ENAUG  =  322.1 eV  augmentation charge cutoff
   NELM   =     90;   NELMIN=  6; NELMDL= -5     # of ELM steps 
   EDIFF  = 0.1E-05   stopping-criterion for ELM
   LREAL  =      F    real-space projection
   NLSPLINE    = F    spline interpolate recip. space projectors
   LCOMPAT=      F    compatible to vasp.4.4
   GGA_COMPAT  = T    GGA compatible to vasp.4.4-vasp.4.6
   LMAXPAW     = -100 max onsite density
   LMAXMIX     =    2 max onsite mixed and CHGCAR
   VOSKOWN=      0    Vosko Wilk Nusair interpolation
   ROPT   =    0.00000
 Ionic relaxation
   EDIFFG = -.2E-02   stopping-criterion for IOM
   NSW    =    100    number of steps for IOM
   NBLOCK =      1;   KBLOCK =    100    inner block; outer block 
   IBRION =      2    ionic relax: 0-MD 1-quasi-New 2-CG
   NFREE  =      1    steps in history (QN), initial steepest desc. (CG)
   ISIF   =      2    stress and relaxation
   IWAVPR =     11    prediction:  0-non 1-charg 2-wave 3-comb
   ISYM   =      2    0-nonsym 1-usesym 2-fastsym
   LCORR  =      T    Harris-Foulkes like correction to forces

   POTIM  = 0.5000    time-step for ionic-motion
   TEIN   =    0.0    initial temperature
   TEBEG  =    0.0;   TEEND  =   0.0 temperature during run
   SMASS  =  -3.00    Nose mass-parameter (am)
   estimated Nose-frequenzy (Omega)   =  0.10E-29 period in steps = 0.13E+47 mass=  -0.171E-27a.u.
   SCALEE = 1.0000    scale energy and forces
   NPACO  =    256;   APACO  = 16.0  distance and # of slots for P.C.
   PSTRESS=    0.0 pullay stress

  Mass of Ions in am
   POMASS =  28.09
  Ionic Valenz
   ZVAL   =   4.00
  Atomic Wigner-Seitz radii
   RWIGS  =  -1.00
  virtual crystal weights 
   VCA    =   1.00
   NELECT =       4.0000    total number of electrons
   NUPDOWN=      -1.0000    fix difference up-down

 DOS related values:
   EMIN   =  10.00;   EMAX   =-10.00  energy-range for DOS
   EFERMI =   0.00
   ISMEAR =     0;   SIGMA  =   0.05  broadening in eV -4-tet -1-fermi 0-gaus

 Electronic relaxation 2 (details)
   IALGO  =     38    algorithm
   LDIAG  =      T    sub-space diagonalisation (order eigenvalues)
   LSUBROT=      F    optimize rotation matrix (better conditioning)
   TURBO    =      0    0=normal 1=particle mesh
   IRESTART =      0    0=no restart 2=restart with 2 vectors
   NREBOOT  =      0    no. of reboots
   NMIN     =      0    reboot dimension
   EREF     =   0.00    reference energy to select bands
   IMIX   =      4    mixing-type and parameters
     AMIX     =   0.40;   BMIX     =  1.00
     AMIX_MAG =   1.60;   BMIX_MAG =  1.00
     AMIN     =   0.10
     WC   =   100.;   INIMIX=   1;  MIXPRE=   1;  MAXMIX= -45

 Intra band minimization:
   WEIMIN = 0.0010     energy-eigenvalue tresh-hold
   EBREAK =  0.31E-07  absolut break condition
   DEPER  =   0.30     relativ break condition  

   TIME   =   0.40     timestep for ELM

  volume/ion in A,a.u.               =      14.51        97.91
  Fermi-wavevector in a.u.,A,eV,Ry     =   1.065507  2.013516 15.446762  1.135305
  Thomas-Fermi vector in A             =   2.201061
 
 Write flags
   LWAVE        =      F    write WAVECAR
   LDOWNSAMPLE  =      F    k-point downsampling of WAVECAR
   LCHARG       =      F    write CHGCAR
   LVTOT        =      F    write LOCPOT, total local potential
   LVHAR        =      F    write LOCPOT, Hartree potential only
   LELF         =      F    write electronic localiz. function (ELF)
   LORBIT       =      0    0 simple, 1 ext, 2 COOP (PROOUT), +10 PAW based schemes


 Dipole corrections
   LMONO  =      F    monopole corrections only (constant potential shift)
   LDIPOL =      F    correct potential (dipole corrections)
   IDIPOL =      0    1-x, 2-y, 3-z, 4-all directions 
   EPSILON=  1.0000000 bulk dielectric constant

 Exchange correlation treatment:
   GGA     =    --    GGA type
   LEXCH   =     8    internal setting for exchange type
   VOSKOWN=      0    Vosko Wilk Nusair interpolation
   LHFCALC =     F    Hartree Fock is set to
   LHFONE  =     F    Hartree Fock one center treatment
   AEXX    =    0.0000 exact exchange contribution

 Linear response parameters
   LEPSILON=     F    determine dielectric tensor
   LRPA    =     F    only Hartree local field effects (RPA)
   LNABLA  =     F    use nabla operator in PAW spheres
   LVEL    =     F    velocity operator in full k-point grid
   LINTERFAST=   F  fast interpolation
   KINTER  =     0    interpolate to denser k-point grid
   CSHIFT  =0.1000    complex shift for real part using Kramers Kronig
   OMEGAMAX=  -1.0    maximum frequency
   DEG_THRESHOLD= 0.2000000E-02 threshold for treating states as degnerate
   RTIME   =   -0.100 relaxation time in fs
  (WPLASMAI=    0.000 imaginary part of plasma frequency in eV, 0.658/RTIME)
   DFIELD  = 0.0000000 0.0000000 0.0000000 field for delta impulse in time
 
 Orbital magnetization related:
   ORBITALMAG=     F  switch on orbital magnetization
   LCHIMAG   =     F  perturbation theory with respect to B field
   DQ        =  0.001000  dq finite difference perturbation B field
   LLRAUG    =     F  two centre corrections for induced B field



--------------------------------------------------------------------------------------------------------


 conjugate gradient relaxation of ions
 charge density and potential will be updated during run
 non-spin polarized calculation
 Variant of blocked Davidson
 Davidson routine will perform the subspace rotation
 perform sub-space diagonalisation
    after iterative eigenvector-optimisation
 modified Broyden-mixing scheme, WC =      100.0
 initial mixing is a Kerker type mixing with AMIX =  0.4000 and BMIX =      1.0000
 Hartree-type preconditioning will be used
 using additional bands            6
 reciprocal scheme for non local part
 use partial core corrections
 calculate Harris-corrections to forces 
   (improved forces if not selfconsistent)
 use gradient corrections 
 use of overlap-Matrix (Vanderbilt PP)
 Gauss-broadening in eV      SIGMA  =   0.05


--------------------------------------------------------------------------------------------------------


  energy-cutoff  :      700.00
  volume of cell :       14.51
      direct lattice vectors                 reciprocal lattice vectors
     2.370868950  0.000000000  1.368820680     0.421786282 -0.149123986  0.000000000
     0.790289650  2.235276450  1.368820680     0.000000000  0.447371957  0.000000000
     0.000000000  0.000000000  2.737643380    -0.210892985 -0.149123876  0.365277672

  length of vectors
     2.737643080  2.737642890  2.737643380     0.447371916  0.447371957  0.447371835


 
 k-points in units of 2pi/SCALE and weight: Automatic                               
   0.00000000  0.00000000  0.00000000       0.000
   0.02840028 -0.01004102  0.00000000       0.002
   0.05680055 -0.02008203  0.00000000       0.002
   0.08520083 -0.03012305  0.00000000       0.002
   0.11360111 -0.04016406  0.00000000       0.002
   0.14200138 -0.05020508  0.00000000       0.002
   0.17040166 -0.06024609  0.00000000       0.002
   0.19880193 -0.07028711  0.00000000       0.002
   0.02840028  0.02008203  0.00000000       0.002
   0.05680055  0.01004102  0.00000000       0.007
   0.08520083  0.00000000  0.00000000       0.007
   0.11360111 -0.01004102  0.00000000       0.007
   0.14200138 -0.02008203  0.00000000       0.007
   0.17040166 -0.03012305  0.00000000       0.007
   0.19880193 -0.04016406  0.00000000       0.007
  -0.19880193  0.10041015  0.00000000       0.007
  -0.17040166  0.09036914  0.00000000       0.007
  -0.14200138  0.08032812  0.00000000       0.007
  -0.11360111  0.07028711  0.00000000       0.007
  -0.08520083  0.06024609  0.00000000       0.007
  -0.05680055  0.05020508  0.00000000       0.007
  -0.02840028  0.04016406  0.00000000       0.004
   0.05680055  0.04016406  0.00000000       0.002
   0.08520083  0.03012305  0.00000000       0.007
   0.11360111  0.02008203  0.00000000       0.007
   0.14200138  0.01004102  0.00000000       0.007
   0.17040166  0.00000000  0.00000000       0.007
   0.19880193 -0.01004102  0.00000000       0.007
  -0.19880193  0.13053320  0.00000000       0.007
  -0.17040166  0.12049218  0.00000000       0.007
  -0.14200138  0.11045117  0.00000000       0.007
  -0.11360111  0.10041015  0.00000000       0.007
  -0.08520083  0.09036914  0.00000000       0.007
  -0.05680055  0.08032812  0.00000000       0.004
   0.08520083  0.06024609  0.00000000       0.002
   0.11360111  0.05020508  0.00000000       0.007
   0.14200138  0.04016406  0.00000000       0.007
   0.17040166  0.03012305  0.00000000       0.007
   0.19880193  0.02008203  0.00000000       0.007
  -0.19880193  0.16065624  0.00000000       0.007
  -0.17040166  0.15061523  0.00000000       0.007
  -0.14200138  0.14057421  0.00000000       0.007
  -0.11360111  0.13053320  0.00000000       0.007
  -0.08520083  0.12049218  0.00000000       0.004
   0.11360111  0.08032812  0.00000000       0.002
   0.14200138  0.07028711  0.00000000       0.007
   0.17040166  0.06024609  0.00000000       0.007
   0.19880193  0.05020508  0.00000000       0.007
  -0.19880193  0.19077929  0.00000000       0.007
  -0.17040166  0.18073827  0.00000000       0.007
  -0.14200138  0.17069726  0.00000000       0.007
  -0.11360111  0.16065624  0.00000000       0.004
   0.14200138  0.10041015  0.00000000       0.002
   0.17040166  0.09036914  0.00000000       0.007
   0.19880193  0.08032812  0.00000000       0.007
  -0.19880193  0.22090233  0.00000000       0.007
  -0.17040166  0.21086132  0.00000000       0.007
  -0.14200138  0.20082030  0.00000000       0.004
   0.17040166  0.12049218  0.00000000       0.002
   0.19880193  0.11045117  0.00000000       0.007
  -0.19880193  0.25102538  0.00000000       0.007
  -0.17040166  0.24098436  0.00000000       0.004
   0.19880193  0.14057421  0.00000000       0.002
  -0.19880193  0.28114842  0.00000000       0.004
   0.07100070  0.02008204  0.02459536       0.007
   0.09940098  0.01004102  0.02459536       0.014
   0.12780125  0.00000001  0.02459536       0.014
   0.15620153 -0.01004101  0.02459536       0.014
   0.18460181 -0.02008202  0.02459536       0.014
  -0.21300206  0.12049219  0.02459536       0.014
   0.09940098  0.04016407  0.02459536       0.007
   0.12780125  0.03012305  0.02459536       0.014
   0.15620153  0.02008204  0.02459536       0.014
   0.18460181  0.01004102  0.02459536       0.014
  -0.21300206  0.15061523  0.02459536       0.014
  -0.18460179  0.14057422  0.02459536       0.014
  -0.15620151  0.13053320  0.02459536       0.014
  -0.12780123  0.12049219  0.02459536       0.014
  -0.09940096  0.11045117  0.02459536       0.014
  -0.07100068  0.10041016  0.02459536       0.007
   0.12780125  0.06024610  0.02459536       0.007
   0.15620153  0.05020508  0.02459536       0.014
   0.18460181  0.04016407  0.02459536       0.014
  -0.21300206  0.18073828  0.02459536       0.014
  -0.18460179  0.17069726  0.02459536       0.014
  -0.15620151  0.16065625  0.02459536       0.014
  -0.12780123  0.15061523  0.02459536       0.014
  -0.09940096  0.14057422  0.02459536       0.007
   0.15620153  0.08032813  0.02459536       0.007
   0.18460181  0.07028711  0.02459536       0.014
  -0.21300206  0.21086132  0.02459536       0.014
  -0.18460179  0.20082031  0.02459536       0.014
  -0.15620151  0.19077929  0.02459536       0.014
  -0.12780123  0.18073828  0.02459536       0.007
   0.18460181  0.10041016  0.02459536       0.007
  -0.21300206  0.24098437  0.02459536       0.014
  -0.18460179  0.23094335  0.02459536       0.014
  -0.15620151  0.22090234  0.02459536       0.007
  -0.21300206  0.27110741  0.02459536       0.007
  -0.18460179  0.26106640  0.02459536       0.007
   0.14200140  0.04016407  0.04919073       0.007
   0.17040168  0.03012306  0.04919073       0.014
  -0.22720219  0.17069727  0.04919073       0.014
  -0.19880191  0.16065626  0.04919073       0.014
   0.17040168  0.06024611  0.04919073       0.007
  -0.22720219  0.20082032  0.04919073       0.014
  -0.19880191  0.19077930  0.04919073       0.014
  -0.17040164  0.18073829  0.04919073       0.014
  -0.14200136  0.17069727  0.04919073       0.014
  -0.11360108  0.16065626  0.04919073       0.007
  -0.22720219  0.23094336  0.04919073       0.007
  -0.19880191  0.22090235  0.04919073       0.014
  -0.17040164  0.21086133  0.04919073       0.014
  -0.14200136  0.20082032  0.04919073       0.007
  -0.19880191  0.25102539  0.04919073       0.007
  -0.17040164  0.24098438  0.04919073       0.007
  -0.21300204  0.21086134  0.07378609       0.007
  -0.18460176  0.20082032  0.07378609       0.014
  -0.18460176  0.23094337  0.07378609       0.007
  -0.15620149  0.22090235  0.07378609       0.007
 
 k-points in reciprocal lattice and weights: Automatic                               
   0.00000000  0.00000000  0.00000000       0.000
   0.06666667  0.00000000  0.00000000       0.002
   0.13333333  0.00000000  0.00000000       0.002
   0.20000000  0.00000000  0.00000000       0.002
   0.26666667  0.00000000  0.00000000       0.002
   0.33333333 -0.00000000  0.00000000       0.002
   0.40000000  0.00000000  0.00000000       0.002
   0.46666667  0.00000000  0.00000000       0.002
   0.06666667  0.06666667  0.00000000       0.002
   0.13333333  0.06666667  0.00000000       0.007
   0.20000000  0.06666667  0.00000000       0.007
   0.26666667  0.06666667  0.00000000       0.007
   0.33333333  0.06666667  0.00000000       0.007
   0.40000000  0.06666667  0.00000000       0.007
   0.46666667  0.06666667  0.00000000       0.007
  -0.46666667  0.06666667  0.00000000       0.007
  -0.40000000  0.06666667  0.00000000       0.007
  -0.33333333  0.06666667  0.00000000       0.007
  -0.26666667  0.06666667  0.00000000       0.007
  -0.20000000  0.06666667  0.00000000       0.007
  -0.13333333  0.06666667  0.00000000       0.007
  -0.06666667  0.06666667  0.00000000       0.004
   0.13333333  0.13333333  0.00000000       0.002
   0.20000000  0.13333333  0.00000000       0.007
   0.26666667  0.13333333  0.00000000       0.007
   0.33333333  0.13333333  0.00000000       0.007
   0.40000000  0.13333333  0.00000000       0.007
   0.46666667  0.13333333  0.00000000       0.007
  -0.46666667  0.13333333  0.00000000       0.007
  -0.40000000  0.13333333  0.00000000       0.007
  -0.33333333  0.13333333  0.00000000       0.007
  -0.26666667  0.13333333  0.00000000       0.007
  -0.20000000  0.13333333  0.00000000       0.007
  -0.13333333  0.13333333  0.00000000       0.004
   0.20000000  0.20000000  0.00000000       0.002
   0.26666667  0.20000000  0.00000000       0.007
   0.33333333  0.20000000  0.00000000       0.007
   0.40000000  0.20000000  0.00000000       0.007
   0.46666667  0.20000000  0.00000000       0.007
  -0.46666667  0.20000000  0.00000000       0.007
  -0.40000000  0.20000000  0.00000000       0.007
  -0.33333333  0.20000000  0.00000000       0.007
  -0.26666667  0.20000000  0.00000000       0.007
  -0.20000000  0.20000000  0.00000000       0.004
   0.26666667  0.26666667  0.00000000       0.002
   0.33333333  0.26666667  0.00000000       0.007
   0.40000000  0.26666667  0.00000000       0.007
   0.46666667  0.26666667  0.00000000       0.007
  -0.46666667  0.26666667  0.00000000       0.007
  -0.40000000  0.26666667  0.00000000       0.007
  -0.33333333  0.26666667  0.00000000       0.007
  -0.26666667  0.26666667  0.00000000       0.004
   0.33333333  0.33333333  0.00000000       0.002
   0.40000000  0.33333333  0.00000000       0.007
   0.46666667  0.33333333  0.00000000       0.007
  -0.46666667  0.33333333  0.00000000       0.007
  -0.40000000  0.33333333  0.00000000       0.007
  -0.33333333  0.33333333  0.00000000       0.004
   0.40000000  0.40000000  0.00000000       0.002
   0.46666667  0.40000000  0.00000000       0.007
  -0.46666667  0.40000000  0.00000000       0.007
  -0.40000000  0.40000000  0.00000000       0.004
   0.46666667  0.46666667  0.00000000       0.002
  -0.46666667  0.46666667  0.00000000       0.004
   0.20000000  0.13333333  0.06666667       0.007
   0.26666667  0.13333333  0.06666667       0.014
   0.33333333  0.13333333  0.06666667       0.014
   0.40000000  0.13333333  0.06666667       0.014
   0.46666667  0.13333333  0.06666667       0.014
  -0.46666667  0.13333333  0.06666667       0.014
   0.26666667  0.20000000  0.06666667       0.007
   0.33333333  0.20000000  0.06666667       0.014
   0.40000000  0.20000000  0.06666667       0.014
   0.46666667  0.20000000  0.06666667       0.014
  -0.46666667  0.20000000  0.06666667       0.014
  -0.40000000  0.20000000  0.06666667       0.014
  -0.33333333  0.20000000  0.06666667       0.014
  -0.26666667  0.20000000  0.06666667       0.014
  -0.20000000  0.20000000  0.06666667       0.014
  -0.13333333  0.20000000  0.06666667       0.007
   0.33333333  0.26666667  0.06666667       0.007
   0.40000000  0.26666667  0.06666667       0.014
   0.46666667  0.26666667  0.06666667       0.014
  -0.46666667  0.26666667  0.06666667       0.014
  -0.40000000  0.26666667  0.06666667       0.014
  -0.33333333  0.26666667  0.06666667       0.014
  -0.26666667  0.26666667  0.06666667       0.014
  -0.20000000  0.26666667  0.06666667       0.007
   0.40000000  0.33333333  0.06666667       0.007
   0.46666667  0.33333333  0.06666667       0.014
  -0.46666667  0.33333333  0.06666667       0.014
  -0.40000000  0.33333333  0.06666667       0.014
  -0.33333333  0.33333333  0.06666667       0.014
  -0.26666667  0.33333333  0.06666667       0.007
   0.46666667  0.40000000  0.06666667       0.007
  -0.46666667  0.40000000  0.06666667       0.014
  -0.40000000  0.40000000  0.06666667       0.014
  -0.33333333  0.40000000  0.06666667       0.007
  -0.46666667  0.46666667  0.06666667       0.007
  -0.40000000  0.46666667  0.06666667       0.007
   0.40000000  0.26666667  0.13333333       0.007
   0.46666667  0.26666667  0.13333333       0.014
  -0.46666667  0.26666667  0.13333333       0.014
  -0.40000000  0.26666667  0.13333333       0.014
   0.46666667  0.33333333  0.13333333       0.007
  -0.46666667  0.33333333  0.13333333       0.014
  -0.40000000  0.33333333  0.13333333       0.014
  -0.33333333  0.33333333  0.13333333       0.014
  -0.26666667  0.33333333  0.13333333       0.014
  -0.20000000  0.33333333  0.13333333       0.007
  -0.46666667  0.40000000  0.13333333       0.007
  -0.40000000  0.40000000  0.13333333       0.014
  -0.33333333  0.40000000  0.13333333       0.014
  -0.26666667  0.40000000  0.13333333       0.007
  -0.40000000  0.46666667  0.13333333       0.007
  -0.33333333  0.46666667  0.13333333       0.007
  -0.40000000  0.40000000  0.20000000       0.007
  -0.33333333  0.40000000  0.20000000       0.014
  -0.33333333  0.46666667  0.20000000       0.007
  -0.26666667  0.46666667  0.20000000       0.007
 
 position of ions in fractional coordinates (direct lattice) 
   0.00000000  0.00000000  0.00000000
 
 position of ions in cartesian coordinates  (Angst):
   0.00000000  0.00000000  0.00000000
 


--------------------------------------------------------------------------------------------------------


 k-point   1 :   0.0000 0.0000 0.0000  plane waves:     609
 k-point   2 :   0.0667 0.0000 0.0000  plane waves:     606
 k-point   3 :   0.1333 0.0000 0.0000  plane waves:     603
 k-point   4 :   0.2000 0.0000 0.0000  plane waves:     592
 k-point   5 :   0.2667 0.0000 0.0000  plane waves:     607
 k-point   6 :   0.3333-0.0000 0.0000  plane waves:     613
 k-point   7 :   0.4000 0.0000 0.0000  plane waves:     604
 k-point   8 :   0.4667 0.0000 0.0000  plane waves:     610
 k-point   9 :   0.0667 0.0667 0.0000  plane waves:     605
 k-point  10 :   0.1333 0.0667 0.0000  plane waves:     599
 k-point  11 :   0.2000 0.0667 0.0000  plane waves:     598
 k-point  12 :   0.2667 0.0667 0.0000  plane waves:     607
 k-point  13 :   0.3333 0.0667 0.0000  plane waves:     607
 k-point  14 :   0.4000 0.0667 0.0000  plane waves:     604
 k-point  15 :   0.4667 0.0667 0.0000  plane waves:     604
 k-point  16 :  -0.4667 0.0667 0.0000  plane waves:     610
 k-point  17 :  -0.4000 0.0667 0.0000  plane waves:     608
 k-point  18 :  -0.3333 0.0667 0.0000  plane waves:     607
 k-point  19 :  -0.2667 0.0667 0.0000  plane waves:     607
 k-point  20 :  -0.2000 0.0667 0.0000  plane waves:     602
 k-point  21 :  -0.1333 0.0667 0.0000  plane waves:     598
 k-point  22 :  -0.0667 0.0667 0.0000  plane waves:     602
 k-point  23 :   0.1333 0.1333 0.0000  plane waves:     597
 k-point  24 :   0.2000 0.1333 0.0000  plane waves:     599
 k-point  25 :   0.2667 0.1333 0.0000  plane waves:     604
 k-point  26 :   0.3333 0.1333 0.0000  plane waves:     609
 k-point  27 :   0.4000 0.1333 0.0000  plane waves:     609
 k-point  28 :   0.4667 0.1333 0.0000  plane waves:     604
 k-point  29 :  -0.4667 0.1333 0.0000  plane waves:     610
 k-point  30 :  -0.4000 0.1333 0.0000  plane waves:     604
 k-point  31 :  -0.3333 0.1333 0.0000  plane waves:     608
 k-point  32 :  -0.2667 0.1333 0.0000  plane waves:     609
 k-point  33 :  -0.2000 0.1333 0.0000  plane waves:     607
 k-point  34 :  -0.1333 0.1333 0.0000  plane waves:     608
 k-point  35 :   0.2000 0.2000 0.0000  plane waves:     600
 k-point  36 :   0.2667 0.2000 0.0000  plane waves:     607
 k-point  37 :   0.3333 0.2000 0.0000  plane waves:     608
 k-point  38 :   0.4000 0.2000 0.0000  plane waves:     617
 k-point  39 :   0.4667 0.2000 0.0000  plane waves:     609
 k-point  40 :  -0.4667 0.2000 0.0000  plane waves:     615
 k-point  41 :  -0.4000 0.2000 0.0000  plane waves:     613
 k-point  42 :  -0.3333 0.2000 0.0000  plane waves:     610
 k-point  43 :  -0.2667 0.2000 0.0000  plane waves:     611
 k-point  44 :  -0.2000 0.2000 0.0000  plane waves:     602
 k-point  45 :   0.2667 0.2667 0.0000  plane waves:     592
 k-point  46 :   0.3333 0.2667 0.0000  plane waves:     613
 k-point  47 :   0.4000 0.2667 0.0000  plane waves:     610
 k-point  48 :   0.4667 0.2667 0.0000  plane waves:     610
 k-point  49 :  -0.4667 0.2667 0.0000  plane waves:     611
 k-point  50 :  -0.4000 0.2667 0.0000  plane waves:     612
 k-point  51 :  -0.3333 0.2667 0.0000  plane waves:     612
 k-point  52 :  -0.2667 0.2667 0.0000  plane waves:     610
 k-point  53 :   0.3333 0.3333 0.0000  plane waves:     612
 k-point  54 :   0.4000 0.3333 0.0000  plane waves:     614
 k-point  55 :   0.4667 0.3333 0.0000  plane waves:     609
 k-point  56 :  -0.4667 0.3333 0.0000  plane waves:     619
 k-point  57 :  -0.4000 0.3333 0.0000  plane waves:     614
 k-point  58 :  -0.3333 0.3333 0.0000  plane waves:     606
 k-point  59 :   0.4000 0.4000 0.0000  plane waves:     620
 k-point  60 :   0.4667 0.4000 0.0000  plane waves:     614
 k-point  61 :  -0.4667 0.4000 0.0000  plane waves:     615
 k-point  62 :  -0.4000 0.4000 0.0000  plane waves:     614
 k-point  63 :   0.4667 0.4667 0.0000  plane waves:     620
 k-point  64 :  -0.4667 0.4667 0.0000  plane waves:     616
 k-point  65 :   0.2000 0.1333 0.0667  plane waves:     597
 k-point  66 :   0.2667 0.1333 0.0667  plane waves:     601
 k-point  67 :   0.3333 0.1333 0.0667  plane waves:     606
 k-point  68 :   0.4000 0.1333 0.0667  plane waves:     612
 k-point  69 :   0.4667 0.1333 0.0667  plane waves:     606
 k-point  70 :  -0.4667 0.1333 0.0667  plane waves:     608
 k-point  71 :   0.2667 0.2000 0.0667  plane waves:     595
 k-point  72 :   0.3333 0.2000 0.0667  plane waves:     605
 k-point  73 :   0.4000 0.2000 0.0667  plane waves:     611
 k-point  74 :   0.4667 0.2000 0.0667  plane waves:     607
 k-point  75 :  -0.4667 0.2000 0.0667  plane waves:     606
 k-point  76 :  -0.4000 0.2000 0.0667  plane waves:     606
 k-point  77 :  -0.3333 0.2000 0.0667  plane waves:     607
 k-point  78 :  -0.2667 0.2000 0.0667  plane waves:     610
 k-point  79 :  -0.2000 0.2000 0.0667  plane waves:     610
 k-point  80 :  -0.1333 0.2000 0.0667  plane waves:     607
 k-point  81 :   0.3333 0.2667 0.0667  plane waves:     609
 k-point  82 :   0.4000 0.2667 0.0667  plane waves:     611
 k-point  83 :   0.4667 0.2667 0.0667  plane waves:     612
 k-point  84 :  -0.4667 0.2667 0.0667  plane waves:     615
 k-point  85 :  -0.4000 0.2667 0.0667  plane waves:     614
 k-point  86 :  -0.3333 0.2667 0.0667  plane waves:     610
 k-point  87 :  -0.2667 0.2667 0.0667  plane waves:     611
 k-point  88 :  -0.2000 0.2667 0.0667  plane waves:     613
 k-point  89 :   0.4000 0.3333 0.0667  plane waves:     612
 k-point  90 :   0.4667 0.3333 0.0667  plane waves:     610
 k-point  91 :  -0.4667 0.3333 0.0667  plane waves:     614
 k-point  92 :  -0.4000 0.3333 0.0667  plane waves:     615
 k-point  93 :  -0.3333 0.3333 0.0667  plane waves:     616
 k-point  94 :  -0.2667 0.3333 0.0667  plane waves:     610
 k-point  95 :   0.4667 0.4000 0.0667  plane waves:     615
 k-point  96 :  -0.4667 0.4000 0.0667  plane waves:     614
 k-point  97 :  -0.4000 0.4000 0.0667  plane waves:     616
 k-point  98 :  -0.3333 0.4000 0.0667  plane waves:     612
 k-point  99 :  -0.4667 0.4667 0.0667  plane waves:     618
 k-point 100 :  -0.4000 0.4667 0.0667  plane waves:     616
 k-point 101 :   0.4000 0.2667 0.1333  plane waves:     611
 k-point 102 :   0.4667 0.2667 0.1333  plane waves:     609
 k-point 103 :  -0.4667 0.2667 0.1333  plane waves:     612
 k-point 104 :  -0.4000 0.2667 0.1333  plane waves:     609
 k-point 105 :   0.4667 0.3333 0.1333  plane waves:     611
 k-point 106 :  -0.4667 0.3333 0.1333  plane waves:     611
 k-point 107 :  -0.4000 0.3333 0.1333  plane waves:     615
 k-point 108 :  -0.3333 0.3333 0.1333  plane waves:     614
 k-point 109 :  -0.2667 0.3333 0.1333  plane waves:     616
 k-point 110 :  -0.2000 0.3333 0.1333  plane waves:     613
 k-point 111 :  -0.4667 0.4000 0.1333  plane waves:     607
 k-point 112 :  -0.4000 0.4000 0.1333  plane waves:     614
 k-point 113 :  -0.3333 0.4000 0.1333  plane waves:     612
 k-point 114 :  -0.2667 0.4000 0.1333  plane waves:     615
 k-point 115 :  -0.4000 0.4667 0.1333  plane waves:     616
 k-point 116 :  -0.3333 0.4667 0.1333  plane waves:     613
 k-point 117 :  -0.4000 0.4000 0.2000  plane waves:     613
 k-point 118 :  -0.3333 0.4000 0.2000  plane waves:     617
 k-point 119 :  -0.3333 0.4667 0.2000  plane waves:     614
 k-point 120 :  -0.2667 0.4667 0.2000  plane waves:     613

 maximum and minimum number of plane-waves per node :       620      592

 maximum number of plane-waves:       620
 maximum index in each direction: 
   IXMAX=    6   IYMAX=    5   IZMAX=    5
   IXMIN=   -6   IYMIN=   -6   IZMIN=   -6


 serial   3D FFT for wavefunctions
 parallel 3D FFT for charge:
    minimum data exchange during FFTs selected (reduces bandwidth)


 total amount of memory used by VASP MPI-rank0    43288. kBytes
=======================================================================

   base      :      30000. kBytes
   nonl-proj :       4771. kBytes
   fftplans  :       4177. kBytes
   grid      :       1926. kBytes
   one-center:          3. kBytes
   wavefun   :       2411. kBytes
 
     INWAV:  cpu time    0.0000: real time    0.0008
 Broyden mixing: mesh for mixing (old mesh)
   NGX = 11   NGY = 11   NGZ = 11
  (NGX  = 48   NGY  = 48   NGZ  = 48)
  gives a total of   1331 points

 initial charge density was supplied:
 charge density of overlapping atoms calculated
 number of electron       4.0000000 magnetization 
 keeping initial charge density in first step


--------------------------------------------------------------------------------------------------------


 Maximum index for augmentation-charges        61945 (set IRDMAX)


--------------------------------------------------------------------------------------------------------


 First call to EWALD:  gamma=   0.727
 Maximum number of real-space cells 3x 3x 3
 Maximum number of reciprocal cells 3x 3x 3

    FEWALD:  cpu time    0.0030: real time    0.0034


--------------------------------------- Iteration      1(   1)  ---------------------------------------


    POTLOK:  cpu time    0.0310: real time    0.0343
    SETDIJ:  cpu time    0.1880: real time    0.1882
     EDDAV:  cpu time    0.9799: real time    0.9808
       DOS:  cpu time    0.0010: real time    0.0018
    --------------------------------------------
      LOOP:  cpu time    1.2008: real time    1.2054

 eigenvalue-minimisations  :  1976
 total energy-change (2. order) :-0.1693593E+01  (-0.2121595E+03)
 number of electron       4.0000000 magnetization 
 augmentation part        4.0000000 magnetization 

 Free energy of the ion-electron system (eV)
  ---------------------------------------------------
  alpha Z        PSCENC =         2.32027168
  Ewald energy   TEWEN  =      -136.42075534
  -Hartree energ DENC   =        -0.60405697
  -exchange      EXHF   =         0.00000000
  -V(xc)+E(xc)   XCENC  =        -8.81323386
  PAW double counting   =        88.12379961      -70.53051779
  entropy T*S    EENTRO =        -0.00013148
  eigenvalues    EBANDS =        21.16440710
  atomic energy  EATOM  =       103.06662367
  Solvation  Ediel_sol  =         0.00000000
  ---------------------------------------------------
  free energy    TOTEN  =        -1.69359338 eV

  energy without entropy =       -1.69346190  energy(sigma->0) =       -1.69352764


--------------------------------------------------------------------------------------------------------




--------------------------------------- Iteration      1(   2)  ---------------------------------------


     EDDAV:  cpu time    1.3648: real time    1.3783
       DOS:  cpu time    0.0010: real time    0.0020
    --------------------------------------------
      LOOP:  cpu time    1.3658: real time    1.3802

 eigenvalue-minimisations  :  2944
 total energy-change (2. order) :-0.3191039E+01  (-0.3008601E+01)
 number of electron       4.0000000 magnetization 
 augmentation part        4.0000000 magnetization 

 Free energy of the ion-electron system (eV)
  ---------------------------------------------------
  alpha Z        PSCENC =         2.32027168
  Ewald energy   TEWEN  =      -136.42075534
  -Hartree energ DENC   =        -0.60405697
  -exchange      EXHF   =         0.00000000
  -V(xc)+E(xc)   XCENC  =        -8.81323386
  PAW double counting   =        88.12379961      -70.53051779
  entropy T*S    EENTRO =        -0.00090981
  eigenvalues    EBANDS =        17.97414677
  atomic energy  EATOM  =       103.06662367
  Solvation  Ediel_sol  =         0.00000000
  ---------------------------------------------------
  free energy    TOTEN  =        -4.88463203 eV

  energy without entropy =       -4.88372222  energy(sigma->0) =       -4.88417712


--------------------------------------------------------------------------------------------------------




--------------------------------------- Iteration      1(   3)  ---------------------------------------


     EDDAV:  cpu time    1.0478: real time    1.0590
       DOS:  cpu time    0.0020: real time    0.0020
    --------------------------------------------
      LOOP:  cpu time    1.0488: real time    1.0610

 eigenvalue-minimisations  :  2168
 total energy-change (2. order) :-0.1968149E-01  (-0.1964938E-01)
 number of electron       4.0000000 magnetization 
 augmentation part        4.0000000 magnetization 

 Free energy of the ion-electron system (eV)
  ---------------------------------------------------
  alpha Z        PSCENC =         2.32027168
  Ewald energy   TEWEN  =      -136.42075534
  -Hartree energ DENC   =        -0.60405697
  -exchange      EXHF   =         0.00000000
  -V(xc)+E(xc)   XCENC  =        -8.81323386
  PAW double counting   =        88.12379961      -70.53051779
  entropy T*S    EENTRO =        -0.00085473
  eigenvalues    EBANDS =        17.95441020
  atomic energy  EATOM  =       103.06662367
  Solvation  Ediel_sol  =         0.00000000
  ---------------------------------------------------
  free energy    TOTEN  =        -4.90431352 eV

  energy without entropy =       -4.90345879  energy(sigma->0) =       -4.90388616


--------------------------------------------------------------------------------------------------------




--------------------------------------- Iteration      1(   4)  ---------------------------------------


     EDDAV:  cpu time    1.6108: real time    1.6233
       DOS:  cpu time    0.0010: real time    0.0026
    --------------------------------------------
      LOOP:  cpu time    1.6128: real time    1.6259

 eigenvalue-minimisations  :  3304
 total energy-change (2. order) :-0.2139847E-04  (-0.2139793E-04)
 number of electron       4.0000000 magnetization 
 augmentation part        4.0000000 magnetization 

 Free energy of the ion-electron system (eV)
  ---------------------------------------------------
  alpha Z        PSCENC =         2.32027168
  Ewald energy   TEWEN  =      -136.42075534
  -Hartree energ DENC   =        -0.60405697
  -exchange      EXHF   =         0.00000000
  -V(xc)+E(xc)   XCENC  =        -8.81323386
  PAW double counting   =        88.12379961      -70.53051779
  entropy T*S    EENTRO =        -0.00085471
  eigenvalues    EBANDS =        17.95438879
  atomic energy  EATOM  =       103.06662367
  Solvation  Ediel_sol  =         0.00000000
  ---------------------------------------------------
  free energy    TOTEN  =        -4.90433492 eV

  energy without entropy =       -4.90348021  energy(sigma->0) =       -4.90390756


--------------------------------------------------------------------------------------------------------




--------------------------------------- Iteration      1(   5)  ---------------------------------------


     EDDAV:  cpu time    1.0808: real time    1.0921
       DOS:  cpu time    0.0020: real time    0.0019
    CHARGE:  cpu time    0.0860: real time    0.0865
    MIXING:  cpu time    0.0000: real time    0.0014
    --------------------------------------------
      LOOP:  cpu time    1.1688: real time    1.1819

 eigenvalue-minimisations  :  2168
 total energy-change (2. order) :-0.1525763E-08  (-0.1363193E-08)
 number of electron       4.0000000 magnetization 
 augmentation part       -0.2412704 magnetization 

 Broyden mixing:
  rms(total) = 0.26352E+00    rms(broyden)= 0.26352E+00
  rms(prec ) = 0.40100E+00
  weight for this iteration     100.00

 Free energy of the ion-electron system (eV)
  ---------------------------------------------------
  alpha Z        PSCENC =         2.32027168
  Ewald energy   TEWEN  =      -136.42075534
  -Hartree energ DENC   =        -0.60405697
  -exchange      EXHF   =         0.00000000
  -V(xc)+E(xc)   XCENC  =        -8.81323386
  PAW double counting   =        88.12379961      -70.53051779
  entropy T*S    EENTRO =        -0.00085471
  eigenvalues    EBANDS =        17.95438879
  atomic energy  EATOM  =       103.06662367
  Solvation  Ediel_sol  =         0.00000000
  ---------------------------------------------------
  free energy    TOTEN  =        -4.90433492 eV

  energy without entropy =       -4.90348021  energy(sigma->0) =       -4.90390756


--------------------------------------------------------------------------------------------------------




--------------------------------------- Iteration      1(   6)  ---------------------------------------


    POTLOK:  cpu time    0.0330: real time    0.0421
    SETDIJ:  cpu time    0.1750: real time    0.1750
     EDDAV:  cpu time    1.1168: real time    1.1187
       DOS:  cpu time    0.0010: real time    0.0022
    CHARGE:  cpu time    0.0820: real time    0.0818
    MIXING:  cpu time    0.0020: real time    0.0016
    --------------------------------------------
      LOOP:  cpu time    1.4088: real time    1.4214

 eigenvalue-minimisations  :  2328
 total energy-change (2. order) : 0.1289107E-01  (-0.3929888E-03)
 number of electron       4.0000000 magnetization 
 augmentation part       -0.2434944 magnetization 

 Broyden mixing:
  rms(total) = 0.14533E+00    rms(broyden)= 0.14533E+00
  rms(prec ) = 0.23183E+00
  weight for this iteration     100.00

 eigenvalues of (default mixing * dielectric matrix)
  average eigenvalue GAMMA=   2.2181
  2.2181

 Free energy of the ion-electron system (eV)
  ---------------------------------------------------
  alpha Z        PSCENC =         2.32027168
  Ewald energy   TEWEN  =      -136.42075534
  -Hartree energ DENC   =        -0.52812285
  -exchange      EXHF   =         0.00000000
  -V(xc)+E(xc)   XCENC  =        -8.79544801
  PAW double counting   =       165.55289598     -147.95761409
  entropy T*S    EENTRO =        -0.00084331
  eigenvalues    EBANDS =        17.87154843
  atomic energy  EATOM  =       103.06662367
  Solvation  Ediel_sol  =         0.00000000
  ---------------------------------------------------
  free energy    TOTEN  =        -4.89144385 eV

  energy without entropy =       -4.89060054  energy(sigma->0) =       -4.89102219


--------------------------------------------------------------------------------------------------------




--------------------------------------- Iteration      1(   7)  ---------------------------------------


    POTLOK:  cpu time    0.0320: real time    0.0466
    SETDIJ:  cpu time    0.1760: real time    0.1752
     EDDAV:  cpu time    1.0898: real time    1.0918
       DOS:  cpu time    0.0020: real time    0.0021
    CHARGE:  cpu time    0.0820: real time    0.0819
    MIXING:  cpu time    0.0010: real time    0.0017
    --------------------------------------------
      LOOP:  cpu time    1.3838: real time    1.3993

 eigenvalue-minimisations  :  2256
 total energy-change (2. order) : 0.7341699E-02  (-0.7902863E-03)
 number of electron       4.0000000 magnetization 
 augmentation part       -0.2467061 magnetization 

 Broyden mixing:
  rms(total) = 0.13234E-01    rms(broyden)= 0.13234E-01
  rms(prec ) = 0.17817E-01
  weight for this iteration     100.00

 eigenvalues of (default mixing * dielectric matrix)
  average eigenvalue GAMMA=   2.3854
  2.3854  2.3854

 Free energy of the ion-electron system (eV)
  ---------------------------------------------------
  alpha Z        PSCENC =         2.32027168
  Ewald energy   TEWEN  =      -136.42075534
  -Hartree energ DENC   =        -0.44941850
  -exchange      EXHF   =         0.00000000
  -V(xc)+E(xc)   XCENC  =        -8.76515654
  PAW double counting   =       311.09729677     -293.50339685
  entropy T*S    EENTRO =        -0.00081893
  eigenvalues    EBANDS =        17.77125190
  atomic energy  EATOM  =       103.06662367
  Solvation  Ediel_sol  =         0.00000000
  ---------------------------------------------------
  free energy    TOTEN  =        -4.88410215 eV

  energy without entropy =       -4.88328321  energy(sigma->0) =       -4.88369268


--------------------------------------------------------------------------------------------------------




--------------------------------------- Iteration      1(   8)  ---------------------------------------


    POTLOK:  cpu time    0.0410: real time    0.0554
    SETDIJ:  cpu time    0.1750: real time    0.1750
     EDDAV:  cpu time    1.4208: real time    1.4232
       DOS:  cpu time    0.0020: real time    0.0020
    CHARGE:  cpu time    0.0810: real time    0.0815
    MIXING:  cpu time    0.0020: real time    0.0016
    --------------------------------------------
      LOOP:  cpu time    1.7207: real time    1.7388

 eigenvalue-minimisations  :  2880
 total energy-change (2. order) : 0.3462812E-04  (-0.2903248E-05)
 number of electron       4.0000000 magnetization 
 augmentation part       -0.2467903 magnetization 

 Broyden mixing:
  rms(total) = 0.14661E-02    rms(broyden)= 0.14661E-02
  rms(prec ) = 0.22552E-02
  weight for this iteration     100.00

 eigenvalues of (default mixing * dielectric matrix)
  average eigenvalue GAMMA=   2.0189
  1.0177  2.4205  2.6186

 Free energy of the ion-electron system (eV)
  ---------------------------------------------------
  alpha Z        PSCENC =         2.32027168
  Ewald energy   TEWEN  =      -136.42075534
  -Hartree energ DENC   =        -0.45159764
  -exchange      EXHF   =         0.00000000
  -V(xc)+E(xc)   XCENC  =        -8.76157729
  PAW double counting   =       296.86173875     -279.27429931
  entropy T*S    EENTRO =        -0.00082065
  eigenvalues    EBANDS =        17.77634861
  atomic energy  EATOM  =       103.06662367
  Solvation  Ediel_sol  =         0.00000000
  ---------------------------------------------------
  free energy    TOTEN  =        -4.88406752 eV

  energy without entropy =       -4.88324687  energy(sigma->0) =       -4.88365719


--------------------------------------------------------------------------------------------------------




--------------------------------------- Iteration      1(   9)  ---------------------------------------


    POTLOK:  cpu time    0.0420: real time    0.0529
    SETDIJ:  cpu time    0.1760: real time    0.1760
     EDDAV:  cpu time    1.1918: real time    1.1935
       DOS:  cpu time    0.0020: real time    0.0020
    --------------------------------------------
      LOOP:  cpu time    1.4128: real time    1.4245

 eigenvalue-minimisations  :  2432
 total energy-change (2. order) :-0.3610784E-06  (-0.3237345E-07)
 number of electron       4.0000000 magnetization 
 augmentation part       -0.2467903 magnetization 

 Free energy of the ion-electron system (eV)
  ---------------------------------------------------
  alpha Z        PSCENC =         2.32027168
  Ewald energy   TEWEN  =      -136.42075534
  -Hartree energ DENC   =        -0.45174228
  -exchange      EXHF   =         0.00000000
  -V(xc)+E(xc)   XCENC  =        -8.76107890
  PAW double counting   =       295.07565220     -277.48886721
  entropy T*S    EENTRO =        -0.00082078
  eigenvalues    EBANDS =        17.77664909
  atomic energy  EATOM  =       103.06662367
  Solvation  Ediel_sol  =         0.00000000
  ---------------------------------------------------
  free energy    TOTEN  =        -4.88406788 eV

  energy without entropy =       -4.88324710  energy(sigma->0) =       -4.88365749


--------------------------------------------------------------------------------------------------------




 average (electrostatic) potential at core
  the test charge radii are     0.9892
  (the norm of the test charge is              1.0000)
       1 -79.9550
 
 
 
 E-fermi :  10.1130     XC(G=0): -11.1842     alpha+bet :-16.5316

 Fermi energy:        10.1130293771

 k-point     1 :       0.0000    0.0000    0.0000
  band No.  band energies     occupation 
      1      -4.2939      2.00000
      2      21.2423      0.00000
      3      21.2423      0.00000
      4      21.2423      0.00000
      5      22.0535      0.00000
      6      22.0535      0.00000
      7      22.0535      0.00000
      8      27.3844      0.00000

 k-point     2 :       0.0667    0.0000    0.0000
  band No.  band energies     occupation 
      1      -4.1647      2.00000
      2      19.1131      0.00000
      3      20.5838      0.00000
      4      20.5838      0.00000
      5      22.8701      0.00000
      6      22.8701      0.00000
      7      23.0846      0.00000
      8      28.2554      0.00000

 k-point     3 :       0.1333    0.0000    0.0000
  band No.  band energies     occupation 
      1      -3.7775      2.00000
      2      16.2951      0.00000
      3      19.8259      0.00000
      4      19.8259      0.00000
      5      23.3691      0.00000
      6      23.9562      0.00000
      7      23.9562      0.00000
      8      27.2298      0.00000

 k-point     4 :       0.2000    0.0000    0.0000
  band No.  band energies     occupation 
      1      -3.1340      2.00000
      2      13.4747      0.00000
      3      19.2505      0.00000
      4      19.2505      0.00000
      5      23.2988      0.00000
      6      24.1806      0.00000
      7      24.1806      0.00000
      8      27.2059      0.00000

 k-point     5 :       0.2667    0.0000    0.0000
  band No.  band energies     occupation 
      1      -2.2368      2.00000
      2      10.7802      0.00000
      3      18.8717      0.00000
      4      18.8717      0.00000
      5      23.2010      0.00000
      6      23.2966      0.00000
      7      23.2966      0.00000
      8      28.5983      0.00000

 k-point     6 :       0.3333   -0.0000    0.0000
  band No.  band energies     occupation 
      1      -1.0900      2.00000
      2       8.2634      2.00000
      3      18.6782      0.00000
      4      18.6783      0.00000
      5      22.2963      0.00000
      6      22.2963      0.00000
      7      23.1863      0.00000
      8      27.4393      0.00000

 k-point     7 :       0.4000    0.0000    0.0000
  band No.  band energies     occupation 
      1       0.2990      2.00000
      2       5.9529      2.00000
      3      18.6347      0.00000
      4      18.6347      0.00000
      5      21.4968      0.00000
      6      21.4968      0.00000
      7      23.2693      0.00000
      8      26.5242      0.00000

 k-point     8 :       0.4667    0.0000    0.0000
  band No.  band energies     occupation 
      1       1.8996      2.00000
      2       3.8895      2.00000
      3      18.6633      0.00000
      4      18.6633      0.00000
      5      21.0380      0.00000
      6      21.0380      0.00000
      7      23.3774      0.00000
      8      25.9874      0.00000

 k-point     9 :       0.0667    0.0667    0.0000
  band No.  band energies     occupation 
      1      -4.1216      2.00000
      2      19.5869      0.00000
      3      19.5869      0.00000
      4      20.8395      0.00000
      5      21.1393      0.00000
      6      23.9244      0.00000
      7      23.9244      0.00000
      8      27.1401      0.00000

 k-point    10 :       0.1333    0.0667    0.0000
  band No.  band energies     occupation 
      1      -3.8205      2.00000
      2      17.2989      0.00000
      3      18.7492      0.00000
      4      20.2946      0.00000
      5      21.6647      0.00000
      6      24.6401      0.00000
      7      25.0681      0.00000
      8      25.6772      0.00000

 k-point    11 :       0.2000    0.0667    0.0000
  band No.  band energies     occupation 
      1      -3.2624      2.00000
      2      14.4940      0.00000
      3      18.1150      0.00000
      4      19.6639      0.00000
      5      22.3522      0.00000
      6      24.4425      0.00000
      7      25.2028      0.00000
      8      25.6792      0.00000

 k-point    12 :       0.2667    0.0667    0.0000
  band No.  band energies     occupation 
      1      -2.4498      2.00000
      2      11.7603      0.00000
      3      17.6944      0.00000
      4      19.1521      0.00000
      5      21.7996      0.00000
      6      24.2732      0.00000
      7      25.0321      0.00000
      8      26.2311      0.00000

 k-point    13 :       0.3333    0.0667    0.0000
  band No.  band energies     occupation 
      1      -1.3863      2.00000
      2       9.1853      2.00000
      3      17.4887      0.00000
      4      18.7159      0.00000
      5      20.9364      0.00000
      6      24.0018      0.00000
      7      24.2466      0.00000
      8      27.8213      0.00000

 k-point    14 :       0.4000    0.0667    0.0000
  band No.  band energies     occupation 
      1      -0.0774      2.00000
      2       6.8060      2.00000
      3      17.4940      0.00000
      4      18.2445      0.00000
      5      20.4196      0.00000
      6      23.0486      0.00000
      7      24.2625      0.00000
      8      27.7386      0.00000

 k-point    15 :       0.4667    0.0667    0.0000
  band No.  band energies     occupation 
      1       1.4615      2.00000
      2       4.6516      2.00000
      3      17.7006      0.00000
      4      17.7104      0.00000
      5      20.3777      0.00000
      6      22.2863      0.00000
      7      24.2837      0.00000
      8      27.2038      0.00000

 k-point    16 :      -0.4667    0.0667    0.0000
  band No.  band energies     occupation 
      1       2.5238      2.00000
      2       3.4350      2.00000
      3      17.2263      0.00000
      4      18.0873      0.00000
      5      20.7232      0.00000
      6      21.7674      0.00000
      7      24.2214      0.00000
      8      27.1158      0.00000

 k-point    17 :      -0.4000    0.0667    0.0000
  band No.  band energies     occupation 
      1       0.9254      2.00000
      2       5.3417      2.00000
      3      16.8878      0.00000
      4      18.6097      0.00000
      5      21.3647      0.00000
      6      21.5443      0.00000
      7      24.0750      0.00000
      8      27.5073      0.00000

 k-point    18 :      -0.3333    0.0667    0.0000
  band No.  band energies     occupation 
      1      -0.5404      2.00000
      2       7.5754      2.00000
      3      16.7393      0.00000
      4      19.1871      0.00000
      5      21.6910      0.00000
      6      22.2478      0.00000
      7      23.9450      0.00000
      8      28.2332      0.00000

 k-point    19 :      -0.2667    0.0667    0.0000
  band No.  band energies     occupation 
      1      -1.7684      2.00000
      2      10.0226      1.98948
      3      16.7994      0.00000
      4      19.7379      0.00000
      5      22.2530      0.00000
      6      23.3207      0.00000
      7      23.8956      0.00000
      8      27.8805      0.00000

 k-point    20 :      -0.2000    0.0667    0.0000
  band No.  band energies     occupation 
      1      -2.7488      2.00000
      2      12.6548      0.00000
      3      17.0757      0.00000
      4      20.2767      0.00000
      5      23.0526      0.00000
      6      23.9080      0.00000
      7      24.4620      0.00000
      8      26.2127      0.00000

 k-point    21 :      -0.1333    0.0667    0.0000
  band No.  band energies     occupation 
      1      -3.4769      2.00000
      2      15.4247      0.00000
      3      17.5698      0.00000
      4      20.8677      0.00000
      5      23.1559      0.00000
      6      23.8619      0.00000
      7      25.0755      0.00000
      8      25.7842      0.00000

 k-point    22 :      -0.0667    0.0667    0.0000
  band No.  band energies     occupation 
      1      -3.9495      2.00000
      2      18.1214      0.00000
      3      18.3700      0.00000
      4      21.3208      0.00000
      5      22.3867      0.00000
      6      23.5004      0.00000
      7      24.3850      0.00000
      8      26.8981      0.00000

 k-point    23 :       0.1333    0.1333    0.0000
  band No.  band energies     occupation 
      1      -3.6056      2.00000
      2      17.8389      0.00000
      3      17.8389      0.00000
      4      19.4957      0.00000
      5      19.7682      0.00000
      6      23.8782      0.00000
      7      26.2884      0.00000
      8      26.2884      0.00000

 k-point    24 :       0.2000    0.1333    0.0000
  band No.  band energies     occupation 
      1      -3.1337      2.00000
      2      15.6552      0.00000
      3      17.1340      0.00000
      4      18.9338      0.00000
      5      20.0459      0.00000
      6      22.5722      0.00000
      7      27.0034      0.00000
      8      27.2433      0.00000

 k-point    25 :       0.2667    0.1333    0.0000
  band No.  band energies     occupation 
      1      -2.4068      2.00000
      2      12.9447      0.00000
      3      16.6458      0.00000
      4      18.2168      0.00000
      5      19.9507      0.00000
      6      22.9150      0.00000
      7      26.9816      0.00000
      8      27.1802      0.00000

 k-point    26 :       0.3333    0.1333    0.0000
  band No.  band energies     occupation 
      1      -1.4279      2.00000
      2      10.3321      0.00000
      3      16.3775      0.00000
      4      17.3976      0.00000
      5      19.3555      0.00000
      6      24.3836      0.00000
      7      26.0286      0.00000
      8      27.3416      0.00000

 k-point    27 :       0.4000    0.1333    0.0000
  band No.  band energies     occupation 
      1      -0.2018      2.00000
      2       7.8948      2.00000
      3      16.3292      0.00000
      4      16.4951      0.00000
      5      19.1075      0.00000
      6      25.0472      0.00000
      7      25.6347      0.00000
      8      28.0375      0.00000

 k-point    28 :       0.4667    0.1333    0.0000
  band No.  band energies     occupation 
      1       1.2619      2.00000
      2       5.6668      2.00000
      3      15.6584      0.00000
      4      16.4987      0.00000
      5      19.2098      0.00000
      6      24.2068      0.00000
      7      26.0096      0.00000
      8      29.5445      0.00000

 k-point    29 :      -0.4667    0.1333    0.0000
  band No.  band energies     occupation 
      1       2.8615      2.00000
      2       3.7598      2.00000
      3      14.9832      0.00000
      4      16.8809      0.00000
      5      19.5998      0.00000
      6      23.5637      0.00000
      7      25.9207      0.00000
      8      29.6832      0.00000

 k-point    30 :      -0.4000    0.1333    0.0000
  band No.  band energies     occupation 
      1       1.7973      2.00000
      2       4.9769      2.00000
      3      14.5099      0.00000
      4      17.4662      0.00000
      5      20.2448      0.00000
      6      23.1456      0.00000
      7      25.6915      0.00000
      8      29.9836      0.00000

 k-point    31 :      -0.3333    0.1333    0.0000
  band No.  band energies     occupation 
      1       0.2603      2.00000
      2       7.1250      2.00000
      3      14.2560      0.00000
      4      18.2353      0.00000
      5      21.1230      0.00000
      6      22.9732      0.00000
      7      25.4633      0.00000
      8      29.5097      0.00000

 k-point    32 :      -0.2667    0.1333    0.0000
  band No.  band energies     occupation 
      1      -1.0466      2.00000
      2       9.4916      2.00000
      3      14.2309      0.00000
      4      19.1501      0.00000
      5      22.2079      0.00000
      6      23.0667      0.00000
      7      25.2767      0.00000
      8      27.3598      0.00000

 k-point    33 :      -0.2000    0.1333    0.0000
  band No.  band energies     occupation 
      1      -2.1085      2.00000
      2      12.0350      0.00000
      3      14.4472      0.00000
      4      20.1299      0.00000
      5      23.4134      0.00000
      6      23.4454      0.00000
      7      25.0647      0.00000
      8      25.4929      0.00000

 k-point    34 :      -0.1333    0.1333    0.0000
  band No.  band energies     occupation 
      1      -2.9198      2.00000
      2      14.4920      0.00000
      3      15.1218      0.00000
      4      20.9614      0.00000
      5      23.3819      0.00000
      6      24.6241      0.00000
      7      24.6542      0.00000
      8      24.7767      0.00000

 k-point    35 :       0.2000    0.2000    0.0000
  band No.  band energies     occupation 
      1      -2.7483      2.00000
      2      16.3562      0.00000
      3      16.3562      0.00000
      4      17.9230      0.00000
      5      18.0230      0.00000
      6      20.8843      0.00000
      7      28.6975      0.00000
      8      28.6975      0.00000

 k-point    36 :       0.2667    0.2000    0.0000
  band No.  band energies     occupation 
      1      -2.1077      2.00000
      2      14.2700      0.00000
      3      15.7952      0.00000
      4      16.8877      0.00000
      5      18.1795      0.00000
      6      20.4443      0.00000
      7      29.0238      0.00000
      8      29.4340      0.00000

 k-point    37 :       0.3333    0.2000    0.0000
  band No.  band energies     occupation 
      1      -1.2148      2.00000
      2      11.6818      0.00000
      3      15.4556      0.00000
      4      15.6705      0.00000
      5      18.0828      0.00000
      6      21.7006      0.00000
      7      28.2287      0.00000
      8      29.5948      0.00000

 k-point    38 :       0.4000    0.2000    0.0000
  band No.  band energies     occupation 
      1      -0.0735      2.00000
      2       9.2078      2.00000
      3      14.5088      0.00000
      4      15.3385      0.00000
      5      17.9649      0.00000
      6      23.5911      0.00000
      7      27.2701      0.00000
      8      29.5180      0.00000

 k-point    39 :       0.4667    0.2000    0.0000
  band No.  band energies     occupation 
      1       1.3090      2.00000
      2       6.9201      2.00000
      3      13.5065      0.00000
      4      15.4435      0.00000
      5      18.0743      0.00000
      6      25.5924      0.00000
      7      26.3967      0.00000
      8      29.3974      0.00000

 k-point    40 :      -0.4667    0.2000    0.0000
  band No.  band energies     occupation 
      1       2.9047      2.00000
      2       4.8675      2.00000
      3      12.7079      0.00000
      4      15.7685      0.00000
      5      18.4309      0.00000
      6      25.6902      0.00000
      7      27.1124      0.00000
      8      29.7067      0.00000

 k-point    41 :      -0.4000    0.2000    0.0000
  band No.  band energies     occupation 
      1       2.9050      2.00000
      2       4.8647      2.00000
      3      12.1328      0.00000
      4      16.3094      0.00000
      5      19.0306      0.00000
      6      25.1857      0.00000
      7      27.4235      0.00000
      8      30.8899      0.00000

[...]
      7      26.5367      0.00000
      8      30.6814      0.00000

 k-point    85 :      -0.4000    0.2667    0.0667
  band No.  band energies     occupation 
      1       3.8678      2.00000
      2       4.7275      2.00000
      3      11.3430      0.00000
      4      14.2236      0.00000
      5      19.5616      0.00000
      6      25.3725      0.00000
      7      27.9137      0.00000
      8      30.0764      0.00000

 k-point    86 :      -0.3333    0.2667    0.0667
  band No.  band energies     occupation 
      1       2.7995      2.00000
      2       5.9401      2.00000
      3      10.8482      0.00000
      4      14.8616      0.00000
      5      20.2106      0.00000
      6      24.9796      0.00000
      7      28.6549      0.00000
      8      29.5369      0.00000

 k-point    87 :      -0.2667    0.2667    0.0667
  band No.  band energies     occupation 
      1       1.2688      2.00000
      2       8.0433      2.00000
      3      10.6106      0.00000
      4      15.7242      0.00000
      5      21.0611      0.00000
      6      24.7355      0.00000
      7      26.7946      0.00000
      8      29.4897      0.00000

 k-point    88 :      -0.2000    0.2667    0.0667
  band No.  band energies     occupation 
      1      -0.0318      2.00000
      2      10.0424      1.95433
      3      10.9267      0.00000
      4      16.7922      0.00000
      5      22.0614      0.00000
      6      24.3742      0.00000
      7      25.1051      0.00000
      8      28.7454      0.00000

 k-point    89 :       0.4000    0.3333    0.0667
  band No.  band energies     occupation 
      1       0.1390      2.00000
      2      12.2799      0.00000
      3      12.5805      0.00000
      4      13.3791      0.00000
      5      17.5893      0.00000
      6      19.1811      0.00000
      7      30.2903      0.00000
      8      32.9403      0.00000

 k-point    90 :       0.4667    0.3333    0.0667
  band No.  band energies     occupation 
      1       1.2720      2.00000
      2      10.3600      0.00000
      3      11.1846      0.00000
      4      12.9280      0.00000
      5      18.0617      0.00000
      6      20.5985      0.00000
      7      29.4804      0.00000
      8      33.1729      0.00000

 k-point    91 :      -0.4667    0.3333    0.0667
  band No.  band energies     occupation 
      1       2.6435      2.00000
      2       8.1680      2.00000
      3      10.1049      1.18246
      4      12.9986      0.00000
      5      18.2885      0.00000
      6      22.7714      0.00000
      7      28.6718      0.00000
      8      32.5916      0.00000

 k-point    92 :      -0.4000    0.3333    0.0667
  band No.  band energies     occupation 
      1       4.2266      2.00000
      2       6.1464      2.00000
      3       9.2732      2.00000
      4      13.3323      0.00000
      5      18.6739      0.00000
      6      25.1320      0.00000
      7      28.0259      0.00000
      8      31.3010      0.00000

 k-point    93 :      -0.3333    0.3333    0.0667
  band No.  band energies     occupation 
      1       4.2306      2.00000
      2       6.1144      2.00000
      3       8.7079      2.00000
      4      13.9047      0.00000
      5      19.2702      0.00000
      6      26.9678      0.00000
      7      28.0415      0.00000
      8      29.3605      0.00000

 k-point    94 :      -0.2667    0.3333    0.0667
  band No.  band energies     occupation 
      1       2.6418      2.00000
      2       7.7860      2.00000
      3       8.7191      2.00000
      4      14.7060      0.00000
      5      20.0764      0.00000
      6      26.8448      0.00000
      7      27.0226      0.00000
      8      30.0622      0.00000

 k-point    95 :       0.4667    0.4000    0.0667
  band No.  band energies     occupation 
      1       1.9816      2.00000
      2       9.3995      2.00000
      3      11.9465      0.00000
      4      12.6517      0.00000
      5      16.9479      0.00000
      6      18.5615      0.00000
      7      31.8417      0.00000
      8      34.8582      0.00000

 k-point    96 :      -0.4667    0.4000    0.0667
  band No.  band energies     occupation 
      1       3.2618      2.00000
      2       8.2285      2.00000
      3      10.0066      1.99739
      4      12.4272      0.00000
      5      17.5836      0.00000
      6      20.1597      0.00000
      7      31.1411      0.00000
      8      34.0574      0.00000

 k-point    97 :      -0.4000    0.4000    0.0667
  band No.  band energies     occupation 
      1       4.7515      2.00000
      2       7.2278      2.00000
      3       8.0418      2.00000
      4      12.6750      0.00000
      5      17.9744      0.00000
      6      22.5029      0.00000
      7      30.4452      0.00000
      8      32.1788      0.00000

 k-point    98 :      -0.3333    0.4000    0.0667
  band No.  band energies     occupation 
      1       5.8345      2.00000
      2       6.1687      2.00000
      3       7.1936      2.00000
      4      13.1728      0.00000
      5      18.5205      0.00000
      6      25.0442      0.00000
      7      29.8187      0.00000
      8      29.8849      0.00000

 k-point    99 :      -0.4667    0.4667    0.0667
  band No.  band energies     occupation 
      1       4.1036      2.00000
      2       6.7054      2.00000
      3      11.6288      0.00000
      4      12.3279      0.00000
      5      16.6258      0.00000
      6      18.2530      0.00000
      7      33.3529      0.00000
      8      34.8646      0.00000

 k-point   100 :      -0.4000    0.4667    0.0667
  band No.  band energies     occupation 
      1       5.1971      2.00000
      2       6.0192      2.00000
      3       9.8308      2.00000
      4      12.2662      0.00000
      5      17.4240      0.00000
      6      20.0124      0.00000
      7      32.6368      0.00000
      8      33.0774      0.00000

 k-point   101 :       0.4000    0.2667    0.1333
  band No.  band energies     occupation 
      1      -0.8760      2.00000
      2      11.6430      0.00000
      3      12.4204      0.00000
      4      16.1658      0.00000
      5      21.3226      0.00000
      6      22.2460      0.00000
      7      25.8572      0.00000
      8      29.7917      0.00000

 k-point   102 :       0.4667    0.2667    0.1333
  band No.  band energies     occupation 
      1       0.2634      2.00000
      2       9.4867      2.00000
      3      11.9834      0.00000
      4      14.9468      0.00000
      5      21.5909      0.00000
      6      23.5396      0.00000
      7      25.1313      0.00000
      8      30.3451      0.00000

 k-point   103 :      -0.4667    0.2667    0.1333
  band No.  band energies     occupation 
      1       1.6438      2.00000
      2       7.2317      2.00000
      3      12.0485      0.00000
      4      13.9373      0.00000
      5      21.6743      0.00000
      6      23.5931      0.00000
      7      26.3261      0.00000
      8      30.4211      0.00000

 k-point   104 :      -0.4000    0.2667    0.1333
  band No.  band energies     occupation 
      1       3.2380      2.00000
      2       5.1892      2.00000
      3      12.2967      0.00000
      4      13.2200      0.00000
      5      21.8323      0.00000
      6      23.1050      0.00000
      7      28.3384      0.00000
      8      29.9075      0.00000

 k-point   105 :       0.4667    0.3333    0.1333
  band No.  band energies     occupation 
      1       0.6428      2.00000
      2      10.6832      0.00000
      3      11.4163      0.00000
      4      13.0750      0.00000
      5      20.4048      0.00000
      6      21.4766      0.00000
      7      27.1275      0.00000
      8      32.4714      0.00000

 k-point   106 :      -0.4667    0.3333    0.1333
  band No.  band energies     occupation 
      1       1.9382      2.00000
      2       8.6746      2.00000
      3      11.0645      0.00000
      4      12.0168      0.00000
      5      20.8841      0.00000
      6      23.1574      0.00000
      7      26.2909      0.00000
      8      32.4995      0.00000

 k-point   107 :      -0.4000    0.3333    0.1333
  band No.  band energies     occupation 
      1       3.4623      2.00000
      2       6.5816      2.00000
      3      10.7461      0.00000
      4      11.6718      0.00000
      5      21.1862      0.00000
      6      24.7402      0.00000
      7      26.2330      0.00000
      8      31.0034      0.00000

 k-point   108 :      -0.3333    0.3333    0.1333
  band No.  band energies     occupation 
      1       4.5344      2.00000
      2       5.3596      2.00000
      3      10.1795      0.05994
      4      12.0741      0.00000
      5      21.6510      0.00000
      6      24.5664      0.00000
      7      27.9119      0.00000
      8      29.1480      0.00000

 k-point   109 :      -0.2667    0.3333    0.1333
  band No.  band energies     occupation 
      1       2.9307      2.00000
      2       7.2336      2.00000
      3       9.7996      2.00000
      4      12.7937      0.00000
      5      22.2683      0.00000
      6      24.2121      0.00000
      7      26.3948      0.00000
      8      30.5853      0.00000

 k-point   110 :      -0.2000    0.3333    0.1333
  band No.  band energies     occupation 
      1       1.4791      2.00000
      2       9.0770      2.00000
      3       9.9653      1.99997
      4      13.7595      0.00000
      5      22.8966      0.00000
      6      23.5160      0.00000
      7      24.9124      0.00000
      8      31.7722      0.00000

 k-point   111 :      -0.4667    0.4000    0.1333
  band No.  band energies     occupation 
      1       2.4793      2.00000
      2       9.7670      2.00000
      3      10.0417      1.95641
      4      11.1064      0.00000
      5      19.7819      0.00000
      6      20.9391      0.00000
      7      28.6999      0.00000
      8      33.6714      0.00000

 k-point   112 :      -0.4000    0.4000    0.1333
  band No.  band energies     occupation 
      1       3.9172      2.00000
      2       8.1238      2.00000
      3       8.9632      2.00000
      4      10.8615      0.00000
      5      20.4417      0.00000
      6      22.8174      0.00000
      7      27.9328      0.00000
      8      31.7076      0.00000

 k-point   113 :      -0.3333    0.4000    0.1333
  band No.  band energies     occupation 
      1       5.5086      2.00000
      2       6.2744      2.00000
      3       8.2253      2.00000
      4      11.2337      0.00000
      5      20.9131      0.00000
      6      25.1317      0.00000
      7      27.3307      0.00000
      8      29.4075      0.00000

 k-point   114 :      -0.2667    0.4000    0.1333
  band No.  band energies     occupation 
      1       4.4451      2.00000
      2       7.1396      2.00000
      3       8.0668      2.00000
      4      11.8894      0.00000
      5      21.5404      0.00000
      6      26.2969      0.00000
      7      26.4817      0.00000
      8      28.7221      0.00000

 k-point   115 :      -0.4000    0.4667    0.1333
  band No.  band energies     occupation 
      1       4.5927      2.00000
      2       7.1719      2.00000
      3       9.7205      2.00000
      4      10.6843      0.00000
      5      19.4680      0.00000
      6      20.6635      0.00000
      7      30.4778      0.00000
      8      32.2954      0.00000

 k-point   116 :      -0.3333    0.4667    0.1333
  band No.  band energies     occupation 
      1       5.8449      2.00000
      2       6.6099      2.00000
      3       8.1243      2.00000
      4      10.6725      0.00000
      5      20.2921      0.00000
      6      22.6948      0.00000
      7      29.5706      0.00000
      8      30.0949      0.00000

 k-point   117 :      -0.4000    0.4000    0.2000
  band No.  band energies     occupation 
      1       3.3043      2.00000
      2       8.4322      2.00000
      3       9.2465      2.00000
      4      10.8874      0.00000
      5      22.9193      0.00000
      6      23.2993      0.00000
      7      25.6171      0.00000
      8      31.2113      0.00000

 k-point   118 :      -0.3333    0.4000    0.2000
  band No.  band energies     occupation 
      1       4.8832      2.00000
      2       6.7496      2.00000
      3       9.1737      2.00000
      4      10.1406      0.43475
      5      23.2617      0.00000
      6      24.3608      0.00000
      7      26.0823      0.00000
      8      28.9708      0.00000

 k-point   119 :      -0.3333    0.4667    0.2000
  band No.  band energies     occupation 
      1       5.4000      2.00000
      2       7.8536      2.00000
      3       8.1095      2.00000
      4       9.2834      2.00000
      5      22.6164      0.00000
      6      23.2608      0.00000
      7      27.1692      0.00000
      8      29.3755      0.00000

 k-point   120 :      -0.2667    0.4667    0.2000
  band No.  band energies     occupation 
      1       6.4739      2.00000
      2       6.8162      2.00000
      3       7.6889      2.00000
      4       9.3573      2.00000
      5      23.3271      0.00000
      6      25.1641      0.00000
      7      26.0129      0.00000
      8      27.7972      0.00000


--------------------------------------------------------------------------------------------------------


 soft charge-density along one line, spin component           1
         0         1         2         3         4         5         6         7         8         9
 total charge-density along one line
 
 pseudopotential strength for first ion, spin component:           1
 17.972  25.072  -0.000   0.000   0.000  -0.000   0.000   0.000
 25.072  34.981  -0.000   0.000   0.000  -0.000   0.000   0.000
 -0.000  -0.000   4.096   0.000   0.000   7.631   0.000   0.000
  0.000   0.000   0.000   4.096   0.000   0.000   7.631   0.000
  0.000   0.000   0.000   0.000   4.096   0.000   0.000   7.631
 -0.000  -0.000   7.631   0.000   0.000  14.226   0.000   0.000
  0.000   0.000   0.000   7.631   0.000   0.000  14.226   0.000
  0.000   0.000   0.000   0.000   7.631   0.000   0.000  14.226
 total augmentation occupancy for first ion, spin component:           1
  4.830  -2.020   0.000   0.000   0.000   0.000   0.000   0.000
 -2.020   1.313   0.000   0.000   0.000   0.000   0.000   0.000
  0.000   0.000   2.284  -0.000  -0.000  -0.539   0.000   0.000
  0.000   0.000  -0.000   2.284  -0.000   0.000  -0.539   0.000
  0.000   0.000  -0.000  -0.000   2.284   0.000   0.000  -0.539
  0.000   0.000  -0.539   0.000   0.000   0.141  -0.000  -0.000
  0.000   0.000   0.000  -0.539   0.000  -0.000   0.141  -0.000
  0.000   0.000   0.000   0.000  -0.539  -0.000  -0.000   0.141


------------------------ aborting loop because EDIFF is reached ----------------------------------------


    CHARGE:  cpu time    0.0820: real time    0.0817
    FORLOC:  cpu time    0.0000: real time    0.0014
    FORNL :  cpu time    0.1380: real time    0.1381
    STRESS:  cpu time    1.0058: real time    1.0070
    FORCOR:  cpu time    0.0310: real time    0.0307
    FORHAR:  cpu time    0.0060: real time    0.0057
    MIXING:  cpu time    0.0010: real time    0.0012
    OFIELD:  cpu time    0.0000: real time    0.0002

  FORCE on cell =-STRESS in cart. coord.  units (eV):
  Direction    XX          YY          ZZ          XY          YZ          ZX
  --------------------------------------------------------------------------------------
  Alpha Z     2.32027     2.32027     2.32027
  Ewald     -45.47359   -45.47358   -45.47359     0.00000     0.00001     0.00001
  Hartree     0.15055     0.15055     0.15055     0.00000     0.00000     0.00000
  E(xc)     -12.68577   -12.68577   -12.68577     0.00000    -0.00000    -0.00000
  Local      -4.97882    -4.97882    -4.97882     0.00000     0.00000     0.00000
  n-local    36.31601    38.54436    40.21191    -0.20773     0.11290    -0.12254
  augment    -6.28965    -6.28965    -6.28965    -0.00000    -0.00000    -0.00000
  Kinetic    52.23280    27.06936     6.39647    -4.29085     2.13180    -0.22932
  Fock        0.00000     0.00000     0.00000     0.00000     0.00000     0.00000
  -------------------------------------------------------------------------------------
  Total      -0.03336    -0.03336    -0.03336     0.00000     0.00000     0.00000
  in kB      -3.68409    -3.68409    -3.68409     0.00000     0.00000     0.00000
  external pressure =       -3.68 kB  Pullay stress =        0.00 kB


 VOLUME and BASIS-vectors are now :
 -----------------------------------------------------------------------------
  energy-cutoff  :      700.00
  volume of cell :       14.51
      direct lattice vectors                 reciprocal lattice vectors
     2.370868950  0.000000000  1.368820680     0.421786282 -0.149123986  0.000000000
     0.790289650  2.235276450  1.368820680     0.000000000  0.447371957  0.000000000
     0.000000000  0.000000000  2.737643380    -0.210892985 -0.149123876  0.365277672

  length of vectors
     2.737643080  2.737642890  2.737643380     0.447371916  0.447371957  0.447371835


 FORCES acting on ions
    electron-ion (+dipol)            ewald-force                    non-local-force                 convergence-correction
 -----------------------------------------------------------------------------------------------
   -.181E-14 -.158E-15 0.140E-15   0.269E-15 0.112E-15 0.265E-16   -.414E-23 0.000E+00 -.165E-23   0.438E-17 -.183E-16 0.403E-17
 -----------------------------------------------------------------------------------------------
   -.181E-14 -.158E-15 0.140E-15   0.269E-15 0.112E-15 0.265E-16   -.414E-23 0.000E+00 -.165E-23   0.438E-17 -.183E-16 0.403E-17
 
 
 POSITION                                       TOTAL-FORCE (eV/Angst)
 -----------------------------------------------------------------------------------
      0.00000      0.00000      0.00000        -0.000000      0.000000      0.000000
 -----------------------------------------------------------------------------------
    total drift:                               -0.000000     -0.000000      0.000000


--------------------------------------------------------------------------------------------------------



  FREE ENERGIE OF THE ION-ELECTRON SYSTEM (eV)
  ---------------------------------------------------
  free  energy   TOTEN  =        -4.88406788 eV

  energy  without entropy=       -4.88324710  energy(sigma->0) =       -4.88365749
 


--------------------------------------------------------------------------------------------------------


    POTLOK:  cpu time    0.2080: real time    0.2137


--------------------------------------------------------------------------------------------------------




--------------------------------------------------------------------------------------------------------


  
 reached required accuracy - stopping structural energy minimisation
     LOOP+:  cpu time   14.0279: real time   14.2899
    4ORBIT:  cpu time    0.0000: real time    0.0000

 total amount of memory used by VASP MPI-rank0    43288. kBytes
=======================================================================

   base      :      30000. kBytes
   nonl-proj :       4771. kBytes
   fftplans  :       4177. kBytes
   grid      :       1926. kBytes
   one-center:          3. kBytes
   wavefun   :       2411. kBytes
 
  
  
 General timing and accounting informations for this job:
 ========================================================
  
                  Total CPU time used (sec):       14.975
                            User time (sec):       14.679
                          System time (sec):        0.296
                         Elapsed time (sec):       16.032
  
                   Maximum memory used (kb):       86488.
                   Average memory used (kb):          N/A
  
                          Minor page faults:        16534
                          Major page faults:            1
                 Voluntary context switches:        14631
