<?xml version="1.0" encoding="ISO-8859-1"?>
<modeling>
 <generator>
  <i name="program" type="string">vasp </i>
  <i name="version" type="string">6.2.0  </i>
  <i name="subversion" type="string">18Jan21 (build Aug 12 2022 13:00:08) complex                          parallel </i>
  <i name="platform" type="string">LinuxIFC </i>
  <i name="date" type="string">2024 11 05 </i>
  <i name="time" type="string">05:20:26 </i>
 </generator>
 <incar>
  <i type="int" name="ISTART">     0</i>
  <i type="string" name="PREC">Accurate      (Accurate strictly avoids</i>
  <i type="logical" name="ADDGRID"> T  </i>
  <i type="int" name="ISPIN">     1</i>
  <i type="int" name="NELM">    90</i>
  <i type="int" name="NELMIN">     6</i>
  <i type="int" name="IBRION">     2</i>
  <i name="EDIFF">      0.00000100</i>
  <i name="EDIFFG">     -0.00200000</i>
  <i type="int" name="NSW">   100</i>
  <i type="int" name="ISIF">     2</i>
  <i type="int" name="ISYM">     2</i>
  <i name="ENCUT">    700.00000000</i>
  <i type="logical" name="LREAL"> F  </i>
  <i type="int" name="ISMEAR">     0</i>
  <i name="SIGMA">      0.05000000</i>
  <i type="logical" name="LWAVE"> F  </i>
  <i type="logical" name="LCHARG"> F  </i>
  <i type="logical" name="LASPH"> T  </i>
 </incar>
 <primitive_cell>
  <structure name="primitive_cell" >
   <crystal>
    <varray name="basis" >
     <v>       2.37086895       0.00000000       1.36882068 </v>
     <v>       0.79028965       2.23527645       1.36882068 </v>
     <v>       0.00000000       0.00000000       2.73764338 </v>
    </varray>
    <i name="volume">     14.50827121 </i>
    <varray name="rec_basis" >
     <v>       0.42178628      -0.14912399       0.00000000 </v>
     <v>       0.00000000       0.44737196       0.00000000 </v>
     <v>      -0.21089299      -0.14912388       0.36527767 </v>
    </varray>
   </crystal>
   <varray name="positions" >
    <v>       0.00000000       0.00000000       0.00000000 </v>
   </varray>
  </structure>
  <varray name="primitive_index" >
   <v type="int" >        1 </v>
  </varray>
 </primitive_cell>
 <kpoints>
  <generation param="Monkhorst-Pack">
   <v type="int" name="divisions">      15       15       15 </v>
   <v name="usershift">      0.00000000       0.00000000       0.00000000 </v>
   <v name="genvec1">      0.06666667       0.00000000       0.00000000 </v>
   <v name="genvec2">      0.00000000       0.06666667       0.00000000 </v>
   <v name="genvec3">      0.00000000       0.00000000       0.06666667 </v>
   <v name="shift">      0.00000000       0.00000000       0.00000000 </v>
  </generation>
  <varray name="kpointlist" >
   <v>       0.00000000       0.00000000       0.00000000 </v>
   <v>       0.06666667       0.00000000       0.00000000 </v>
   <v>       0.13333333       0.00000000       0.00000000 </v>
   <v>       0.20000000       0.00000000       0.00000000 </v>
   <v>       0.26666667       0.00000000       0.00000000 </v>
   <v>       0.33333333      -0.00000000       0.00000000 </v>
   <v>       0.40000000       0.00000000       0.00000000 </v>
   <v>       0.46666667       0.00000000       0.00000000 </v>
   <v>       0.06666667       0.06666667       0.00000000 </v>
   <v>       0.13333333       0.06666667       0.00000000 </v>
   <v>       0.20000000       0.06666667       0.00000000 </v>
   <v>       0.26666667       0.06666667       0.00000000 </v>
   <v>       0.33333333       0.06666667       0.00000000 </v>
   <v>       0.40000000       0.06666667       0.00000000 </v>
   <v>       0.46666667       0.06666667       0.00000000 </v>
   <v>      -0.46666667       0.06666667       0.00000000 </v>
   <v>      -0.40000000       0.06666667       0.00000000 </v>
   <v>      -0.33333333       0.06666667       0.00000000 </v>
   <v>      -0.26666667       0.06666667       0.00000000 </v>
   <v>      -0.20000000       0.06666667       0.00000000 </v>
   <v>      -0.13333333       0.06666667       0.00000000 </v>
   <v>      -0.06666667       0.06666667       0.00000000 </v>
   <v>       0.13333333       0.13333333       0.00000000 </v>
   <v>       0.20000000       0.13333333       0.00000000 </v>
   <v>       0.26666667       0.13333333       0.00000000 </v>
   <v>       0.33333333       0.13333333       0.00000000 </v>
   <v>       0.40000000       0.13333333       0.00000000 </v>
   <v>       0.46666667       0.13333333       0.00000000 </v>
   <v>      -0.46666667       0.13333333       0.00000000 </v>
   <v>      -0.40000000       0.13333333       0.00000000 </v>
   <v>      -0.33333333       0.13333333       0.00000000 </v>
   <v>      -0.26666667       0.13333333       0.00000000 </v>
   <v>      -0.20000000       0.13333333       0.00000000 </v>
   <v>      -0.13333333       0.13333333       0.00000000 </v>
   <v>       0.20000000       0.20000000       0.00000000 </v>
   <v>       0.26666667       0.20000000       0.00000000 </v>
   <v>       0.33333333       0.20000000       0.00000000 </v>
   <v>       0.40000000       0.20000000       0.00000000 </v>
   <v>       0.46666667       0.20000000       0.00000000 </v>
   <v>      -0.46666667       0.20000000       0.00000000 </v>
   <v>      -0.40000000       0.20000000       0.00000000 </v>
   <v>      -0.33333333       0.20000000       0.00000000 </v>
   <v>      -0.26666667       0.20000000       0.00000000 </v>
   <v>      -0.20000000       0.20000000       0.00000000 </v>
   <v>       0.26666667       0.26666667       0.00000000 </v>
   <v>       0.33333333       0.26666667       0.00000000 </v>
   <v>       0.40000000       0.26666667       0.00000000 </v>
   <v>       0.46666667       0.26666667       0.00000000 </v>
   <v>      -0.46666667       0.26666667       0.00000000 </v>
   <v>      -0.40000000       0.26666667       0.00000000 </v>
   <v>      -0.33333333       0.26666667       0.00000000 </v>
   <v>      -0.26666667       0.26666667       0.00000000 </v>
   <v>       0.33333333       0.33333333       0.00000000 </v>
   <v>       0.40000000       0.33333333       0.00000000 </v>
   <v>       0.46666667       0.33333333       0.00000000 </v>
   <v>      -0.46666667       0.33333333       0.00000000 </v>
   <v>      -0.40000000       0.33333333       0.00000000 </v>
   <v>      -0.33333333       0.33333333       0.00000000 </v>
   <v>       0.40000000       0.40000000       0.00000000 </v>
   <v>       0.46666667       0.40000000       0.00000000 </v>
   <v>      -0.46666667       0.40000000       0.00000000 </v>
   <v>      -0.40000000       0.40000000       0.00000000 </v>
   <v>       0.46666667       0.46666667       0.00000000 </v>
   <v>      -0.46666667       0.46666667       0.00000000 </v>
   <v>       0.20000000       0.13333333       0.06666667 </v>
   <v>       0.26666667       0.13333333       0.06666667 </v>
   <v>       0.33333333       0.13333333       0.06666667 </v>
   <v>       0.40000000       0.13333333       0.06666667 </v>
   <v>       0.46666667       0.13333333       0.06666667 </v>
   <v>      -0.46666667       0.13333333       0.06666667 </v>
   <v>       0.26666667       0.20000000       0.06666667 </v>
   <v>       0.33333333       0.20000000       0.06666667 </v>
   <v>       0.40000000       0.20000000       0.06666667 </v>
   <v>       0.46666667       0.20000000       0.06666667 </v>
   <v>      -0.46666667       0.20000000       0.06666667 </v>
   <v>      -0.40000000       0.20000000       0.06666667 </v>
   <v>      -0.33333333       0.20000000       0.06666667 </v>
   <v>      -0.26666667       0.20000000       0.06666667 </v>
   <v>      -0.20000000       0.20000000       0.06666667 </v>
   <v>      -0.13333333       0.20000000       0.06666667 </v>
   <v>       0.33333333       0.26666667       0.06666667 </v>
   <v>       0.40000000       0.26666667       0.06666667 </v>
   <v>       0.46666667       0.26666667       0.06666667 </v>
   <v>      -0.46666667       0.26666667       0.06666667 </v>
   <v>      -0.40000000       0.26666667       0.06666667 </v>
   <v>      -0.33333333       0.26666667       0.06666667 </v>
   <v>      -0.26666667       0.26666667       0.06666667 </v>
   <v>      -0.20000000       0.26666667       0.06666667 </v>
   <v>       0.40000000       0.33333333       0.06666667 </v>
   <v>       0.46666667       0.33333333       0.06666667 </v>
   <v>      -0.46666667       0.33333333       0.06666667 </v>
   <v>      -0.40000000       0.33333333       0.06666667 </v>
   <v>      -0.33333333       0.33333333       0.06666667 </v>
   <v>      -0.26666667       0.33333333       0.06666667 </v>
   <v>       0.46666667       0.40000000       0.06666667 </v>
   <v>      -0.46666667       0.40000000       0.06666667 </v>
   <v>      -0.40000000       0.40000000       0.06666667 </v>
   <v>      -0.33333333       0.40000000       0.06666667 </v>
   <v>      -0.46666667       0.46666667       0.06666667 </v>
   <v>      -0.40000000       0.46666667       0.06666667 </v>
   <v>       0.40000000       0.26666667       0.13333333 </v>
   <v>       0.46666667       0.26666667       0.13333333 </v>
   <v>      -0.46666667       0.26666667       0.13333333 </v>
   <v>      -0.40000000       0.26666667       0.13333333 </v>
   <v>       0.46666667       0.33333333       0.13333333 </v>
   <v>      -0.46666667       0.33333333       0.13333333 </v>
   <v>      -0.40000000       0.33333333       0.13333333 </v>
   <v>      -0.33333333       0.33333333       0.13333333 </v>
   <v>      -0.26666667       0.33333333       0.13333333 </v>
   <v>      -0.20000000       0.33333333       0.13333333 </v>
   <v>      -0.46666667       0.40000000       0.13333333 </v>
   <v>      -0.40000000       0.40000000       0.13333333 </v>
   <v>      -0.33333333       0.40000000       0.13333333 </v>
   <v>      -0.26666667       0.40000000       0.13333333 </v>
   <v>      -0.40000000       0.46666667       0.13333333 </v>
   <v>      -0.33333333       0.46666667       0.13333333 </v>
   <v>      -0.40000000       0.40000000       0.20000000 </v>
   <v>      -0.33333333       0.40000000       0.20000000 </v>
   <v>      -0.33333333       0.46666667       0.20000000 </v>
   <v>      -0.26666667       0.46666667       0.20000000 </v>
  </varray>
  <varray name="weights" >
   <v>       0.00029630 </v>
   <v>       0.00237037 </v>
   <v>       0.00237037 </v>
   <v>       0.00237037 </v>
   <v>       0.00237037 </v>
   <v>       0.00237037 </v>
   <v>       0.00237037 </v>
   <v>       0.00237037 </v>
   <v>       0.00177778 </v>
   <v>       0.00711111 </v>
   <v>       0.00711111 </v>
   <v>       0.00711111 </v>
   <v>       0.00711111 </v>
   <v>       0.00711111 </v>
   <v>       0.00711111 </v>
   <v>       0.00711111 </v>
   <v>       0.00711111 </v>
   <v>       0.00711111 </v>
   <v>       0.00711111 </v>
   <v>       0.00711111 </v>
   <v>       0.00711111 </v>
   <v>       0.00355556 </v>
   <v>       0.00177778 </v>
   <v>       0.00711111 </v>
   <v>       0.00711111 </v>
   <v>       0.00711111 </v>
   <v>       0.00711111 </v>
   <v>       0.00711111 </v>
   <v>       0.00711111 </v>
   <v>       0.00711111 </v>
   <v>       0.00711111 </v>
   <v>       0.00711111 </v>
   <v>       0.00711111 </v>
   <v>       0.00355556 </v>
   <v>       0.00177778 </v>
   <v>       0.00711111 </v>
   <v>       0.00711111 </v>
   <v>       0.00711111 </v>
   <v>       0.00711111 </v>
   <v>       0.00711111 </v>
   <v>       0.00711111 </v>
   <v>       0.00711111 </v>
   <v>       0.00711111 </v>
   <v>       0.00355556 </v>
   <v>       0.00177778 </v>
   <v>       0.00711111 </v>
   <v>       0.00711111 </v>
   <v>       0.00711111 </v>
   <v>       0.00711111 </v>
   <v>       0.00711111 </v>
   <v>       0.00711111 </v>
   <v>       0.00355556 </v>
   <v>       0.00177778 </v>
   <v>       0.00711111 </v>
   <v>       0.00711111 </v>
   <v>       0.00711111 </v>
   <v>       0.00711111 </v>
   <v>       0.00355556 </v>
   <v>       0.00177778 </v>
   <v>       0.00711111 </v>
   <v>       0.00711111 </v>
   <v>       0.00355556 </v>
   <v>       0.00177778 </v>
   <v>       0.00355556 </v>
   <v>       0.00711111 </v>
   <v>       0.01422222 </v>
   <v>       0.01422222 </v>
   <v>       0.01422222 </v>
   <v>       0.01422222 </v>
   <v>       0.01422222 </v>
   <v>       0.00711111 </v>
   <v>       0.01422222 </v>
   <v>       0.01422222 </v>
   <v>       0.01422222 </v>
   <v>       0.01422222 </v>
   <v>       0.01422222 </v>
   <v>       0.01422222 </v>
   <v>       0.01422222 </v>
   <v>       0.01422222 </v>
   <v>       0.00711111 </v>
   <v>       0.00711111 </v>
   <v>       0.01422222 </v>
   <v>       0.01422222 </v>
   <v>       0.01422222 </v>
   <v>       0.01422222 </v>
   <v>       0.01422222 </v>
   <v>       0.01422222 </v>
   <v>       0.00711111 </v>
   <v>       0.00711111 </v>
   <v>       0.01422222 </v>
   <v>       0.01422222 </v>
   <v>       0.01422222 </v>
   <v>       0.01422222 </v>
   <v>       0.00711111 </v>
   <v>       0.00711111 </v>
   <v>       0.01422222 </v>
   <v>       0.01422222 </v>
   <v>       0.00711111 </v>
   <v>       0.00711111 </v>
   <v>       0.00711111 </v>
   <v>       0.00711111 </v>
   <v>       0.01422222 </v>
   <v>       0.01422222 </v>
   <v>       0.01422222 </v>
   <v>       0.00711111 </v>
   <v>       0.01422222 </v>
   <v>       0.01422222 </v>
   <v>       0.01422222 </v>
   <v>       0.01422222 </v>
   <v>       0.00711111 </v>
   <v>       0.00711111 </v>
   <v>       0.01422222 </v>
   <v>       0.01422222 </v>
   <v>       0.00711111 </v>
   <v>       0.00711111 </v>
   <v>       0.00711111 </v>
   <v>       0.00711111 </v>
   <v>       0.01422222 </v>
   <v>       0.00711111 </v>
   <v>       0.00711111 </v>
  </varray>
 </kpoints>
 <parameters>
  <separator name="general" >
   <i type="string" name="SYSTEM">unknown system</i>
   <i type="logical" name="LCOMPAT"> F  </i>
  </separator>
  <separator name="electronic" >
   <i type="string" name="PREC">accura</i>
   <i name="ENMAX">    700.00000000</i>
   <i name="ENAUG">    322.06900000</i>
   <i name="EDIFF">      0.00000100</i>
   <i type="int" name="IALGO">    38</i>
   <i type="int" name="IWAVPR">    11</i>
   <i type="int" name="NBANDS">     8</i>
   <i type="int" name="NBANDSLOW">    -1</i>
   <i type="int" name="NBANDSHIGH">    -1</i>
   <i name="NELECT">      4.00000000</i>
   <i type="int" name="TURBO">     0</i>
   <i type="int" name="IRESTART">     0</i>
   <i type="int" name="NREBOOT">     0</i>
   <i type="int" name="NMIN">     0</i>
   <i name="EREF">      0.00000000</i>
   <separator name="electronic smearing" >
    <i type="int" name="ISMEAR">     0</i>
    <i name="SIGMA">      0.05000000</i>
    <i name="KSPACING">      0.50000000</i>
    <i type="logical" name="KGAMMA"> T  </i>
    <i type="logical" name="KBLOWUP"> T  </i>
   </separator>
   <separator name="electronic projectors" >
    <i type="logical" name="LREAL"> F  </i>
    <v name="ROPT">      0.00000000</v>
    <i type="int" name="LMAXPAW">  -100</i>
    <i type="int" name="LMAXMIX">     2</i>
    <i type="logical" name="NLSPLINE"> F  </i>
   </separator>
   <separator name="electronic startup" >
    <i type="int" name="ISTART">     0</i>
    <i type="int" name="ICHARG">     2</i>
    <i type="int" name="INIWAV">     1</i>
   </separator>
   <separator name="electronic spin" >
    <i type="int" name="ISPIN">     1</i>
    <i type="logical" name="LNONCOLLINEAR"> F  </i>
    <v name="MAGMOM">      1.00000000</v>
    <i name="NUPDOWN">     -1.00000000</i>
    <i type="logical" name="LSORBIT"> F  </i>
    <v name="SAXIS">      0.00000000      0.00000000      1.00000000</v>
    <i type="logical" name="LSPIRAL"> F  </i>
    <v name="QSPIRAL">      0.00000000      0.00000000      0.00000000</v>
    <i type="logical" name="LZEROZ"> F  </i>
   </separator>
   <separator name="electronic exchange-correlation" >
    <i type="logical" name="LASPH"> T  </i>
    <i type="logical" name="LMETAGGA"> F  </i>
   </separator>
   <separator name="electronic convergence" >
    <i type="int" name="NELM">    90</i>
    <i type="int" name="NELMDL">    -5</i>
    <i type="int" name="NELMIN">     6</i>
    <i name="ENINI">    700.00000000</i>
    <separator name="electronic convergence detail" >
     <i type="logical" name="LDIAG"> T  </i>
     <i type="logical" name="LSUBROT"> F  </i>
     <i name="WEIMIN">      0.00100000</i>
     <i name="EBREAK">      0.00000003</i>
     <i name="DEPER">      0.30000000</i>
     <i type="int" name="NRMM">     4</i>
     <i name="TIME">      0.40000000</i>
    </separator>
   </separator>
   <separator name="electronic mixer" >
    <i name="AMIX">      0.40000000</i>
    <i name="BMIX">      1.00000000</i>
    <i name="AMIN">      0.10000000</i>
    <i name="AMIX_MAG">      1.60000000</i>
    <i name="BMIX_MAG">      1.00000000</i>
    <separator name="electronic mixer details" >
     <i type="int" name="IMIX">     4</i>
     <i type="logical" name="MIXFIRST"> F  </i>
     <i type="int" name="MAXMIX">   -45</i>
     <i name="WC">    100.00000000</i>
     <i type="int" name="INIMIX">     1</i>
     <i type="int" name="MIXPRE">     1</i>
     <i type="int" name="MREMOVE">     5</i>
    </separator>
   </separator>
   <separator name="electronic dipolcorrection" >
    <i type="logical" name="LDIPOL"> F  </i>
    <i type="logical" name="LMONO"> F  </i>
    <i type="int" name="IDIPOL">     0</i>
    <i name="EPSILON">      1.00000000</i>
    <v name="DIPOL">   -100.00000000   -100.00000000   -100.00000000</v>
    <i name="EFIELD">      0.00000000</i>
   </separator>
  </separator>
  <separator name="grids" >
   <i type="int" name="NGX">    24</i>
   <i type="int" name="NGY">    24</i>
   <i type="int" name="NGZ">    24</i>
   <i type="int" name="NGXF">    48</i>
   <i type="int" name="NGYF">    48</i>
   <i type="int" name="NGZF">    48</i>
   <i type="logical" name="ADDGRID"> T  </i>
  </separator>
  <separator name="ionic" >
   <i type="int" name="NSW">   100</i>
   <i type="int" name="IBRION">     2</i>
   <i type="int" name="MDALGO">     0</i>
   <i type="int" name="ISIF">     2</i>
   <i name="PSTRESS">      0.00000000</i>
   <i name="EDIFFG">     -0.00200000</i>
   <i type="int" name="NFREE">     1</i>
   <i name="POTIM">      0.50000000</i>
   <i name="SMASS">     -3.00000000</i>
   <i name="SCALEE">      1.00000000</i>
  </separator>
  <separator name="ionic md" >
   <i name="TEBEG">      0.00010000</i>
   <i name="TEEND">      0.00010000</i>
   <i type="int" name="NBLOCK">     1</i>
   <i type="int" name="KBLOCK">   100</i>
   <i type="int" name="NPACO">   256</i>
   <i name="APACO">     16.00000000</i>
  </separator>
  <separator name="symmetry" >
   <i type="int" name="ISYM">     2</i>
   <i name="SYMPREC">      0.00001000</i>
  </separator>
  <separator name="dos" >
   <i type="int" name="LORBIT">     0</i>
   <v name="RWIGS">     -1.00000000</v>
   <i type="int" name="NEDOS">   301</i>
   <i name="EMIN">     10.00000000</i>
   <i name="EMAX">    -10.00000000</i>
   <i name="EFERMI">      0.00000000</i>
  </separator>
  <separator name="writing" >
   <i type="int" name="NWRITE">     2</i>
   <i type="logical" name="LWAVE"> F  </i>
   <i type="logical" name="LDOWNSAMPLE"> F  </i>
   <i type="logical" name="LCHARG"> F  </i>
   <i type="logical" name="LPARD"> F  </i>
   <i type="logical" name="LVTOT"> F  </i>
   <i type="logical" name="LVHAR"> F  </i>
   <i type="logical" name="LELF"> F  </i>
   <i type="logical" name="LOPTICS"> F  </i>
   <v name="STM">      0.00000000      0.00000000      0.00000000      0.00000000      0.00000000      0.00000000      0.00000000</v>
  </separator>
  <separator name="performance" >
   <i type="int" name="NPAR">     4</i>
   <i type="int" name="NSIM">     4</i>
   <i type="int" name="NBLK">    -1</i>
   <i type="logical" name="LPLANE"> T  </i>
   <i type="logical" name="LSCALAPACK"> T  </i>
   <i type="logical" name="LSCAAWARE"> F  </i>
   <i type="logical" name="LSCALU"> F  </i>
   <i type="logical" name="LASYNC"> F  </i>
   <i type="logical" name="LORBITALREAL"> F  </i>
  </separator>
  <separator name="miscellaneous" >
   <i type="int" name="IDIOT">     3</i>
   <i type="int" name="PHON_NSTRUCT">    -1</i>
   <i type="logical" name="LMUSIC"> F  </i>
   <v name="POMASS">     28.08500000</v>
   <v name="DARWINR">      0.00000000</v>
   <v name="DARWINV">      1.00000000</v>
   <i type="logical" name="LCORR"> T  </i>
  </separator>
  <i type="logical" name="GGA_COMPAT"> T  </i>
  <i type="logical" name="LBERRY"> F  </i>
  <i type="int" name="ICORELEVEL">     0</i>
  <i type="logical" name="LDAU"> F  </i>
  <i type="int" name="I_CONSTRAINED_M">     0</i>
  <separator name="electronic exchange-correlation" >
   <i type="string" name="GGA">--</i>
   <i type="int" name="VOSKOWN">     0</i>
   <i type="logical" name="LHFCALC"> F  </i>
   <i type="string" name="PRECFOCK"></i>
   <i type="logical" name="LSYMGRAD"> F  </i>
   <i type="logical" name="LHFONE"> F  </i>
   <i type="logical" name="LRHFCALC"> F  </i>
   <i type="logical" name="LTHOMAS"> F  </i>
   <i type="logical" name="LMODELHF"> F  </i>
   <i type="logical" name="LFOCKACE"> F  </i>
   <i name="ENCUT4O">     -1.00000000</i>
   <i type="int" name="EXXOEP">     0</i>
   <i type="int" name="FOURORBIT">     0</i>
   <i name="AEXX">      0.00000000</i>
   <i name="HFALPHA">      0.00000000</i>
   <i name="MCALPHA">      0.00000000</i>
   <i name="ALDAX">      1.00000000</i>
   <i name="AGGAX">      1.00000000</i>
   <i name="ALDAC">      1.00000000</i>
   <i name="AGGAC">      1.00000000</i>
   <i type="int" name="NKREDX">     1</i>
   <i type="int" name="NKREDY">     1</i>
   <i type="int" name="NKREDZ">     1</i>
   <i type="logical" name="SHIFTRED"> F  </i>
   <i type="logical" name="ODDONLY"> F  </i>
   <i type="logical" name="EVENONLY"> F  </i>
   <i type="int" name="LMAXFOCK">     0</i>
   <i type="int" name="NMAXFOCKAE">     0</i>
   <i type="logical" name="LFOCKAEDFT"> F  </i>
   <i name="HFSCREEN">      0.00000000</i>
   <i name="HFSCREENC">      0.00000000</i>
   <i type="int" name="NBANDSGWLOW">     0</i>
  </separator>
  <separator name="vdW DFT" >
   <i type="logical" name="LUSE_VDW"> F  </i>
   <i name="Zab_VDW">     -0.84910000</i>
   <i name="PARAM1">      0.12340000</i>
   <i name="PARAM2">      1.00000000</i>
   <i name="PARAM3">      0.00000000</i>
  </separator>
  <separator name="model GW" >
   <i type="int" name="MODEL_GW">     0</i>
   <i name="MODEL_EPS0">      8.70496273</i>
   <i name="MODEL_ALPHA">      1.00000000</i>
  </separator>
  <separator name="linear response parameters" >
   <i type="logical" name="LEPSILON"> F  </i>
   <i type="logical" name="LRPA"> F  </i>
   <i type="logical" name="LNABLA"> F  </i>
   <i type="logical" name="LVEL"> F  </i>
   <i type="int" name="KINTER">     0</i>
   <i name="CSHIFT">      0.10000000</i>
   <i name="OMEGAMAX">     -1.00000000</i>
   <i name="DEG_THRESHOLD">      0.00200000</i>
   <i name="RTIME">     -0.10000000</i>
   <i name="WPLASMAI">      0.00000000</i>
   <v name="DFIELD">      0.00000000      0.00000000      0.00000000</v>
   <v name="WPLASMA">      0.00000000      0.00000000      0.00000000      0.00000000      0.00000000      0.00000000      0.00000000      0.00000000      0.00000000</v>
  </separator>
  <separator name="orbital magnetization" >
   <i type="logical" name="NUCIND"> F  </i>
   <v name="MAGPOS">      0.00000000      0.00000000      0.00000000</v>
   <i type="logical" name="LNICSALL"> T  </i>
   <i type="logical" name="ORBITALMAG"> F  </i>
   <i type="logical" name="LMAGBLOCH"> F  </i>
   <i type="logical" name="LCHIMAG"> F  </i>
   <i type="logical" name="LGAUGE"> T  </i>
   <i type="int" name="MAGATOM">     0</i>
   <v name="MAGDIPOL">      0.00000000      0.00000000      0.00000000</v>
   <v name="AVECCONST">      0.00000000      0.00000000      0.00000000</v>
  </separator>
  <separator name="response functions" >
   <i type="logical" name="LFINITE_TEMPERATURE"> F  </i>
   <i type="logical" name="LADDER"> F  </i>
   <i type="logical" name="LRPAFORCE"> F  </i>
   <i type="logical" name="LFXC"> F  </i>
   <i type="logical" name="LHARTREE"> T  </i>
   <i type="int" name="IBSE">     0</i>
   <v type="int" name="KPOINT">    -1     0     0     0</v>
   <i type="logical" name="LTCTC"> F  </i>
   <i type="logical" name="LTCTE"> F  </i>
   <i type="logical" name="LTETE"> F  </i>
   <i type="logical" name="LTRIPLET"> F  </i>
   <i type="logical" name="LFXCEPS"> F  </i>
   <i type="logical" name="LFXHEG"> F  </i>
   <i type="int" name="NATURALO">     2</i>
   <i type="logical" name="LHOLEGF"> F  </i>
   <i type="logical" name="L2ORDER"> F  </i>
   <i type="logical" name="LDMP1"> F  </i>
   <i type="logical" name="LMP2LT"> F  </i>
   <i type="logical" name="LSMP2LT"> F  </i>
   <i type="logical" name="LGWLF"> F  </i>
   <i name="ENCUTGW">     -2.00000000</i>
   <i name="ENCUTGWSOFT">     -2.00000000</i>
   <i name="ENCUTLF">     -1.00000000</i>
   <i type="logical" name="LESF_SPLINES"> F  </i>
   <i type="int" name="LMAXMP2">    -1</i>
   <i name="SCISSOR">      0.00000000</i>
   <i type="int" name="NOMEGA">     0</i>
   <i type="int" name="NOMEGAR">     0</i>
   <i type="int" name="NBANDSGW">    -1</i>
   <i type="int" name="NBANDSO">    -1</i>
   <i type="int" name="NBANDSV">    -1</i>
   <i type="int" name="NELM">    90</i>
   <i type="int" name="NELMHF">     1</i>
   <i type="int" name="DIM">     3</i>
   <i type="int" name="IESPILON">     4</i>
   <i type="int" name="ANTIRES">     0</i>
   <i name="OMEGAMAX">    -30.00000000</i>
   <i name="OMEGAMIN">    -30.00000000</i>
   <i name="OMEGATL">   -200.00000000</i>
   <i type="int" name="OMEGAGRID">     0</i>
   <i name="CSHIFT">     -0.10000000</i>
   <i type="logical" name="LSELFENERGY"> F  </i>
   <i type="logical" name="LSPECTRAL"> F  </i>
   <i type="logical" name="LSPECTRALGW"> F  </i>
   <i type="logical" name="LSINGLES"> F  </i>
   <i type="logical" name="LFERMIGW"> F  </i>
   <i type="logical" name="ODDONLYGW"> F  </i>
   <i type="logical" name="EVENONLYGW"> F  </i>
   <i type="int" name="NKREDLFX">     1</i>
   <i type="int" name="NKREDLFY">     1</i>
   <i type="int" name="NKREDLFZ">     1</i>
   <i type="int" name="MAXMEM">  2800</i>
   <i type="int" name="TELESCOPE">     0</i>
   <i type="int" name="NTAUPAR">    -1</i>
   <i type="int" name="NOMEGAPAR">    -1</i>
   <i name="DAMP_NEWTON">      0.80000001</i>
   <i name="LAMBDA">      1.00000000</i>
  </separator>
  <separator name="External order field" >
   <i name="OFIELD_KAPPA">      0.00000000</i>
   <v name="OFIELD_K">      0.00000000      0.00000000      0.00000000</v>
   <i name="OFIELD_Q6_NEAR">      0.00000000</i>
   <i name="OFIELD_Q6_FAR">      0.00000000</i>
   <i name="OFIELD_A">      0.00000000</i>
  </separator>
 </parameters>
 <atominfo>
  <atoms>       1 </atoms>
  <types>       1 </types>
  <array name="atoms" >
   <dimension dim="1">ion</dimension>
   <field type="string">element</field>
   <field type="int">atomtype</field>
   <set>
    <rc><c>Si</c><c>   1</c></rc>
   </set>
  </array>
  <array name="atomtypes" >
   <dimension dim="1">type</dimension>
   <field type="int">atomspertype</field>
   <field type="string">element</field>
   <field>mass</field>
   <field>valence</field>
   <field type="string">pseudopotential</field>
   <set>
    <rc><c>   1</c><c>Si</c><c>     28.08500000</c><c>      4.00000000</c><c>  PAW_PBE Si 05Jan2001                  </c></rc>
   </set>
  </array>
 </atominfo>
 <structure name="initialpos" >
  <crystal>
   <varray name="basis" >
    <v>       2.37086895       0.00000000       1.36882068 </v>
    <v>       0.79028965       2.23527645       1.36882068 </v>
    <v>       0.00000000       0.00000000       2.73764338 </v>
   </varray>
   <i name="volume">     14.50827121 </i>
   <varray name="rec_basis" >
    <v>       0.42178628      -0.14912399       0.00000000 </v>
    <v>       0.00000000       0.44737196       0.00000000 </v>
    <v>      -0.21089299      -0.14912388       0.36527767 </v>
   </varray>
  </crystal>
  <varray name="positions" >
   <v>       0.00000000       0.00000000       0.00000000 </v>
  </varray>
 </structure>
 <calculation>
  <scstep>
   <time name="dav">    0.98    0.98</time>
   <time name="total">    1.20    1.21</time>
   <energy>
    <i name="alphaZ">      2.32027168 </i>
    <i name="ewald">   -136.42075534 </i>
    <i name="hartreedc">     -0.60405697 </i>
    <i name="XCdc">     -8.81323386 </i>
    <i name="pawpsdc">     88.12379961 </i>
    <i name="pawaedc">    -70.53051779 </i>
    <i name="eentropy">     -0.00013148 </i>
    <i name="bandstr">     21.16440710 </i>
    <i name="atom">    103.06662367 </i>
    <i name="e_fr_energy">     -1.69359338 </i>
    <i name="e_wo_entrp">     -1.69346190 </i>
    <i name="e_0_energy">     -1.69352764 </i>
   </energy>
  </scstep>
  <scstep>
   <time name="dav">    1.36    1.38</time>
   <time name="total">    1.37    1.38</time>
   <energy>
    <i name="e_fr_energy">     -4.88463203 </i>
    <i name="e_wo_entrp">     -4.88372222 </i>
    <i name="e_0_energy">     -4.88417712 </i>
   </energy>
  </scstep>
  <scstep>
   <time name="dav">    1.05    1.06</time>
   <time name="total">    1.05    1.06</time>
   <energy>
    <i name="e_fr_energy">     -4.90431352 </i>
    <i name="e_wo_entrp">     -4.90345879 </i>
    <i name="e_0_energy">     -4.90388616 </i>
   </energy>
  </scstep>
  <scstep>
   <time name="dav">    1.61    1.62</time>
   <time name="total">    1.61    1.63</time>
   <energy>
    <i name="e_fr_energy">     -4.90433492 </i>
    <i name="e_wo_entrp">     -4.90348021 </i>
    <i name="e_0_energy">     -4.90390756 </i>
   </energy>
  </scstep>
  <scstep>
   <time name="dav">    1.08    1.09</time>
   <time name="total">    1.17    1.18</time>
   <energy>
    <i name="e_fr_energy">     -4.90433492 </i>
    <i name="e_wo_entrp">     -4.90348021 </i>
    <i name="e_0_energy">     -4.90390756 </i>
   </energy>
  </scstep>
  <scstep>
   <time name="dav">    1.12    1.12</time>
   <time name="total">    1.41    1.42</time>
   <energy>
    <i name="e_fr_energy">     -4.89144385 </i>
    <i name="e_wo_entrp">     -4.89060054 </i>
    <i name="e_0_energy">     -4.89102219 </i>
   </energy>
  </scstep>
  <scstep>
   <time name="dav">    1.09    1.09</time>
   <time name="total">    1.38    1.40</time>
   <energy>
    <i name="e_fr_energy">     -4.88410215 </i>
    <i name="e_wo_entrp">     -4.88328321 </i>
    <i name="e_0_energy">     -4.88369268 </i>
   </energy>
  </scstep>
  <scstep>
   <time name="dav">    1.42    1.42</time>
   <time name="total">    1.72    1.74</time>
   <energy>
    <i name="e_fr_energy">     -4.88406752 </i>
    <i name="e_wo_entrp">     -4.88324687 </i>
    <i name="e_0_energy">     -4.88365719 </i>
   </energy>
  </scstep>
  <scstep>
   <time name="dav">    1.19    1.19</time>
   <time name="total">    1.41    1.42</time>
   <energy>
    <i name="alphaZ">      2.32027168 </i>
    <i name="ewald">   -136.42075534 </i>
    <i name="hartreedc">     -0.45174228 </i>
    <i name="XCdc">     -8.76107890 </i>
    <i name="pawpsdc">    295.07565220 </i>
    <i name="pawaedc">   -277.48886721 </i>
    <i name="eentropy">     -0.00082078 </i>
    <i name="bandstr">     17.77664909 </i>
    <i name="atom">    103.06662367 </i>
    <i name="e_fr_energy">     -4.88406788 </i>
    <i name="e_wo_entrp">     -4.88324710 </i>
    <i name="e_0_energy">     -4.88365749 </i>
   </energy>
  </scstep>
  <structure>
   <crystal>
    <varray name="basis" >
     <v>       2.37086895       0.00000000       1.36882068 </v>
     <v>       0.79028965       2.23527645       1.36882068 </v>
     <v>       0.00000000       0.00000000       2.73764338 </v>
    </varray>
    <i name="volume">     14.50827121 </i>
    <varray name="rec_basis" >
     <v>       0.42178628      -0.14912399       0.00000000 </v>
     <v>       0.00000000       0.44737196       0.00000000 </v>
     <v>      -0.21089299      -0.14912388       0.36527767 </v>
    </varray>
   </crystal>
   <varray name="positions" >
    <v>       0.00000000       0.00000000       0.00000000 </v>
   </varray>
  </structure>
  <varray name="forces" >
   <v>      -0.00000000       0.00000000       0.00000000 </v>
  </varray>
  <varray name="stress" >
   <v>      -3.68409170       0.00000000       0.00000157 </v>
   <v>       0.00000000      -3.68409093       0.00000111 </v>
   <v>       0.00000157       0.00000111      -3.68409097 </v>
  </varray>
  <energy>
   <i name="e_fr_energy">     -4.88406788 </i>
   <i name="e_wo_entrp">     -4.88324710 </i>
   <i name="e_0_energy">     -4.88365749 </i>
  </energy>
  <time name="totalsc">   14.03   14.29</time>
  <eigenvalues>
   <array>
    <dimension dim="1">band</dimension>
    <dimension dim="2">kpoint</dimension>
    <dimension dim="3">spin</dimension>
    <field>eigene</field>
    <field>occ</field>
    <set>
     <set comment="spin 1">
      <set comment="kpoint 1">
       <r>   -4.2939    1.0000 </r>
       <r>   21.2423    0.0000 </r>
       <r>   21.2423    0.0000 </r>
       <r>   21.2423    0.0000 </r>
       <r>   22.0535    0.0000 </r>
       <r>   22.0535    0.0000 </r>
       <r>   22.0535    0.0000 </r>
       <r>   27.3844    0.0000 </r>
      </set>
      <set comment="kpoint 2">
       <r>   -4.1647    1.0000 </r>
       <r>   19.1131    0.0000 </r>
       <r>   20.5838    0.0000 </r>
       <r>   20.5838    0.0000 </r>
       <r>   22.8701    0.0000 </r>
       <r>   22.8701    0.0000 </r>
       <r>   23.0846    0.0000 </r>
       <r>   28.2554    0.0000 </r>
      </set>
      <set comment="kpoint 3">
       <r>   -3.7775    1.0000 </r>
       <r>   16.2951    0.0000 </r>
       <r>   19.8259    0.0000 </r>
       <r>   19.8259    0.0000 </r>
       <r>   23.3691    0.0000 </r>
       <r>   23.9562    0.0000 </r>
       <r>   23.9562    0.0000 </r>
       <r>   27.2298    0.0000 </r>
      </set>
      <set comment="kpoint 4">
       <r>   -3.1340    1.0000 </r>
       <r>   13.4747    0.0000 </r>
       <r>   19.2505    0.0000 </r>
       <r>   19.2505    0.0000 </r>
       <r>   23.2988    0.0000 </r>
       <r>   24.1806    0.0000 </r>
       <r>   24.1806    0.0000 </r>
       <r>   27.2059    0.0000 </r>
      </set>
      <set comment="kpoint 5">
       <r>   -2.2368    1.0000 </r>
       <r>   10.7802    0.0000 </r>
       <r>   18.8717    0.0000 </r>
       <r>   18.8717    0.0000 </r>
       <r>   23.2010    0.0000 </r>
       <r>   23.2966    0.0000 </r>
       <r>   23.2966    0.0000 </r>
       <r>   28.5983    0.0000 </r>
      </set>
      <set comment="kpoint 6">
       <r>   -1.0900    1.0000 </r>
       <r>    8.2634    1.0000 </r>
       <r>   18.6782    0.0000 </r>
       <r>   18.6783    0.0000 </r>
       <r>   22.2963    0.0000 </r>
       <r>   22.2963    0.0000 </r>
       <r>   23.1863    0.0000 </r>
       <r>   27.4393    0.0000 </r>
      </set>
      <set comment="kpoint 7">
       <r>    0.2990    1.0000 </r>
       <r>    5.9529    1.0000 </r>
       <r>   18.6347    0.0000 </r>
       <r>   18.6347    0.0000 </r>
       <r>   21.4968    0.0000 </r>
       <r>   21.4968    0.0000 </r>
       <r>   23.2693    0.0000 </r>
       <r>   26.5242    0.0000 </r>
      </set>
      <set comment="kpoint 8">
       <r>    1.8996    1.0000 </r>
       <r>    3.8895    1.0000 </r>
       <r>   18.6633    0.0000 </r>
       <r>   18.6633    0.0000 </r>
       <r>   21.0380    0.0000 </r>
       <r>   21.0380    0.0000 </r>
       <r>   23.3774    0.0000 </r>
       <r>   25.9874    0.0000 </r>
      </set>
      <set comment="kpoint 9">
       <r>   -4.1216    1.0000 </r>
       <r>   19.5869    0.0000 </r>
       <r>   19.5869    0.0000 </r>
       <r>   20.8395    0.0000 </r>
       <r>   21.1393    0.0000 </r>
       <r>   23.9244    0.0000 </r>
       <r>   23.9244    0.0000 </r>
       <r>   27.1401    0.0000 </r>
      </set>
      <set comment="kpoint 10">
       <r>   -3.8205    1.0000 </r>
       <r>   17.2989    0.0000 </r>
       <r>   18.7492    0.0000 </r>
       <r>   20.2946    0.0000 </r>
       <r>   21.6647    0.0000 </r>
       <r>   24.6401    0.0000 </r>
       <r>   25.0681    0.0000 </r>
       <r>   25.6772    0.0000 </r>
      </set>
      <set comment="kpoint 11">
       <r>   -3.2624    1.0000 </r>
       <r>   14.4940    0.0000 </r>
       <r>   18.1150    0.0000 </r>
       <r>   19.6639    0.0000 </r>
       <r>   22.3522    0.0000 </r>
       <r>   24.4425    0.0000 </r>
       <r>   25.2028    0.0000 </r>
       <r>   25.6792    0.0000 </r>
      </set>
      <set comment="kpoint 12">
       <r>   -2.4498    1.0000 </r>
       <r>   11.7603    0.0000 </r>
       <r>   17.6944    0.0000 </r>
       <r>   19.1521    0.0000 </r>
       <r>   21.7996    0.0000 </r>
       <r>   24.2732    0.0000 </r>
       <r>   25.0321    0.0000 </r>
       <r>   26.2311    0.0000 </r>
      </set>
      <set comment="kpoint 13">
       <r>   -1.3863    1.0000 </r>
       <r>    9.1853    1.0000 </r>
       <r>   17.4887    0.0000 </r>
       <r>   18.7159    0.0000 </r>
       <r>   20.9364    0.0000 </r>
       <r>   24.0018    0.0000 </r>
       <r>   24.2466    0.0000 </r>
       <r>   27.8213    0.0000 </r>
      </set>
      <set comment="kpoint 14">
       <r>   -0.0774    1.0000 </r>
       <r>    6.8060    1.0000 </r>
       <r>   17.4940    0.0000 </r>
       <r>   18.2445    0.0000 </r>
       <r>   20.4196    0.0000 </r>
       <r>   23.0486    0.0000 </r>
       <r>   24.2625    0.0000 </r>
       <r>   27.7386    0.0000 </r>
      </set>
      <set comment="kpoint 15">
       <r>    1.4615    1.0000 </r>
       <r>    4.6516    1.0000 </r>
       <r>   17.7006    0.0000 </r>
       <r>   17.7104    0.0000 </r>
       <r>   20.3777    0.0000 </r>
       <r>   22.2863    0.0000 </r>
       <r>   24.2837    0.0000 </r>
       <r>   27.2038    0.0000 </r>
      </set>
      <set comment="kpoint 16">
       <r>    2.5238    1.0000 </r>
       <r>    3.4350    1.0000 </r>
       <r>   17.2263    0.0000 </r>
       <r>   18.0873    0.0000 </r>
       <r>   20.7232    0.0000 </r>
       <r>   21.7674    0.0000 </r>
       <r>   24.2214    0.0000 </r>
       <r>   27.1158    0.0000 </r>
      </set>
      <set comment="kpoint 17">
       <r>    0.9254    1.0000 </r>
       <r>    5.3417    1.0000 </r>
       <r>   16.8878    0.0000 </r>
       <r>   18.6097    0.0000 </r>
       <r>   21.3647    0.0000 </r>
       <r>   21.5443    0.0000 </r>
       <r>   24.0750    0.0000 </r>
       <r>   27.5073    0.0000 </r>
      </set>
      <set comment="kpoint 18">
       <r>   -0.5404    1.0000 </r>
       <r>    7.5754    1.0000 </r>
       <r>   16.7393    0.0000 </r>
       <r>   19.1871    0.0000 </r>
       <r>   21.6910    0.0000 </r>
       <r>   22.2478    0.0000 </r>
       <r>   23.9450    0.0000 </r>
       <r>   28.2332    0.0000 </r>
      </set>
      <set comment="kpoint 19">
       <r>   -1.7684    1.0000 </r>
       <r>   10.0226    0.9947 </r>
       <r>   16.7994    0.0000 </r>
       <r>   19.7379    0.0000 </r>
       <r>   22.2530    0.0000 </r>
       <r>   23.3207    0.0000 </r>
       <r>   23.8956    0.0000 </r>
       <r>   27.8805    0.0000 </r>
      </set>
      <set comment="kpoint 20">
       <r>   -2.7488    1.0000 </r>
       <r>   12.6548    0.0000 </r>
       <r>   17.0757    0.0000 </r>
       <r>   20.2767    0.0000 </r>
       <r>   23.0526    0.0000 </r>
       <r>   23.9080    0.0000 </r>
       <r>   24.4620    0.0000 </r>
       <r>   26.2127    0.0000 </r>
      </set>
      <set comment="kpoint 21">
       <r>   -3.4769    1.0000 </r>
       <r>   15.4247    0.0000 </r>
       <r>   17.5698    0.0000 </r>
       <r>   20.8677    0.0000 </r>
       <r>   23.1559    0.0000 </r>
       <r>   23.8619    0.0000 </r>
       <r>   25.0755    0.0000 </r>
       <r>   25.7842    0.0000 </r>
      </set>
      <set comment="kpoint 22">
       <r>   -3.9495    1.0000 </r>
       <r>   18.1214    0.0000 </r>
       <r>   18.3700    0.0000 </r>
       <r>   21.3208    0.0000 </r>
       <r>   22.3867    0.0000 </r>
       <r>   23.5004    0.0000 </r>
       <r>   24.3850    0.0000 </r>
       <r>   26.8981    0.0000 </r>
      </set>
      <set comment="kpoint 23">
       <r>   -3.6056    1.0000 </r>
       <r>   17.8389    0.0000 </r>
       <r>   17.8389    0.0000 </r>
       <r>   19.4957    0.0000 </r>
       <r>   19.7682    0.0000 </r>
       <r>   23.8782    0.0000 </r>
       <r>   26.2884    0.0000 </r>
       <r>   26.2884    0.0000 </r>
      </set>
      <set comment="kpoint 24">
       <r>   -3.1337    1.0000 </r>
       <r>   15.6552    0.0000 </r>
       <r>   17.1340    0.0000 </r>
       <r>   18.9338    0.0000 </r>
       <r>   20.0459    0.0000 </r>
       <r>   22.5722    0.0000 </r>
       <r>   27.0034    0.0000 </r>
       <r>   27.2433    0.0000 </r>
      </set>
      <set comment="kpoint 25">
       <r>   -2.4068    1.0000 </r>
       <r>   12.9447    0.0000 </r>
       <r>   16.6458    0.0000 </r>
       <r>   18.2168    0.0000 </r>
       <r>   19.9507    0.0000 </r>
       <r>   22.9150    0.0000 </r>
       <r>   26.9816    0.0000 </r>
       <r>   27.1802    0.0000 </r>
      </set>
      <set comment="kpoint 26">
       <r>   -1.4279    1.0000 </r>
       <r>   10.3321    0.0000 </r>
       <r>   16.3775    0.0000 </r>
       <r>   17.3976    0.0000 </r>
       <r>   19.3555    0.0000 </r>
       <r>   24.3836    0.0000 </r>
       <r>   26.0286    0.0000 </r>
       <r>   27.3416    0.0000 </r>
      </set>
      <set comment="kpoint 27">
       <r>   -0.2018    1.0000 </r>
       <r>    7.8948    1.0000 </r>
       <r>   16.3292    0.0000 </r>
       <r>   16.4951    0.0000 </r>
       <r>   19.1075    0.0000 </r>
       <r>   25.0472    0.0000 </r>
       <r>   25.6347    0.0000 </r>
       <r>   28.0375    0.0000 </r>
      </set>
      <set comment="kpoint 28">
       <r>    1.2619    1.0000 </r>
       <r>    5.6668    1.0000 </r>
       <r>   15.6584    0.0000 </r>
       <r>   16.4987    0.0000 </r>
       <r>   19.2098    0.0000 </r>
       <r>   24.2068    0.0000 </r>
       <r>   26.0096    0.0000 </r>
       <r>   29.5445    0.0000 </r>
      </set>
      <set comment="kpoint 29">
       <r>    2.8615    1.0000 </r>
       <r>    3.7598    1.0000 </r>
       <r>   14.9832    0.0000 </r>
       <r>   16.8809    0.0000 </r>
       <r>   19.5998    0.0000 </r>
       <r>   23.5637    0.0000 </r>
       <r>   25.9207    0.0000 </r>
       <r>   29.6832    0.0000 </r>
      </set>
      <set comment="kpoint 30">
       <r>    1.7973    1.0000 </r>
       <r>    4.9769    1.0000 </r>
       <r>   14.5099    0.0000 </r>
       <r>   17.4662    0.0000 </r>
       <r>   20.2448    0.0000 </r>
       <r>   23.1456    0.0000 </r>
       <r>   25.6915    0.0000 </r>
       <r>   29.9836    0.0000 </r>
      </set>
      <set comment="kpoint 31">
       <r>    0.2603    1.0000 </r>
       <r>    7.1250    1.0000 </r>
       <r>   14.2560    0.0000 </r>
       <r>   18.2353    0.0000 </r>
       <r>   21.1230    0.0000 </r>
       <r>   22.9732    0.0000 </r>
       <r>   25.4633    0.0000 </r>
       <r>   29.5097    0.0000 </r>
      </set>
      <set comment="kpoint 32">
       <r>   -1.0466    1.0000 </r>
       <r>    9.4916    1.0000 </r>
       <r>   14.2309    0.0000 </r>
       <r>   19.1501    0.0000 </r>
       <r>   22.2079    0.0000 </r>
       <r>   23.0667    0.0000 </r>
       <r>   25.2767    0.0000 </r>
       <r>   27.3598    0.0000 </r>
      </set>
      <set comment="kpoint 33">
       <r>   -2.1085    1.0000 </r>
       <r>   12.0350    0.0000 </r>
       <r>   14.4472    0.0000 </r>
       <r>   20.1299    0.0000 </r>
       <r>   23.4134    0.0000 </r>
       <r>   23.4454    0.0000 </r>
       <r>   25.0647    0.0000 </r>
       <r>   25.4929    0.0000 </r>
      </set>
      <set comment="kpoint 34">
       <r>   -2.9198    1.0000 </r>
       <r>   14.4920    0.0000 </r>
       <r>   15.1218    0.0000 </r>
       <r>   20.9614    0.0000 </r>
       <r>   23.3819    0.0000 </r>
       <r>   24.6241    0.0000 </r>
       <r>   24.6542    0.0000 </r>
       <r>   24.7767    0.0000 </r>
      </set>
      <set comment="kpoint 35">
       <r>   -2.7483    1.0000 </r>
       <r>   16.3562    0.0000 </r>
       <r>   16.3562    0.0000 </r>
       <r>   17.9230    0.0000 </r>
       <r>   18.0230    0.0000 </r>
       <r>   20.8843    0.0000 </r>
       <r>   28.6975    0.0000 </r>
       <r>   28.6975    0.0000 </r>
      </set>
      <set comment="kpoint 36">
       <r>   -2.1077    1.0000 </r>
       <r>   14.2700    0.0000 </r>
       <r>   15.7952    0.0000 </r>
       <r>   16.8877    0.0000 </r>
       <r>   18.1795    0.0000 </r>
       <r>   20.4443    0.0000 </r>
       <r>   29.0238    0.0000 </r>
       <r>   29.4340    0.0000 </r>
      </set>
      <set comment="kpoint 37">
       <r>   -1.2148    1.0000 </r>
       <r>   11.6818    0.0000 </r>
       <r>   15.4556    0.0000 </r>
       <r>   15.6705    0.0000 </r>
       <r>   18.0828    0.0000 </r>
       <r>   21.7006    0.0000 </r>
       <r>   28.2287    0.0000 </r>
       <r>   29.5948    0.0000 </r>
      </set>
      <set comment="kpoint 38">
       <r>   -0.0735    1.0000 </r>
       <r>    9.2078    1.0000 </r>
       <r>   14.5088    0.0000 </r>
       <r>   15.3385    0.0000 </r>
       <r>   17.9649    0.0000 </r>
       <r>   23.5911    0.0000 </r>
       <r>   27.2701    0.0000 </r>
       <r>   29.5180    0.0000 </r>
      </set>
      <set comment="kpoint 39">
       <r>    1.3090    1.0000 </r>
       <r>    6.9201    1.0000 </r>
       <r>   13.5065    0.0000 </r>
       <r>   15.4435    0.0000 </r>
       <r>   18.0743    0.0000 </r>
       <r>   25.5924    0.0000 </r>
       <r>   26.3967    0.0000 </r>
       <r>   29.3974    0.0000 </r>
      </set>
      <set comment="kpoint 40">
       <r>    2.9047    1.0000 </r>
       <r>    4.8675    1.0000 </r>
       <r>   12.7079    0.0000 </r>
       <r>   15.7685    0.0000 </r>
       <r>   18.4309    0.0000 </r>
       <r>   25.6902    0.0000 </r>
       <r>   27.1124    0.0000 </r>
       <r>   29.7067    0.0000 </r>
      </set>
      <set comment="kpoint 41">
       <r>    2.9050    1.0000 </r>
       <r>    4.8647    1.0000 </r>
       <r>   12.1328    0.0000 </r>
       <r>   16.3094    0.0000 </r>
       <r>   19.0306    0.0000 </r>
       <r>   25.1857    0.0000 </r>
       <r>   27.4235    0.0000 </r>
       <r>   30.8899    0.0000 </r>
      </set>
      <set comment="kpoint 42">
       <r>    1.3085    1.0000 </r>
       <r>    6.9106    1.0000 </r>
       <r>   11.7936    0.0000 </r>
       <r>   17.0579    0.0000 </r>
       <r>   19.8635    0.0000 </r>
       <r>   24.9016    0.0000 </r>
       <r>   27.1859    0.0000 </r>
       <r>   29.3300    0.0000 </r>
      </set>
      <set comment="kpoint 43">
       <r>   -0.0744    1.0000 </r>
       <r>    9.1715    1.0000 </r>
       <r>   11.7114    0.0000 </r>
       <r>   17.9967    0.0000 </r>
       <r>   20.9120    0.0000 </r>
       <r>   24.8504    0.0000 </r>
       <r>   26.7791    0.0000 </r>
       <r>   27.0747    0.0000 </r>
      </set>
      <set comment="kpoint 44">
       <r>   -1.2157    1.0000 </r>
       <r>   11.3251    0.0000 </r>
       <r>   12.1662    0.0000 </r>
       <r>   19.0802    0.0000 </r>
       <r>   22.1395    0.0000 </r>
       <r>   25.0241    0.0000 </r>
       <r>   25.0568    0.0000 </r>
       <r>   26.1091    0.0000 </r>
      </set>
      <set comment="kpoint 45">
       <r>   -1.5540    1.0000 </r>
       <r>   15.1605    0.0000 </r>
       <r>   15.1605    0.0000 </r>
       <r>   15.3143    0.0000 </r>
       <r>   16.6076    0.0000 </r>
       <r>   19.0299    0.0000 </r>
       <r>   31.0042    0.0000 </r>
       <r>   31.0052    0.0000 </r>
      </set>
      <set comment="kpoint 46">
       <r>   -0.7479    1.0000 </r>
       <r>   13.1318    0.0000 </r>
       <r>   13.9511    0.0000 </r>
       <r>   14.7472    0.0000 </r>
       <r>   16.9177    0.0000 </r>
       <r>   19.2133    0.0000 </r>
       <r>   30.5061    0.0000 </r>
       <r>   31.6788    0.0000 </r>
      </set>
      <set comment="kpoint 47">
       <r>    0.3070    1.0000 </r>
       <r>   10.7093    0.0000 </r>
       <r>   12.6102    0.0000 </r>
       <r>   14.5574    0.0000 </r>
       <r>   17.0102    0.0000 </r>
       <r>   20.8192    0.0000 </r>
       <r>   29.6307    0.0000 </r>
       <r>   31.6960    0.0000 </r>
      </set>
      <set comment="kpoint 48">
       <r>    1.6047    1.0000 </r>
       <r>    8.3921    1.0000 </r>
       <r>   11.4786    0.0000 </r>
       <r>   14.5913    0.0000 </r>
       <r>   17.1142    0.0000 </r>
       <r>   22.9410    0.0000 </r>
       <r>   28.7624    0.0000 </r>
       <r>   31.3351    0.0000 </r>
      </set>
      <set comment="kpoint 49">
       <r>    3.1309    1.0000 </r>
       <r>    6.2687    1.0000 </r>
       <r>   10.5739    0.0000 </r>
       <r>   14.8481    0.0000 </r>
       <r>   17.4215    0.0000 </r>
       <r>   25.2433    0.0000 </r>
       <r>   28.0182    0.0000 </r>
       <r>   30.7915    0.0000 </r>
      </set>
      <set comment="kpoint 50">
       <r>    4.2028    1.0000 </r>
       <r>    5.0398    1.0000 </r>
       <r>    9.9087    1.0000 </r>
       <r>   15.3255    0.0000 </r>
       <r>   17.9613    0.0000 </r>
       <r>   27.4486    0.0000 </r>
       <r>   27.4858    0.0000 </r>
       <r>   30.2025    0.0000 </r>
      </set>
      <set comment="kpoint 51">
       <r>    2.5983    1.0000 </r>
       <r>    6.9130    1.0000 </r>
       <r>    9.5078    1.0000 </r>
       <r>   16.0189    0.0000 </r>
       <r>   18.7339    0.0000 </r>
       <r>   27.0705    0.0000 </r>
       <r>   28.7980    0.0000 </r>
       <r>   29.4000    0.0000 </r>
      </set>
      <set comment="kpoint 52">
       <r>    1.1436    1.0000 </r>
       <r>    8.7544    1.0000 </r>
       <r>    9.6781    1.0000 </r>
       <r>   16.9183    0.0000 </r>
       <r>   19.7273    0.0000 </r>
       <r>   26.7067    0.0000 </r>
       <r>   27.2788    0.0000 </r>
       <r>   28.0950    0.0000 </r>
      </set>
      <set comment="kpoint 53">
       <r>   -0.0292    1.0000 </r>
       <r>   12.2304    0.0000 </r>
       <r>   14.2597    0.0000 </r>
       <r>   14.2597    0.0000 </r>
       <r>   15.6018    0.0000 </r>
       <r>   17.9548    0.0000 </r>
       <r>   32.4310    0.0000 </r>
       <r>   33.0984    0.0000 </r>
      </set>
      <set comment="kpoint 54">
       <r>    0.9378    1.0000 </r>
       <r>   10.7774    0.0000 </r>
       <r>   12.4557    0.0000 </r>
       <r>   13.9959    0.0000 </r>
       <r>   16.0759    0.0000 </r>
       <r>   18.4122    0.0000 </r>
       <r>   31.9878    0.0000 </r>
       <r>   33.6264    0.0000 </r>
      </set>
      <set comment="kpoint 55">
       <r>    2.1475    1.0000 </r>
       <r>    9.4723    1.0000 </r>
       <r>   10.2327    0.0004 </r>
       <r>   13.9566    0.0000 </r>
       <r>   16.3344    0.0000 </r>
       <r>   20.2287    0.0000 </r>
       <r>   31.1998    0.0000 </r>
       <r>   33.4098    0.0000 </r>
      </set>
      <set comment="kpoint 56">
       <r>    3.5881    1.0000 </r>
       <r>    7.8216    1.0000 </r>
       <r>    8.7195    1.0000 </r>
       <r>   14.1415    0.0000 </r>
       <r>   16.6155    0.0000 </r>
       <r>   22.5334    0.0000 </r>
       <r>   30.4496    0.0000 </r>
       <r>   32.7437    0.0000 </r>
      </set>
      <set comment="kpoint 57">
       <r>    5.1794    1.0000 </r>
       <r>    5.9611    1.0000 </r>
       <r>    7.9317    1.0000 </r>
       <r>   14.5493    0.0000 </r>
       <r>   17.0962    0.0000 </r>
       <r>   25.0291    0.0000 </r>
       <r>   29.8032    0.0000 </r>
       <r>   31.7867    0.0000 </r>
      </set>
      <set comment="kpoint 58">
       <r>    4.1170    1.0000 </r>
       <r>    6.8159    1.0000 </r>
       <r>    7.7684    1.0000 </r>
       <r>   15.1772    0.0000 </r>
       <r>   17.8036    0.0000 </r>
       <r>   27.5294    0.0000 </r>
       <r>   29.0351    0.0000 </r>
       <r>   30.0660    0.0000 </r>
      </set>
      <set comment="kpoint 59">
       <r>    1.8153    1.0000 </r>
       <r>    9.2534    1.0000 </r>
       <r>   13.6579    0.0000 </r>
       <r>   13.6579    0.0000 </r>
       <r>   14.9250    0.0000 </r>
       <r>   17.2904    0.0000 </r>
       <r>   33.6659    0.0000 </r>
       <r>   34.8933    0.0000 </r>
      </set>
      <set comment="kpoint 60">
       <r>    2.9324    1.0000 </r>
       <r>    7.9332    1.0000 </r>
       <r>   11.9663    0.0000 </r>
       <r>   13.5444    0.0000 </r>
       <r>   15.5749    0.0000 </r>
       <r>   17.9397    0.0000 </r>
       <r>   33.4294    0.0000 </r>
       <r>   35.1650    0.0000 </r>
      </set>
      <set comment="kpoint 61">
       <r>    4.2664    1.0000 </r>
       <r>    6.8584    1.0000 </r>
       <r>    9.8243    1.0000 </r>
       <r>   13.6558    0.0000 </r>
       <r>   15.9994    0.0000 </r>
       <r>   19.9313    0.0000 </r>
       <r>   32.7464    0.0000 </r>
       <r>   34.5557    0.0000 </r>
      </set>
      <set comment="kpoint 62">
       <r>    5.5210    1.0000 </r>
       <r>    6.2867    1.0000 </r>
       <r>    7.8678    1.0000 </r>
       <r>   13.9913    0.0000 </r>
       <r>   16.4498    0.0000 </r>
       <r>   22.3952    0.0000 </r>
       <r>   31.7718    0.0000 </r>
       <r>   33.1683    0.0000 </r>
      </set>
      <set comment="kpoint 63">
       <r>    3.9400    1.0000 </r>
       <r>    6.5466    1.0000 </r>
       <r>   13.3566    0.0000 </r>
       <r>   13.3566    0.0000 </r>
       <r>   14.5850    0.0000 </r>
       <r>   16.9635    0.0000 </r>
       <r>   34.5523    0.0000 </r>
       <r>   36.1047    0.0000 </r>
      </set>
      <set comment="kpoint 64">
       <r>    4.8731    1.0000 </r>
       <r>    5.7017    1.0000 </r>
       <r>   11.8061    0.0000 </r>
       <r>   13.3938    0.0000 </r>
       <r>   15.4080    0.0000 </r>
       <r>   17.7826    0.0000 </r>
       <r>   34.2298    0.0000 </r>
       <r>   35.8301    0.0000 </r>
      </set>
      <set comment="kpoint 65">
       <r>   -3.4339    1.0000 </r>
       <r>   16.3282    0.0000 </r>
       <r>   16.7357    0.0000 </r>
       <r>   20.6108    0.0000 </r>
       <r>   21.2544    0.0000 </r>
       <r>   24.2116    0.0000 </r>
       <r>   25.5519    0.0000 </r>
       <r>   25.9124    0.0000 </r>
      </set>
      <set comment="kpoint 66">
       <r>   -2.7914    1.0000 </r>
       <r>   13.7431    0.0000 </r>
       <r>   16.0072    0.0000 </r>
       <r>   19.9695    0.0000 </r>
       <r>   21.6847    0.0000 </r>
       <r>   23.7533    0.0000 </r>
       <r>   25.7665    0.0000 </r>
       <r>   26.0005    0.0000 </r>
      </set>
      <set comment="kpoint 67">
       <r>   -1.8956    1.0000 </r>
       <r>   11.0815    0.0000 </r>
       <r>   15.6509    0.0000 </r>
       <r>   19.1041    0.0000 </r>
       <r>   21.2505    0.0000 </r>
       <r>   24.3136    0.0000 </r>
       <r>   25.2376    0.0000 </r>
       <r>   26.3895    0.0000 </r>
      </set>
      <set comment="kpoint 68">
       <r>   -0.7506    1.0000 </r>
       <r>    8.5789    1.0000 </r>
       <r>   15.5203    0.0000 </r>
       <r>   18.1742    0.0000 </r>
       <r>   20.9218    0.0000 </r>
       <r>   23.5488    0.0000 </r>
       <r>   25.4946    0.0000 </r>
       <r>   27.7710    0.0000 </r>
      </set>
      <set comment="kpoint 69">
       <r>    0.6364    1.0000 </r>
       <r>    6.2761    1.0000 </r>
       <r>   15.6025    0.0000 </r>
       <r>   17.3168    0.0000 </r>
       <r>   20.8799    0.0000 </r>
       <r>   22.6785    0.0000 </r>
       <r>   25.6412    0.0000 </r>
       <r>   29.1953    0.0000 </r>
      </set>
      <set comment="kpoint 70">
       <r>    2.2356    1.0000 </r>
       <r>    4.2163    1.0000 </r>
       <r>   15.8423    0.0000 </r>
       <r>   16.6728    0.0000 </r>
       <r>   21.0184    0.0000 </r>
       <r>   22.0753    0.0000 </r>
       <r>   25.7296    0.0000 </r>
       <r>   28.9417    0.0000 </r>
      </set>
      <set comment="kpoint 71">
       <r>   -2.5774    1.0000 </r>
       <r>   14.7817    0.0000 </r>
       <r>   15.2705    0.0000 </r>
       <r>   18.6285    0.0000 </r>
       <r>   19.7857    0.0000 </r>
       <r>   21.6555    0.0000 </r>
       <r>   27.4846    0.0000 </r>
       <r>   28.1337    0.0000 </r>
      </set>
      <set comment="kpoint 72">
       <r>   -1.7674    1.0000 </r>
       <r>   12.3340    0.0000 </r>
       <r>   14.6508    0.0000 </r>
       <r>   17.4693    0.0000 </r>
       <r>   20.0011    0.0000 </r>
       <r>   22.3348    0.0000 </r>
       <r>   26.7648    0.0000 </r>
       <r>   28.5912    0.0000 </r>
      </set>
      <set comment="kpoint 73">
       <r>   -0.7072    1.0000 </r>
       <r>    9.8046    1.0000 </r>
       <r>   14.4256    0.0000 </r>
       <r>   16.2893    0.0000 </r>
       <r>   19.8555    0.0000 </r>
       <r>   23.9625    0.0000 </r>
       <r>   25.8571    0.0000 </r>
       <r>   28.7293    0.0000 </r>
      </set>
      <set comment="kpoint 74">
       <r>    0.5976    1.0000 </r>
       <r>    7.4459    1.0000 </r>
       <r>   14.3799    0.0000 </r>
       <r>   15.3081    0.0000 </r>
       <r>   19.8765    0.0000 </r>
       <r>   24.5129    0.0000 </r>
       <r>   26.2181    0.0000 </r>
       <r>   28.9375    0.0000 </r>
      </set>
      <set comment="kpoint 75">
       <r>    2.1324    1.0000 </r>
       <r>    5.3024    1.0000 </r>
       <r>   14.1302    0.0000 </r>
       <r>   14.9556    0.0000 </r>
       <r>   20.1219    0.0000 </r>
       <r>   23.8420    0.0000 </r>
       <r>   27.3613    0.0000 </r>
       <r>   29.7308    0.0000 </r>
      </set>
      <set comment="kpoint 76">
       <r>    3.1984    1.0000 </r>
       <r>    4.0831    1.0000 </r>
       <r>   13.5843    0.0000 </r>
       <r>   15.3421    0.0000 </r>
       <r>   20.5851    0.0000 </r>
       <r>   23.2856    0.0000 </r>
       <r>   27.5606    0.0000 </r>
       <r>   30.8679    0.0000 </r>
      </set>
      <set comment="kpoint 77">
       <r>    1.5973    1.0000 </r>
       <r>    5.9879    1.0000 </r>
       <r>   13.1884    0.0000 </r>
       <r>   16.0256    0.0000 </r>
       <r>   21.2326    0.0000 </r>
       <r>   22.9648    0.0000 </r>
       <r>   27.3077    0.0000 </r>
       <r>   29.6882    0.0000 </r>
      </set>
      <set comment="kpoint 78">
       <r>    0.1357    1.0000 </r>
       <r>    8.2041    1.0000 </r>
       <r>   13.0134    0.0000 </r>
       <r>   16.9298    0.0000 </r>
       <r>   21.9457    0.0000 </r>
       <r>   22.9853    0.0000 </r>
       <r>   26.5182    0.0000 </r>
       <r>   28.1752    0.0000 </r>
      </set>
      <set comment="kpoint 79">
       <r>   -1.0884    1.0000 </r>
       <r>   10.6088    0.0000 </r>
       <r>   13.0842    0.0000 </r>
       <r>   18.0158    0.0000 </r>
       <r>   22.4474    0.0000 </r>
       <r>   23.4504    0.0000 </r>
       <r>   25.0611    0.0000 </r>
       <r>   27.5319    0.0000 </r>
      </set>
      <set comment="kpoint 80">
       <r>   -2.0657    1.0000 </r>
       <r>   12.9164    0.0000 </r>
       <r>   13.6515    0.0000 </r>
       <r>   19.1949    0.0000 </r>
       <r>   22.4906    0.0000 </r>
       <r>   23.2297    0.0000 </r>
       <r>   25.0188    0.0000 </r>
       <r>   26.9450    0.0000 </r>
      </set>
      <set comment="kpoint 81">
       <r>   -1.3843    1.0000 </r>
       <r>   13.5277    0.0000 </r>
       <r>   14.0229    0.0000 </r>
       <r>   15.7023    0.0000 </r>
       <r>   18.5422    0.0000 </r>
       <r>   20.1430    0.0000 </r>
       <r>   28.8590    0.0000 </r>
       <r>   30.6589    0.0000 </r>
      </set>
      <set comment="kpoint 82">
       <r>   -0.4102    1.0000 </r>
       <r>   11.2190    0.0000 </r>
       <r>   13.4833    0.0000 </r>
       <r>   14.4314    0.0000 </r>
       <r>   18.8579    0.0000 </r>
       <r>   21.3220    0.0000 </r>
       <r>   28.0031    0.0000 </r>
       <r>   31.1002    0.0000 </r>
      </set>
      <set comment="kpoint 83">
       <r>    0.8098    1.0000 </r>
       <r>    8.8356    1.0000 </r>
       <r>   12.9306    0.0000 </r>
       <r>   13.7459    0.0000 </r>
       <r>   18.9135    0.0000 </r>
       <r>   23.2863    0.0000 </r>
       <r>   27.0998    0.0000 </r>
       <r>   31.0249    0.0000 </r>
      </set>
      <set comment="kpoint 84">
       <r>    2.2661    1.0000 </r>
       <r>    6.6325    1.0000 </r>
       <r>   12.0631    0.0000 </r>
       <r>   13.8277    0.0000 </r>
       <r>   19.1300    0.0000 </r>
       <r>   25.2386    0.0000 </r>
       <r>   26.5367    0.0000 </r>
       <r>   30.6814    0.0000 </r>
      </set>
      <set comment="kpoint 85">
       <r>    3.8678    1.0000 </r>
       <r>    4.7275    1.0000 </r>
       <r>   11.3430    0.0000 </r>
       <r>   14.2236    0.0000 </r>
       <r>   19.5616    0.0000 </r>
       <r>   25.3725    0.0000 </r>
       <r>   27.9137    0.0000 </r>
       <r>   30.0764    0.0000 </r>
      </set>
      <set comment="kpoint 86">
       <r>    2.7995    1.0000 </r>
       <r>    5.9401    1.0000 </r>
       <r>   10.8482    0.0000 </r>
       <r>   14.8616    0.0000 </r>
       <r>   20.2106    0.0000 </r>
       <r>   24.9796    0.0000 </r>
       <r>   28.6549    0.0000 </r>
       <r>   29.5369    0.0000 </r>
      </set>
      <set comment="kpoint 87">
       <r>    1.2688    1.0000 </r>
       <r>    8.0433    1.0000 </r>
       <r>   10.6106    0.0000 </r>
       <r>   15.7242    0.0000 </r>
       <r>   21.0611    0.0000 </r>
       <r>   24.7355    0.0000 </r>
       <r>   26.7946    0.0000 </r>
       <r>   29.4897    0.0000 </r>
      </set>
      <set comment="kpoint 88">
       <r>   -0.0318    1.0000 </r>
       <r>   10.0424    0.9772 </r>
       <r>   10.9267    0.0000 </r>
       <r>   16.7922    0.0000 </r>
       <r>   22.0614    0.0000 </r>
       <r>   24.3742    0.0000 </r>
       <r>   25.1051    0.0000 </r>
       <r>   28.7454    0.0000 </r>
      </set>
      <set comment="kpoint 89">
       <r>    0.1390    1.0000 </r>
       <r>   12.2799    0.0000 </r>
       <r>   12.5805    0.0000 </r>
       <r>   13.3791    0.0000 </r>
       <r>   17.5893    0.0000 </r>
       <r>   19.1811    0.0000 </r>
       <r>   30.2903    0.0000 </r>
       <r>   32.9403    0.0000 </r>
      </set>
      <set comment="kpoint 90">
       <r>    1.2720    1.0000 </r>
       <r>   10.3600    0.0000 </r>
       <r>   11.1846    0.0000 </r>
       <r>   12.9280    0.0000 </r>
       <r>   18.0617    0.0000 </r>
       <r>   20.5985    0.0000 </r>
       <r>   29.4804    0.0000 </r>
       <r>   33.1729    0.0000 </r>
      </set>
      <set comment="kpoint 91">
       <r>    2.6435    1.0000 </r>
       <r>    8.1680    1.0000 </r>
       <r>   10.1049    0.5912 </r>
       <r>   12.9986    0.0000 </r>
       <r>   18.2885    0.0000 </r>
       <r>   22.7714    0.0000 </r>
       <r>   28.6718    0.0000 </r>
       <r>   32.5916    0.0000 </r>
      </set>
      <set comment="kpoint 92">
       <r>    4.2266    1.0000 </r>
       <r>    6.1464    1.0000 </r>
       <r>    9.2732    1.0000 </r>
       <r>   13.3323    0.0000 </r>
       <r>   18.6739    0.0000 </r>
       <r>   25.1320    0.0000 </r>
       <r>   28.0259    0.0000 </r>
       <r>   31.3010    0.0000 </r>
      </set>
      <set comment="kpoint 93">
       <r>    4.2306    1.0000 </r>
       <r>    6.1144    1.0000 </r>
       <r>    8.7079    1.0000 </r>
       <r>   13.9047    0.0000 </r>
       <r>   19.2702    0.0000 </r>
       <r>   26.9678    0.0000 </r>
       <r>   28.0415    0.0000 </r>
       <r>   29.3605    0.0000 </r>
      </set>
      <set comment="kpoint 94">
       <r>    2.6418    1.0000 </r>
       <r>    7.7860    1.0000 </r>
       <r>    8.7191    1.0000 </r>
       <r>   14.7060    0.0000 </r>
       <r>   20.0764    0.0000 </r>
       <r>   26.8448    0.0000 </r>
       <r>   27.0226    0.0000 </r>
       <r>   30.0622    0.0000 </r>
      </set>
      <set comment="kpoint 95">
       <r>    1.9816    1.0000 </r>
       <r>    9.3995    1.0000 </r>
       <r>   11.9465    0.0000 </r>
       <r>   12.6517    0.0000 </r>
       <r>   16.9479    0.0000 </r>
       <r>   18.5615    0.0000 </r>
       <r>   31.8417    0.0000 </r>
       <r>   34.8582    0.0000 </r>
      </set>
      <set comment="kpoint 96">
       <r>    3.2618    1.0000 </r>
       <r>    8.2285    1.0000 </r>
       <r>   10.0066    0.9987 </r>
       <r>   12.4272    0.0000 </r>
       <r>   17.5836    0.0000 </r>
       <r>   20.1597    0.0000 </r>
       <r>   31.1411    0.0000 </r>
       <r>   34.0574    0.0000 </r>
      </set>
      <set comment="kpoint 97">
       <r>    4.7515    1.0000 </r>
       <r>    7.2278    1.0000 </r>
       <r>    8.0418    1.0000 </r>
       <r>   12.6750    0.0000 </r>
       <r>   17.9744    0.0000 </r>
       <r>   22.5029    0.0000 </r>
       <r>   30.4452    0.0000 </r>
       <r>   32.1788    0.0000 </r>
      </set>
      <set comment="kpoint 98">
       <r>    5.8345    1.0000 </r>
       <r>    6.1687    1.0000 </r>
       <r>    7.1936    1.0000 </r>
       <r>   13.1728    0.0000 </r>
       <r>   18.5205    0.0000 </r>
       <r>   25.0442    0.0000 </r>
       <r>   29.8187    0.0000 </r>
       <r>   29.8849    0.0000 </r>
      </set>
      <set comment="kpoint 99">
       <r>    4.1036    1.0000 </r>
       <r>    6.7054    1.0000 </r>
       <r>   11.6288    0.0000 </r>
       <r>   12.3279    0.0000 </r>
       <r>   16.6258    0.0000 </r>
       <r>   18.2530    0.0000 </r>
       <r>   33.3529    0.0000 </r>
       <r>   34.8646    0.0000 </r>
      </set>
      <set comment="kpoint 100">
       <r>    5.1971    1.0000 </r>
       <r>    6.0192    1.0000 </r>
       <r>    9.8308    1.0000 </r>
       <r>   12.2662    0.0000 </r>
       <r>   17.4240    0.0000 </r>
       <r>   20.0124    0.0000 </r>
       <r>   32.6368    0.0000 </r>
       <r>   33.0774    0.0000 </r>
      </set>
      <set comment="kpoint 101">
       <r>   -0.8760    1.0000 </r>
       <r>   11.6430    0.0000 </r>
       <r>   12.4204    0.0000 </r>
       <r>   16.1658    0.0000 </r>
       <r>   21.3226    0.0000 </r>
       <r>   22.2460    0.0000 </r>
       <r>   25.8572    0.0000 </r>
       <r>   29.7917    0.0000 </r>
      </set>
      <set comment="kpoint 102">
       <r>    0.2634    1.0000 </r>
       <r>    9.4867    1.0000 </r>
       <r>   11.9834    0.0000 </r>
       <r>   14.9468    0.0000 </r>
       <r>   21.5909    0.0000 </r>
       <r>   23.5396    0.0000 </r>
       <r>   25.1313    0.0000 </r>
       <r>   30.3451    0.0000 </r>
      </set>
      <set comment="kpoint 103">
       <r>    1.6438    1.0000 </r>
       <r>    7.2317    1.0000 </r>
       <r>   12.0485    0.0000 </r>
       <r>   13.9373    0.0000 </r>
       <r>   21.6743    0.0000 </r>
       <r>   23.5931    0.0000 </r>
       <r>   26.3261    0.0000 </r>
       <r>   30.4211    0.0000 </r>
      </set>
      <set comment="kpoint 104">
       <r>    3.2380    1.0000 </r>
       <r>    5.1892    1.0000 </r>
       <r>   12.2967    0.0000 </r>
       <r>   13.2200    0.0000 </r>
       <r>   21.8323    0.0000 </r>
       <r>   23.1050    0.0000 </r>
       <r>   28.3384    0.0000 </r>
       <r>   29.9075    0.0000 </r>
      </set>
      <set comment="kpoint 105">
       <r>    0.6428    1.0000 </r>
       <r>   10.6832    0.0000 </r>
       <r>   11.4163    0.0000 </r>
       <r>   13.0750    0.0000 </r>
       <r>   20.4048    0.0000 </r>
       <r>   21.4766    0.0000 </r>
       <r>   27.1275    0.0000 </r>
       <r>   32.4714    0.0000 </r>
      </set>
      <set comment="kpoint 106">
       <r>    1.9382    1.0000 </r>
       <r>    8.6746    1.0000 </r>
       <r>   11.0645    0.0000 </r>
       <r>   12.0168    0.0000 </r>
       <r>   20.8841    0.0000 </r>
       <r>   23.1574    0.0000 </r>
       <r>   26.2909    0.0000 </r>
       <r>   32.4995    0.0000 </r>
      </set>
      <set comment="kpoint 107">
       <r>    3.4623    1.0000 </r>
       <r>    6.5816    1.0000 </r>
       <r>   10.7461    0.0000 </r>
       <r>   11.6718    0.0000 </r>
       <r>   21.1862    0.0000 </r>
       <r>   24.7402    0.0000 </r>
       <r>   26.2330    0.0000 </r>
       <r>   31.0034    0.0000 </r>
      </set>
      <set comment="kpoint 108">
       <r>    4.5344    1.0000 </r>
       <r>    5.3596    1.0000 </r>
       <r>   10.1795    0.0300 </r>
       <r>   12.0741    0.0000 </r>
       <r>   21.6510    0.0000 </r>
       <r>   24.5664    0.0000 </r>
       <r>   27.9119    0.0000 </r>
       <r>   29.1480    0.0000 </r>
      </set>
      <set comment="kpoint 109">
       <r>    2.9307    1.0000 </r>
       <r>    7.2336    1.0000 </r>
       <r>    9.7996    1.0000 </r>
       <r>   12.7937    0.0000 </r>
       <r>   22.2683    0.0000 </r>
       <r>   24.2121    0.0000 </r>
       <r>   26.3948    0.0000 </r>
       <r>   30.5853    0.0000 </r>
      </set>
      <set comment="kpoint 110">
       <r>    1.4791    1.0000 </r>
       <r>    9.0770    1.0000 </r>
       <r>    9.9653    1.0000 </r>
       <r>   13.7595    0.0000 </r>
       <r>   22.8966    0.0000 </r>
       <r>   23.5160    0.0000 </r>
       <r>   24.9124    0.0000 </r>
       <r>   31.7722    0.0000 </r>
      </set>
      <set comment="kpoint 111">
       <r>    2.4793    1.0000 </r>
       <r>    9.7670    1.0000 </r>
       <r>   10.0417    0.9782 </r>
       <r>   11.1064    0.0000 </r>
       <r>   19.7819    0.0000 </r>
       <r>   20.9391    0.0000 </r>
       <r>   28.6999    0.0000 </r>
       <r>   33.6714    0.0000 </r>
      </set>
      <set comment="kpoint 112">
       <r>    3.9172    1.0000 </r>
       <r>    8.1238    1.0000 </r>
       <r>    8.9632    1.0000 </r>
       <r>   10.8615    0.0000 </r>
       <r>   20.4417    0.0000 </r>
       <r>   22.8174    0.0000 </r>
       <r>   27.9328    0.0000 </r>
       <r>   31.7076    0.0000 </r>
      </set>
      <set comment="kpoint 113">
       <r>    5.5086    1.0000 </r>
       <r>    6.2744    1.0000 </r>
       <r>    8.2253    1.0000 </r>
       <r>   11.2337    0.0000 </r>
       <r>   20.9131    0.0000 </r>
       <r>   25.1317    0.0000 </r>
       <r>   27.3307    0.0000 </r>
       <r>   29.4075    0.0000 </r>
      </set>
      <set comment="kpoint 114">
       <r>    4.4451    1.0000 </r>
       <r>    7.1396    1.0000 </r>
       <r>    8.0668    1.0000 </r>
       <r>   11.8894    0.0000 </r>
       <r>   21.5404    0.0000 </r>
       <r>   26.2969    0.0000 </r>
       <r>   26.4817    0.0000 </r>
       <r>   28.7221    0.0000 </r>
      </set>
      <set comment="kpoint 115">
       <r>    4.5927    1.0000 </r>
       <r>    7.1719    1.0000 </r>
       <r>    9.7205    1.0000 </r>
       <r>   10.6843    0.0000 </r>
       <r>   19.4680    0.0000 </r>
       <r>   20.6635    0.0000 </r>
       <r>   30.4778    0.0000 </r>
       <r>   32.2954    0.0000 </r>
      </set>
      <set comment="kpoint 116">
       <r>    5.8449    1.0000 </r>
       <r>    6.6099    1.0000 </r>
       <r>    8.1243    1.0000 </r>
       <r>   10.6725    0.0000 </r>
       <r>   20.2921    0.0000 </r>
       <r>   22.6948    0.0000 </r>
       <r>   29.5706    0.0000 </r>
       <r>   30.0949    0.0000 </r>
      </set>
      <set comment="kpoint 117">
       <r>    3.3043    1.0000 </r>
       <r>    8.4322    1.0000 </r>
       <r>    9.2465    1.0000 </r>
       <r>   10.8874    0.0000 </r>
       <r>   22.9193    0.0000 </r>
       <r>   23.2993    0.0000 </r>
       <r>   25.6171    0.0000 </r>
       <r>   31.2113    0.0000 </r>
      </set>
      <set comment="kpoint 118">
       <r>    4.8832    1.0000 </r>
       <r>    6.7496    1.0000 </r>
       <r>    9.1737    1.0000 </r>
       <r>   10.1406    0.2174 </r>
       <r>   23.2617    0.0000 </r>
       <r>   24.3608    0.0000 </r>
       <r>   26.0823    0.0000 </r>
       <r>   28.9708    0.0000 </r>
      </set>
      <set comment="kpoint 119">
       <r>    5.4000    1.0000 </r>
       <r>    7.8536    1.0000 </r>
       <r>    8.1095    1.0000 </r>
       <r>    9.2834    1.0000 </r>
       <r>   22.6164    0.0000 </r>
       <r>   23.2608    0.0000 </r>
       <r>   27.1692    0.0000 </r>
       <r>   29.3755    0.0000 </r>
      </set>
      <set comment="kpoint 120">
       <r>    6.4739    1.0000 </r>
       <r>    6.8162    1.0000 </r>
       <r>    7.6889    1.0000 </r>
       <r>    9.3573    1.0000 </r>
       <r>   23.3271    0.0000 </r>
       <r>   25.1641    0.0000 </r>
       <r>   26.0129    0.0000 </r>
       <r>   27.7972    0.0000 </r>
      </set>
     </set>
    </set>
   </array>
  </eigenvalues>
  <separator name="orbital magnetization" >
   <v name="MAGDIPOLOUT">      0.00000000      0.00000000      0.00000000</v>
  </separator>
  <dos>
   <i name="efermi">     10.11302938 </i>
   <total>
    <array>
     <dimension dim="1">gridpoints</dimension>
     <dimension dim="2">spin</dimension>
     <field>energy</field>
     <field>total</field>
     <field>integrated</field>
     <set>
      <set comment="spin 1">
       <r>    -6.3138     0.0000     0.0000 </r>
       <r>    -6.1657     0.0000     0.0000 </r>
       <r>    -6.0176     0.0000     0.0000 </r>
       <r>    -5.8694     0.0000     0.0000 </r>
       <r>    -5.7213     0.0000     0.0000 </r>
       <r>    -5.5732     0.0000     0.0000 </r>
       <r>    -5.4251     0.0000     0.0000 </r>
       <r>    -5.2769     0.0000     0.0000 </r>
       <r>    -5.1288     0.0000     0.0000 </r>
       <r>    -4.9807     0.0000     0.0000 </r>
       <r>    -4.8325     0.0000     0.0000 </r>
       <r>    -4.6844     0.0000     0.0000 </r>
       <r>    -4.5363     0.0000     0.0000 </r>
       <r>    -4.3882     0.0000     0.0000 </r>
       <r>    -4.2400     0.0043     0.0006 </r>
       <r>    -4.0919     0.0503     0.0081 </r>
       <r>    -3.9438     0.0325     0.0129 </r>
       <r>    -3.7957     0.1035     0.0282 </r>
       <r>    -3.6475     0.0483     0.0354 </r>
       <r>    -3.4994     0.0494     0.0427 </r>
       <r>    -3.3513     0.1634     0.0669 </r>
       <r>    -3.2031     0.0951     0.0810 </r>
       <r>    -3.0550     0.1277     0.0999 </r>
       <r>    -2.9069     0.0326     0.1047 </r>
       <r>    -2.7588     0.2215     0.1375 </r>
       <r>    -2.6106     0.1243     0.1560 </r>
       <r>    -2.4625     0.1194     0.1736 </r>
       <r>    -2.3144     0.1520     0.1962 </r>
       <r>    -2.1662     0.0411     0.2022 </r>
       <r>    -2.0181     0.2694     0.2421 </r>
       <r>    -1.8700     0.1571     0.2654 </r>
       <r>    -1.7219     0.3045     0.3105 </r>
       <r>    -1.5737     0.0349     0.3157 </r>
       <r>    -1.4256     0.0919     0.3293 </r>
       <r>    -1.2775     0.2185     0.3617 </r>
       <r>    -1.1293     0.1665     0.3863 </r>
       <r>    -0.9812     0.2890     0.4292 </r>
       <r>    -0.8331     0.0911     0.4426 </r>
       <r>    -0.6850     0.4276     0.5060 </r>
       <r>    -0.5368     0.1125     0.5227 </r>
       <r>    -0.3887     0.1839     0.5499 </r>
       <r>    -0.2406     0.0653     0.5596 </r>
       <r>    -0.0924     0.1777     0.5859 </r>
       <r>     0.0557     0.3155     0.6326 </r>
       <r>     0.2038     0.2917     0.6758 </r>
       <r>     0.3519     0.3965     0.7346 </r>
       <r>     0.5001     0.0141     0.7367 </r>
       <r>     0.6482     0.3518     0.7888 </r>
       <r>     0.7963     0.1952     0.8177 </r>
       <r>     0.9444     0.2473     0.8543 </r>
       <r>     1.0926     0.0727     0.8651 </r>
       <r>     1.2407     0.1529     0.8878 </r>
       <r>     1.3888     0.5636     0.9713 </r>
       <r>     1.5370     0.1969     1.0004 </r>
       <r>     1.6851     0.4496     1.0670 </r>
       <r>     1.8332     0.1246     1.0855 </r>
       <r>     1.9813     0.2710     1.1256 </r>
       <r>     2.1295     0.1893     1.1537 </r>
       <r>     2.2776     0.4586     1.2216 </r>
       <r>     2.4257     0.1007     1.2365 </r>
       <r>     2.5739     0.2085     1.2674 </r>
       <r>     2.7220     0.3602     1.3207 </r>
       <r>     2.8701     0.2891     1.3636 </r>
       <r>     3.0182     0.4779     1.4344 </r>
       <r>     3.1664     0.1227     1.4525 </r>
       <r>     3.3145     0.5943     1.5406 </r>
       <r>     3.4626     0.2252     1.5739 </r>
       <r>     3.6108     0.1870     1.6016 </r>
       <r>     3.7589     0.0723     1.6123 </r>
       <r>     3.9070     0.3156     1.6591 </r>
       <r>     4.0551     0.2245     1.6923 </r>
       <r>     4.2033     0.4958     1.7658 </r>
       <r>     4.3514     0.5566     1.8482 </r>
       <r>     4.4995     0.1220     1.8663 </r>
       <r>     4.6477     0.3030     1.9112 </r>
       <r>     4.7958     0.4207     1.9735 </r>
       <r>     4.9439     0.4560     2.0411 </r>
       <r>     5.0920     0.1815     2.0679 </r>
       <r>     5.2402     0.3681     2.1225 </r>
       <r>     5.3883     0.4865     2.1945 </r>
       <r>     5.5364     0.2936     2.2380 </r>
       <r>     5.6845     0.1389     2.2586 </r>
       <r>     5.8327     0.1438     2.2799 </r>
       <r>     5.9808     0.4663     2.3490 </r>
       <r>     6.1289     0.4514     2.4158 </r>
       <r>     6.2771     0.5568     2.4983 </r>
       <r>     6.4252     0.2606     2.5369 </r>
       <r>     6.5733     0.2079     2.5677 </r>
       <r>     6.7214     0.4899     2.6403 </r>
       <r>     6.8696     0.4989     2.7142 </r>
       <r>     7.0177     0.3070     2.7596 </r>
       <r>     7.1658     0.2397     2.7952 </r>
       <r>     7.3140     0.7153     2.9011 </r>
       <r>     7.4621     0.1355     2.9212 </r>
       <r>     7.6102     0.1437     2.9425 </r>
       <r>     7.7583     0.1514     2.9649 </r>
       <r>     7.9065     0.4340     3.0292 </r>
       <r>     8.0546     0.4883     3.1015 </r>
       <r>     8.2027     0.9186     3.2376 </r>
       <r>     8.3509     0.4667     3.3067 </r>
       <r>     8.4990     0.1789     3.3332 </r>
       <r>     8.6471     0.2416     3.3690 </r>
       <r>     8.7952     0.5891     3.4563 </r>
       <r>     8.9434     0.2330     3.4908 </r>
       <r>     9.0915     0.2038     3.5210 </r>
       <r>     9.2396     0.5693     3.6053 </r>
       <r>     9.3877     0.4621     3.6738 </r>
       <r>     9.5359     0.5083     3.7491 </r>
       <r>     9.6840     0.0926     3.7628 </r>
       <r>     9.8321     0.6092     3.8530 </r>
       <r>     9.9803     0.3845     3.9100 </r>
       <r>    10.1284     0.6779     4.0104 </r>
       <r>    10.2765     0.4423     4.0759 </r>
       <r>    10.4246     0.2848     4.1181 </r>
       <r>    10.5728     0.1109     4.1345 </r>
       <r>    10.7209     0.7403     4.2442 </r>
       <r>    10.8690     0.6241     4.3366 </r>
       <r>    11.0172     0.3158     4.3834 </r>
       <r>    11.1653     0.5229     4.4609 </r>
       <r>    11.3134     0.5628     4.5442 </r>
       <r>    11.4615     0.3029     4.5891 </r>
       <r>    11.6097     0.1301     4.6084 </r>
       <r>    11.7578     0.5738     4.6934 </r>
       <r>    11.9059     0.2721     4.7337 </r>
       <r>    12.0541     0.8631     4.8615 </r>
       <r>    12.2022     0.5416     4.9417 </r>
       <r>    12.3503     0.5978     5.0303 </r>
       <r>    12.4984     0.4662     5.0994 </r>
       <r>    12.6466     0.3159     5.1461 </r>
       <r>    12.7947     0.4692     5.2156 </r>
       <r>    12.9428     0.4793     5.2866 </r>
       <r>    13.0910     0.7605     5.3993 </r>
       <r>    13.2391     0.6056     5.4890 </r>
       <r>    13.3872     0.3706     5.5439 </r>
       <r>    13.5353     0.4826     5.6154 </r>
       <r>    13.6835     0.5160     5.6918 </r>
       <r>    13.8316     0.6163     5.7831 </r>
       <r>    13.9797     0.6536     5.8799 </r>
       <r>    14.1278     0.3759     5.9356 </r>
       <r>    14.2760     0.5837     6.0220 </r>
       <r>    14.4241     0.4817     6.0934 </r>
       <r>    14.5722     0.7988     6.2117 </r>
       <r>    14.7204     0.4228     6.2744 </r>
       <r>    14.8685     0.3883     6.3319 </r>
       <r>    15.0166     0.5785     6.4176 </r>
       <r>    15.1647     0.1158     6.4347 </r>
       <r>    15.3129     0.3571     6.4876 </r>
       <r>    15.4610     0.6517     6.5842 </r>
       <r>    15.6091     0.5204     6.6613 </r>
       <r>    15.7573     0.8430     6.7861 </r>
       <r>    15.9054     0.3673     6.8405 </r>
       <r>    16.0535     0.5264     6.9185 </r>
       <r>    16.2016     0.2346     6.9533 </r>
       <r>    16.3498     0.5557     7.0356 </r>
       <r>    16.4979     0.3519     7.0877 </r>
       <r>    16.6460     0.3572     7.1406 </r>
       <r>    16.7942     0.5202     7.2177 </r>
       <r>    16.9423     0.6634     7.3159 </r>
       <r>    17.0904     0.5028     7.3904 </r>
       <r>    17.2385     0.3320     7.4396 </r>
       <r>    17.3867     0.4026     7.4992 </r>
       <r>    17.5348     0.7116     7.6047 </r>
       <r>    17.6829     0.4622     7.6731 </r>
       <r>    17.8310     0.3040     7.7181 </r>
       <r>    17.9792     0.4663     7.7872 </r>
       <r>    18.1273     0.9749     7.9316 </r>
       <r>    18.2754     0.7451     8.0420 </r>
       <r>    18.4236     0.3301     8.0909 </r>
       <r>    18.5717     0.3408     8.1414 </r>
       <r>    18.7198     0.6919     8.2439 </r>
       <r>    18.8679     0.3827     8.3005 </r>
       <r>    19.0161     0.4187     8.3626 </r>
       <r>    19.1642     0.8037     8.4816 </r>
       <r>    19.3123     0.7464     8.5922 </r>
       <r>    19.4605     0.1548     8.6151 </r>
       <r>    19.6086     0.3485     8.6667 </r>
       <r>    19.7567     0.3187     8.7139 </r>
       <r>    19.9048     0.7147     8.8198 </r>
       <r>    20.0530     0.7618     8.9327 </r>
       <r>    20.2011     0.7855     9.0490 </r>
       <r>    20.3492     0.6114     9.1396 </r>
       <r>    20.4974     0.5429     9.2200 </r>
       <r>    20.6455     0.5475     9.3011 </r>
       <r>    20.7936     0.2328     9.3356 </r>
       <r>    20.9417     1.0638     9.4931 </r>
       <r>    21.0899     0.6720     9.5927 </r>
       <r>    21.2380     0.5440     9.6733 </r>
       <r>    21.3861     0.6842     9.7746 </r>
       <r>    21.5343     0.2723     9.8150 </r>
       <r>    21.6824     0.8781     9.9450 </r>
       <r>    21.8305     0.6535    10.0418 </r>
       <r>    21.9786     0.2817    10.0836 </r>
       <r>    22.1268     0.3331    10.1329 </r>
       <r>    22.2749     0.5349    10.2121 </r>
       <r>    22.4230     0.6633    10.3104 </r>
       <r>    22.5711     0.5817    10.3966 </r>
       <r>    22.7193     0.4097    10.4572 </r>
       <r>    22.8674     0.4696    10.5268 </r>
       <r>    23.0155     0.8506    10.6528 </r>
       <r>    23.1637     0.7770    10.7679 </r>
       <r>    23.3118     1.0915    10.9296 </r>
       <r>    23.4599     0.6939    11.0324 </r>
       <r>    23.6080     0.8962    11.1651 </r>
       <r>    23.7562     0.2233    11.1982 </r>
       <r>    23.9043     0.5175    11.2749 </r>
       <r>    24.0524     0.5872    11.3618 </r>
       <r>    24.2006     0.3169    11.4088 </r>
       <r>    24.3487     0.9626    11.5514 </r>
       <r>    24.4968     0.5897    11.6387 </r>
       <r>    24.6449     0.4448    11.7046 </r>
       <r>    24.7931     0.4849    11.7764 </r>
       <r>    24.9412     0.3181    11.8235 </r>
       <r>    25.0893     1.1847    11.9990 </r>
       <r>    25.2375     1.2454    12.1835 </r>
       <r>    25.3856     0.4827    12.2550 </r>
       <r>    25.5337     0.4460    12.3211 </r>
       <r>    25.6818     0.7437    12.4312 </r>
       <r>    25.8300     0.7497    12.5423 </r>
       <r>    25.9781     0.5280    12.6205 </r>
       <r>    26.1262     0.6218    12.7126 </r>
       <r>    26.2743     0.6787    12.8131 </r>
       <r>    26.4225     0.8464    12.9385 </r>
       <r>    26.5706     0.5559    13.0208 </r>
       <r>    26.7187     0.1054    13.0365 </r>
       <r>    26.8669     0.5482    13.1177 </r>
       <r>    27.0150     0.5276    13.1958 </r>
       <r>    27.1631     0.8814    13.3264 </r>
       <r>    27.3112     0.7971    13.4445 </r>
       <r>    27.4594     0.8151    13.5652 </r>
       <r>    27.6075     0.7013    13.6691 </r>
       <r>    27.7556     0.1658    13.6936 </r>
       <r>    27.9038     0.5998    13.7825 </r>
       <r>    28.0519     0.9992    13.9305 </r>
       <r>    28.2000     0.5026    14.0049 </r>
       <r>    28.3481     0.3513    14.0570 </r>
       <r>    28.4963     0.0762    14.0683 </r>
       <r>    28.6444     0.3351    14.1179 </r>
       <r>    28.7925     0.9036    14.2517 </r>
       <r>    28.9407     0.4190    14.3138 </r>
       <r>    29.0888     0.4887    14.3862 </r>
       <r>    29.2369     0.3575    14.4392 </r>
       <r>    29.3850     0.4439    14.5049 </r>
       <r>    29.5332     1.0711    14.6636 </r>
       <r>    29.6813     0.6821    14.7646 </r>
       <r>    29.8294     0.6423    14.8598 </r>
       <r>    29.9776     0.3907    14.9177 </r>
       <r>    30.1257     0.4515    14.9845 </r>
       <r>    30.2738     0.1673    15.0093 </r>
       <r>    30.4219     0.4263    15.0725 </r>
       <r>    30.5701     0.5618    15.1557 </r>
       <r>    30.7182     0.3879    15.2131 </r>
       <r>    30.8663     0.2425    15.2491 </r>
       <r>    31.0144     0.3969    15.3079 </r>
       <r>    31.1626     0.5545    15.3900 </r>
       <r>    31.3107     0.3695    15.4447 </r>
       <r>    31.4588     0.1481    15.4667 </r>
       <r>    31.6070     0.0030    15.4671 </r>
       <r>    31.7551     0.4217    15.5296 </r>
       <r>    31.9032     0.2922    15.5729 </r>
       <r>    32.0513     0.0958    15.5870 </r>
       <r>    32.1995     0.1422    15.6081 </r>
       <r>    32.3476     0.1429    15.6293 </r>
       <r>    32.4957     0.1905    15.6575 </r>
       <r>    32.6439     0.3627    15.7112 </r>
       <r>    32.7920     0.2277    15.7449 </r>
       <r>    32.9401     0.0655    15.7546 </r>
       <r>    33.0882     0.1192    15.7723 </r>
       <r>    33.2364     0.2808    15.8139 </r>
       <r>    33.3845     0.1189    15.8315 </r>
       <r>    33.5326     0.1775    15.8578 </r>
       <r>    33.6808     0.1638    15.8821 </r>
       <r>    33.8289     0.0521    15.8898 </r>
       <r>    33.9770     0.0022    15.8901 </r>
       <r>    34.1251     0.1846    15.9174 </r>
       <r>    34.2733     0.0480    15.9246 </r>
       <r>    34.4214     0.0053    15.9253 </r>
       <r>    34.5695     0.0791    15.9370 </r>
       <r>    34.7176     0.0409    15.9431 </r>
       <r>    34.8658     0.1107    15.9595 </r>
       <r>    35.0139     0.1053    15.9751 </r>
       <r>    35.1620     0.0448    15.9817 </r>
       <r>    35.3102     0.0512    15.9893 </r>
       <r>    35.4583     0.0000    15.9893 </r>
       <r>    35.6064     0.0000    15.9893 </r>
       <r>    35.7545     0.0008    15.9894 </r>
       <r>    35.9027     0.0463    15.9963 </r>
       <r>    36.0508     0.0025    15.9967 </r>
       <r>    36.1989     0.0224    16.0000 </r>
       <r>    36.3471     0.0001    16.0000 </r>
       <r>    36.4952     0.0000    16.0000 </r>
       <r>    36.6433     0.0000    16.0000 </r>
       <r>    36.7914     0.0000    16.0000 </r>
       <r>    36.9396     0.0000    16.0000 </r>
       <r>    37.0877     0.0000    16.0000 </r>
       <r>    37.2358     0.0000    16.0000 </r>
       <r>    37.3840     0.0000    16.0000 </r>
       <r>    37.5321     0.0000    16.0000 </r>
       <r>    37.6802     0.0000    16.0000 </r>
       <r>    37.8283     0.0000    16.0000 </r>
       <r>    37.9765     0.0000    16.0000 </r>
       <r>    38.1246     0.0000    16.0000 </r>
      </set>
     </set>
    </array>
   </total>
  </dos>
 </calculation>
 <structure name="finalpos" >
  <crystal>
   <varray name="basis" >
    <v>       2.37086895       0.00000000       1.36882068 </v>
    <v>       0.79028965       2.23527645       1.36882068 </v>
    <v>       0.00000000       0.00000000       2.73764338 </v>
   </varray>
   <i name="volume">     14.50827121 </i>
   <varray name="rec_basis" >
    <v>       0.42178628      -0.14912399       0.00000000 </v>
    <v>       0.00000000       0.44737196       0.00000000 </v>
    <v>      -0.21089299      -0.14912388       0.36527767 </v>
   </varray>
  </crystal>
  <varray name="positions" >
   <v>       0.00000000       0.00000000       0.00000000 </v>
  </varray>
 </structure>
</modeling>
