unknown system                          
           1
     2.370869    0.000000    1.368821
     0.790290    2.235276    1.368821
     0.000000    0.000000    2.737643
   Si
     1
Direct configuration=     1
   0.00000000  0.00000000  0.00000000
