   1   1   0   0
  0.1386300E+02  0.2621157E-09  0.2621157E-09  0.2621157E-09  0.5000000E-15
  1.000000000000000E-004
  CAR 
 unknown system                          
     35.24626072     -5.09256954  301     10.79084488      1.00000000
     -5.093  0.0000E+00  0.0000E+00
     -4.958  0.0000E+00  0.0000E+00
     -4.824  0.0000E+00  0.0000E+00
     -4.689  0.0000E+00  0.0000E+00
     -4.555  0.0000E+00  0.0000E+00
     -4.420  0.0000E+00  0.0000E+00
     -4.286  0.0000E+00  0.0000E+00
     -4.151  0.0000E+00  0.0000E+00
     -4.017  0.0000E+00  0.0000E+00
     -3.882  0.0000E+00  0.0000E+00
     -3.748  0.0000E+00  0.0000E+00
     -3.613  0.0000E+00  0.0000E+00
     -3.479  0.3392E-11  0.4561E-12
     -3.345  0.1082E-03  0.1454E-04
     -3.210  0.1267E-01  0.1719E-02
     -3.076  0.1162E-02  0.1875E-02
     -2.941  0.1497E-08  0.1875E-02
     -2.807  0.0000E+00  0.1875E-02
     -2.672  0.0000E+00  0.1875E-02
     -2.538  0.0000E+00  0.1875E-02
     -2.403  0.0000E+00  0.1875E-02
     -2.269  0.0000E+00  0.1875E-02
     -2.134  0.0000E+00  0.1875E-02
     -2.000  0.0000E+00  0.1875E-02
     -1.865  0.0000E+00  0.1875E-02
     -1.731  0.0000E+00  0.1875E-02
     -1.597  0.1497E-14  0.1875E-02
     -1.462  0.3261E-05  0.1875E-02
     -1.328  0.1097E-01  0.3351E-02
     -1.193  0.7615E-02  0.4375E-02
     -1.059  0.5145E-06  0.4375E-02
     -0.924  0.0000E+00  0.4375E-02
     -0.790  0.0000E+00  0.4375E-02
     -0.655  0.0000E+00  0.4375E-02
     -0.521  0.0000E+00  0.4375E-02
     -0.386  0.0000E+00  0.4375E-02
     -0.252  0.0000E+00  0.4375E-02
     -0.117  0.0000E+00  0.4375E-02
      0.017  0.0000E+00  0.4375E-02
      0.151  0.0000E+00  0.4375E-02
      0.286  0.3096E-16  0.4375E-02
      0.420  0.7119E-06  0.4375E-02
      0.555  0.1908E-01  0.6940E-02
      0.689  0.3668E-01  0.1187E-01
      0.824  0.1905E-04  0.1187E-01
      0.958  0.1686E-13  0.1188E-01
      1.093  0.0000E+00  0.1188E-01
      1.227  0.0000E+00  0.1188E-01
      1.362  0.0000E+00  0.1188E-01
      1.496  0.0000E+00  0.1188E-01
      1.631  0.0000E+00  0.1188E-01
      1.765  0.0000E+00  0.1188E-01
      1.899  0.0000E+00  0.1188E-01
      2.034  0.0000E+00  0.1188E-01
      2.168  0.0000E+00  0.1188E-01
      2.303  0.0000E+00  0.1188E-01
      2.437  0.0000E+00  0.1188E-01
      2.572  0.0000E+00  0.1188E-01
      2.706  0.0000E+00  0.1188E-01
      2.841  0.0000E+00  0.1188E-01
      2.975  0.0000E+00  0.1188E-01
      3.110  0.0000E+00  0.1188E-01
      3.244  0.0000E+00  0.1188E-01
      3.379  0.0000E+00  0.1188E-01
      3.513  0.0000E+00  0.1188E-01
      3.648  0.0000E+00  0.1188E-01
      3.782  0.0000E+00  0.1188E-01
      3.916  0.5341E-15  0.1188E-01
      4.051  0.2338E-05  0.1188E-01
      4.185  0.1439E-01  0.1381E-01
      4.320  0.2116E-01  0.1666E-01
      4.454  0.1236E-01  0.1832E-01
      4.589  0.2178E-01  0.2125E-01
      4.723  0.3477E-04  0.2125E-01
      4.858  0.1206E-12  0.2125E-01
      4.992  0.0000E+00  0.2125E-01
      5.127  0.0000E+00  0.2125E-01
      5.261  0.0000E+00  0.2125E-01
      5.396  0.0000E+00  0.2125E-01
      5.530  0.0000E+00  0.2125E-01
      5.664  0.1600E-15  0.2125E-01
      5.799  0.1024E-05  0.2125E-01
      5.933  0.8822E-02  0.2244E-01
      6.068  0.9768E-02  0.2375E-01
      6.202  0.2247E-03  0.2378E-01
      6.337  0.3330E-01  0.2826E-01
      6.471  0.3659E-02  0.2875E-01
      6.606  0.6520E-08  0.2875E-01
      6.740  0.0000E+00  0.2875E-01
      6.875  0.0000E+00  0.2875E-01
      7.009  0.0000E+00  0.2875E-01
      7.144  0.0000E+00  0.2875E-01
      7.278  0.0000E+00  0.2875E-01
      7.412  0.0000E+00  0.2875E-01
      7.547  0.0000E+00  0.2875E-01
      7.681  0.0000E+00  0.2875E-01
      7.816  0.2007E-08  0.2875E-01
      7.950  0.3163E-02  0.2918E-01
      8.085  0.5188E-01  0.3615E-01
      8.219  0.7365E-03  0.3625E-01
      8.354  0.4765E-10  0.3625E-01
      8.488  0.0000E+00  0.3625E-01
      8.623  0.0000E+00  0.3625E-01
      8.757  0.0000E+00  0.3625E-01
      8.892  0.0000E+00  0.3625E-01
      9.026  0.0000E+00  0.3625E-01
      9.160  0.0000E+00  0.3625E-01
      9.295  0.0000E+00  0.3625E-01
      9.429  0.0000E+00  0.3625E-01
      9.564  0.0000E+00  0.3625E-01
      9.698  0.0000E+00  0.3625E-01
      9.833  0.0000E+00  0.3625E-01
      9.967  0.0000E+00  0.3625E-01
     10.102  0.0000E+00  0.3625E-01
     10.236  0.0000E+00  0.3625E-01
     10.371  0.1016E-07  0.3625E-01
     10.505  0.3486E-02  0.3672E-01
     10.640  0.2429E-01  0.3999E-01
     10.774  0.1113E-03  0.4000E-01
     10.908  0.1499E-11  0.4000E-01
     11.043  0.0000E+00  0.4000E-01
     11.177  0.2198E-15  0.4000E-01
     11.312  0.1471E-05  0.4000E-01
     11.446  0.1312E-01  0.4176E-01
     11.581  0.1477E-01  0.4375E-01
     11.715  0.3444E-04  0.4375E-01
     11.850  0.2155E-01  0.4665E-01
     11.984  0.6305E-02  0.4750E-01
     12.119  0.7307E-07  0.4750E-01
     12.253  0.0000E+00  0.4750E-01
     12.388  0.0000E+00  0.4750E-01
     12.522  0.5876E-10  0.4750E-01
     12.657  0.3514E-03  0.4755E-01
     12.791  0.1314E-01  0.4931E-01
     12.925  0.1619E-02  0.4953E-01
     13.060  0.1721E-01  0.5185E-01
     13.194  0.2150E-03  0.5187E-01
     13.329  0.6123E-06  0.5188E-01
     13.463  0.6327E-02  0.5273E-01
     13.598  0.3263E-01  0.5711E-01
     13.732  0.1217E-01  0.5875E-01
     13.867  0.3748E-04  0.5875E-01
     14.001  0.4033E-01  0.6418E-01
     14.136  0.1541E-01  0.6625E-01
     14.270  0.3063E-06  0.6625E-01
     14.405  0.0000E+00  0.6625E-01
     14.539  0.0000E+00  0.6625E-01
     14.673  0.0000E+00  0.6625E-01
     14.808  0.0000E+00  0.6625E-01
     14.942  0.0000E+00  0.6625E-01
     15.077  0.0000E+00  0.6625E-01
     15.211  0.0000E+00  0.6625E-01
     15.346  0.0000E+00  0.6625E-01
     15.480  0.0000E+00  0.6625E-01
     15.615  0.0000E+00  0.6625E-01
     15.749  0.0000E+00  0.6625E-01
     15.884  0.0000E+00  0.6625E-01
     16.018  0.0000E+00  0.6625E-01
     16.153  0.0000E+00  0.6625E-01
     16.287  0.0000E+00  0.6625E-01
     16.421  0.5959E-10  0.6625E-01
     16.556  0.8080E-03  0.6636E-01
     16.690  0.5203E-01  0.7335E-01
     16.825  0.2939E-02  0.7375E-01
     16.959  0.1639E-08  0.7375E-01
     17.094  0.3060E-12  0.7375E-01
     17.228  0.5384E-04  0.7376E-01
     17.363  0.2280E-01  0.7682E-01
     17.497  0.5031E-02  0.7750E-01
     17.632  0.3337E-07  0.7750E-01
     17.766  0.0000E+00  0.7750E-01
     17.901  0.0000E+00  0.7750E-01
     18.035  0.0000E+00  0.7750E-01
     18.169  0.0000E+00  0.7750E-01
     18.304  0.0000E+00  0.7750E-01
     18.438  0.0000E+00  0.7750E-01
     18.573  0.3150E-09  0.7750E-01
     18.707  0.7995E-03  0.7761E-01
     18.842  0.1745E-01  0.7995E-01
     18.976  0.1278E-02  0.8013E-01
     19.111  0.2321E-01  0.8325E-01
     19.245  0.3749E-02  0.8375E-01
     19.380  0.5921E-07  0.8375E-01
     19.514  0.0000E+00  0.8375E-01
     19.649  0.0000E+00  0.8375E-01
     19.783  0.0000E+00  0.8375E-01
     19.918  0.0000E+00  0.8375E-01
     20.052  0.0000E+00  0.8375E-01
     20.186  0.0000E+00  0.8375E-01
     20.321  0.0000E+00  0.8375E-01
     20.455  0.0000E+00  0.8375E-01
     20.590  0.0000E+00  0.8375E-01
     20.724  0.0000E+00  0.8375E-01
     20.859  0.0000E+00  0.8375E-01
     20.993  0.1567E-12  0.8375E-01
     21.128  0.2728E-04  0.8375E-01
     21.262  0.2001E-01  0.8644E-01
     21.397  0.8479E-01  0.9784E-01
     21.531  0.4520E-02  0.9845E-01
     21.666  0.5233E-01  0.1055E+00
     21.800  0.1013E-02  0.1056E+00
     21.934  0.1866E-04  0.1056E+00
     22.069  0.1416E-01  0.1075E+00
     22.203  0.4417E-02  0.1081E+00
     22.338  0.5824E-07  0.1081E+00
     22.472  0.0000E+00  0.1081E+00
     22.607  0.0000E+00  0.1081E+00
     22.741  0.0000E+00  0.1081E+00
     22.876  0.0000E+00  0.1081E+00
     23.010  0.0000E+00  0.1081E+00
     23.145  0.0000E+00  0.1081E+00
     23.279  0.0000E+00  0.1081E+00
     23.414  0.0000E+00  0.1081E+00
     23.548  0.5784E-11  0.1081E+00
     23.682  0.1359E-03  0.1081E+00
     23.817  0.1282E-01  0.1099E+00
     23.951  0.9923E-03  0.1100E+00
     24.086  0.9491E-09  0.1100E+00
     24.220  0.0000E+00  0.1100E+00
     24.355  0.0000E+00  0.1100E+00
     24.489  0.0000E+00  0.1100E+00
     24.624  0.0000E+00  0.1100E+00
     24.758  0.3182E-12  0.1100E+00
     24.893  0.7927E-04  0.1100E+00
     25.027  0.4418E-01  0.1160E+00
     25.162  0.1151E-01  0.1175E+00
     25.296  0.1688E-03  0.1175E+00
     25.430  0.2502E-01  0.1209E+00
     25.565  0.4676E-01  0.1272E+00
     25.699  0.3651E-01  0.1321E+00
     25.834  0.1239E-01  0.1337E+00
     25.968  0.1123E-05  0.1337E+00
     26.103  0.0000E+00  0.1338E+00
     26.237  0.0000E+00  0.1338E+00
     26.372  0.0000E+00  0.1338E+00
     26.506  0.0000E+00  0.1338E+00
     26.641  0.0000E+00  0.1338E+00
     26.775  0.0000E+00  0.1338E+00
     26.910  0.0000E+00  0.1338E+00
     27.044  0.0000E+00  0.1338E+00
     27.178  0.0000E+00  0.1338E+00
     27.313  0.1267E-07  0.1338E+00
     27.447  0.4549E-02  0.1344E+00
     27.582  0.3248E-01  0.1387E+00
     27.716  0.1543E-03  0.1387E+00
     27.851  0.2179E-11  0.1388E+00
     27.985  0.0000E+00  0.1388E+00
     28.120  0.0000E+00  0.1388E+00
     28.254  0.0000E+00  0.1388E+00
     28.389  0.0000E+00  0.1388E+00
     28.523  0.0000E+00  0.1388E+00
     28.658  0.0000E+00  0.1388E+00
     28.792  0.0000E+00  0.1388E+00
     28.927  0.0000E+00  0.1388E+00
     29.061  0.0000E+00  0.1388E+00
     29.195  0.0000E+00  0.1388E+00
     29.330  0.1258E-12  0.1388E+00
     29.464  0.5096E-04  0.1388E+00
     29.599  0.4199E-01  0.1444E+00
     29.733  0.1374E-01  0.1462E+00
     29.868  0.1992E-06  0.1462E+00
     30.002  0.0000E+00  0.1462E+00
     30.137  0.0000E+00  0.1462E+00
     30.271  0.0000E+00  0.1462E+00
     30.406  0.0000E+00  0.1462E+00
     30.540  0.0000E+00  0.1462E+00
     30.675  0.0000E+00  0.1462E+00
     30.809  0.1210E-14  0.1463E+00
     30.943  0.2584E-05  0.1463E+00
     31.078  0.1370E-01  0.1481E+00
     31.212  0.2808E-01  0.1519E+00
     31.347  0.4597E-04  0.1519E+00
     31.481  0.2205E-12  0.1519E+00
     31.616  0.8090E-05  0.1519E+00
     31.750  0.1788E-01  0.1543E+00
     31.885  0.1159E-01  0.1558E+00
     32.019  0.1229E-01  0.1575E+00
     32.154  0.6547E-04  0.1575E+00
     32.288  0.1078E-11  0.1575E+00
     32.423  0.0000E+00  0.1575E+00
     32.557  0.0000E+00  0.1575E+00
     32.691  0.0000E+00  0.1575E+00
     32.826  0.0000E+00  0.1575E+00
     32.960  0.0000E+00  0.1575E+00
     33.095  0.0000E+00  0.1575E+00
     33.229  0.1996E-08  0.1575E+00
     33.364  0.1549E-02  0.1577E+00
     33.498  0.1690E-01  0.1600E+00
     33.633  0.1442E-03  0.1600E+00
     33.767  0.4523E-11  0.1600E+00
     33.902  0.0000E+00  0.1600E+00
     34.036  0.0000E+00  0.1600E+00
     34.171  0.0000E+00  0.1600E+00
     34.305  0.0000E+00  0.1600E+00
     34.439  0.0000E+00  0.1600E+00
     34.574  0.0000E+00  0.1600E+00
     34.708  0.0000E+00  0.1600E+00
     34.843  0.0000E+00  0.1600E+00
     34.977  0.0000E+00  0.1600E+00
     35.112  0.0000E+00  0.1600E+00
     35.246  0.0000E+00  0.1600E+00
