    1    1  100    1
  0.1386300E+02  0.2621157E-09  0.2621157E-09  0.2621157E-09  0.5000000E-15
  1.000000000000000E-004
  CAR 
 unknown system                          
      4      6      8
 
  0.1250000E+00  0.1250000E+00  0.1250000E+00  0.1250000E+00
    1       -1.335695   1.000000
    2       12.979599   0.000000
    3       13.581930   0.000000
    4       13.581930   0.000000
    5       25.548917   0.000000
    6       25.548917   0.000000
    7       27.488554   0.000000
    8       27.488554   0.000000
 
  0.3750000E+00  0.1250000E+00  0.1250000E+00  0.1875000E+00
    1        4.183954   1.000000
    2        4.481830   1.000000
    3       11.448980   0.000000
    4       11.823160   0.000000
    5       25.548404   0.000000
    6       25.694464   0.000000
    7       31.108393   0.000000
    8       31.737414   0.000000
 
 -0.1250000E+00  0.1250000E+00  0.1250000E+00  0.9375000E-01
    1       -3.258986   1.000000
    2       17.330402   0.000000
    3       17.330402   0.000000
    4       19.029471   0.000000
    5       21.229699   0.000000
    6       23.765052   0.000000
    7       25.384731   0.000000
    8       25.384731   0.000000
 
 -0.3750000E+00  0.3750000E+00  0.1250000E+00  0.3750000E+00
    1        0.569254   1.000000
    2        8.006287   1.000000
    3       13.980154   0.000000
    4       16.633147   0.000000
    5       21.333138   0.000000
    6       21.591513   0.000000
    7       24.998138   0.000000
    8       29.574563   0.000000
 
 -0.3750000E+00 -0.3750000E+00  0.1250000E+00  0.1250000E+00
    1        5.935636   1.000000
    2        6.291130   1.000000
    3        6.291130   1.000000
    4       18.768042   0.000000
    5       21.292193   0.000000
    6       21.292193   0.000000
    7       22.043663   0.000000
    8       33.412678   0.000000
 
 -0.3750000E+00  0.3750000E+00  0.3750000E+00  0.9375000E-01
    1        4.315400   1.000000
    2       10.545784   1.000000
    3       10.545784   1.000000
    4       12.725689   0.000000
    5       13.467494   0.000000
    6       19.087774   0.000000
    7       31.069478   0.000000
    8       31.927318   0.000000
