 running on    4 total cores
 distrk:  each k-point on    4 cores,    1 groups
 distr:  one band on    1 cores,    4 groups
 vasp.6.2.0 18Jan21 (build Aug 12 2022 13:00:08) complex                        
  
 POSCAR found type information on POSCAR Si
 POSCAR found :  1 types and       1 ions
 scaLAPACK will be used
 LDA part: xc-table for Pade appr. of Perdew
 POSCAR, INCAR and KPOINTS ok, starting setup
 FFT: planning ...
 WAVECAR not read
 entering main loop
       N       E                     dE             d eps       ncg     rms          rms(c)
DAV:   1    -0.300175206527E+01   -0.30018E+01   -0.15098E+03   104   0.291E+02
DAV:   2    -0.501834225912E+01   -0.20166E+01   -0.20166E+01   144   0.276E+01
DAV:   3    -0.502829678412E+01   -0.99545E-02   -0.99545E-02   104   0.202E+00
DAV:   4    -0.502830424862E+01   -0.74645E-05   -0.74645E-05   144   0.594E-02
DAV:   5    -0.502830424882E+01   -0.20654E-09   -0.20656E-09   104   0.326E-04    0.289E+00
DAV:   6    -0.501920176054E+01    0.91025E-02   -0.31702E-03    96   0.257E-01    0.161E+00
DAV:   7    -0.501381038261E+01    0.53914E-02   -0.66829E-03    96   0.374E-01    0.164E-01
DAV:   8    -0.501380706644E+01    0.33162E-05   -0.34986E-05   128   0.448E-02    0.652E-03
DAV:   9    -0.501380743217E+01   -0.36573E-06   -0.62420E-07   112   0.432E-03
   1 F= -.50138074E+01 E0= -.50138074E+01  d E =-.501381E+01
 curvature:   0.00 expect dE= 0.000E+00 dE for cont linesearch  0.000E+00
 trial: gam= 0.00000 g(F)=  0.309E-65 g(S)=  0.170E-01 ort = 0.000E+00 (trialstep = 0.100E+01)
 search vector abs. value=  0.170E-01
 bond charge predicted
       N       E                     dE             d eps       ncg     rms          rms(c)
DAV:   1    -0.502219516755E+01   -0.83881E-02   -0.23799E-01    96   0.196E+00    0.469E-01
DAV:   2    -0.501969614870E+01    0.24990E-02   -0.11901E-03    96   0.256E-01    0.271E-01
DAV:   3    -0.501820073934E+01    0.14954E-02   -0.15131E-03    96   0.167E-01    0.887E-02
DAV:   4    -0.501819979600E+01    0.94333E-06   -0.23451E-06    96   0.137E-02    0.789E-02
DAV:   5    -0.501819304902E+01    0.67470E-05   -0.54642E-07   104   0.504E-03    0.168E-02
DAV:   6    -0.501819336416E+01   -0.31514E-06   -0.11781E-08    48   0.903E-04
   2 F= -.50181934E+01 E0= -.50181934E+01  d E =-.438593E-02
 trial-energy change:   -0.004386  1 .order   -0.004690   -0.016956    0.007577
 step:   0.6749(harm=  0.6912)  dis= 0.00000  next Energy=    -5.019436 (dE=-0.563E-02)
 bond charge predicted
       N       E                     dE             d eps       ncg     rms          rms(c)
DAV:   1    -0.501984099065E+01   -0.16479E-02   -0.25766E-02    96   0.651E-01    0.152E-01
DAV:   2    -0.501957316102E+01    0.26783E-03   -0.12549E-04    96   0.836E-02    0.873E-02
DAV:   3    -0.501941564402E+01    0.15752E-03   -0.16211E-04    96   0.548E-02    0.307E-02
DAV:   4    -0.501941570650E+01   -0.62479E-07   -0.24534E-07    96   0.444E-03    0.280E-02
DAV:   5    -0.501941639266E+01   -0.68616E-06   -0.62994E-08    48   0.178E-03    0.708E-03
DAV:   6    -0.501941623738E+01    0.15528E-06   -0.31080E-09    48   0.484E-04
   3 F= -.50194162E+01 E0= -.50194162E+01  d E =-.560881E-02
 curvature:  -0.34 expect dE=-0.244E-07 dE for cont linesearch -0.244E-07
 trial: gam=-0.00204 g(F)=  0.641E-65 g(S)=  0.709E-07 ort = 0.347E-04 (trialstep = 0.935E+00)
 search vector abs. value=  0.100E-09
 reached required accuracy - stopping structural energy minimisation
