   1   1   0   0
  0.1408159E+02  0.2710538E-09  0.2710538E-09  0.2710538E-09  0.5000000E-15
  1.000000000000000E-004
  CAR 
 unknown system                          
     36.09141950     -5.76598929  301     10.12195357      1.00000000
     -5.766  0.0000E+00  0.0000E+00
     -5.626  0.0000E+00  0.0000E+00
     -5.487  0.0000E+00  0.0000E+00
     -5.347  0.0000E+00  0.0000E+00
     -5.208  0.0000E+00  0.0000E+00
     -5.068  0.0000E+00  0.0000E+00
     -4.929  0.0000E+00  0.0000E+00
     -4.789  0.0000E+00  0.0000E+00
     -4.650  0.0000E+00  0.0000E+00
     -4.510  0.0000E+00  0.0000E+00
     -4.371  0.0000E+00  0.0000E+00
     -4.231  0.0000E+00  0.0000E+00
     -4.092  0.2381E-12  0.3323E-13
     -3.952  0.2694E-04  0.3759E-05
     -3.813  0.4114E-02  0.5777E-03
     -3.673  0.3388E-03  0.6250E-03
     -3.534  0.1655E-09  0.6250E-03
     -3.394  0.0000E+00  0.6250E-03
     -3.255  0.0000E+00  0.6250E-03
     -3.115  0.0000E+00  0.6250E-03
     -2.975  0.0000E+00  0.6250E-03
     -2.836  0.6137E-08  0.6250E-03
     -2.696  0.2254E-02  0.9395E-03
     -2.557  0.1117E-01  0.2497E-02
     -2.417  0.1916E-04  0.2500E-02
     -2.278  0.2836E-13  0.2500E-02
     -2.138  0.0000E+00  0.2500E-02
     -1.999  0.0000E+00  0.2500E-02
     -1.859  0.0000E+00  0.2500E-02
     -1.720  0.9814E-14  0.2500E-02
     -1.580  0.1167E-04  0.2502E-02
     -1.441  0.1064E-01  0.3986E-02
     -1.301  0.2791E-02  0.4375E-02
     -1.162  0.1295E-07  0.4375E-02
     -1.022  0.0000E+00  0.4375E-02
     -0.883  0.0000E+00  0.4375E-02
     -0.743  0.0000E+00  0.4375E-02
     -0.604  0.0000E+00  0.4375E-02
     -0.464  0.2836E-08  0.4375E-02
     -0.325  0.2142E-02  0.4674E-02
     -0.185  0.1572E-01  0.6868E-02
     -0.045  0.5173E-04  0.6875E-02
      0.094  0.1869E-12  0.6875E-02
      0.234  0.0000E+00  0.6875E-02
      0.373  0.0000E+00  0.6875E-02
      0.513  0.0000E+00  0.6875E-02
      0.652  0.1007E-12  0.6875E-02
      0.792  0.4989E-04  0.6882E-02
      0.931  0.2285E-01  0.1007E-01
      1.071  0.3980E-02  0.1062E-01
      1.210  0.8067E-08  0.1063E-01
      1.350  0.0000E+00  0.1063E-01
      1.489  0.0000E+00  0.1063E-01
      1.629  0.0000E+00  0.1063E-01
      1.768  0.1410E-15  0.1063E-01
      1.908  0.1460E-05  0.1063E-01
      2.047  0.8036E-02  0.1175E-01
      2.187  0.5401E-02  0.1250E-01
      2.326  0.1836E-06  0.1250E-01
      2.466  0.0000E+00  0.1250E-01
      2.605  0.0000E+00  0.1250E-01
      2.745  0.0000E+00  0.1250E-01
      2.885  0.0000E+00  0.1250E-01
      3.024  0.1517E-08  0.1250E-01
      3.164  0.2032E-02  0.1278E-01
      3.303  0.2463E-01  0.1622E-01
      3.443  0.2125E-03  0.1625E-01
      3.582  0.4191E-11  0.1625E-01
      3.722  0.0000E+00  0.1625E-01
      3.861  0.0000E+00  0.1625E-01
      4.001  0.0000E+00  0.1625E-01
      4.140  0.7447E-11  0.1625E-01
      4.280  0.3230E-03  0.1630E-01
      4.419  0.2690E-01  0.2005E-01
      4.559  0.1305E-01  0.2187E-01
      4.698  0.3918E-04  0.2187E-01
      4.838  0.1367E-12  0.2187E-01
      4.977  0.0000E+00  0.2187E-01
      5.117  0.0000E+00  0.2187E-01
      5.256  0.0000E+00  0.2187E-01
      5.396  0.4505E-09  0.2188E-01
      5.536  0.9833E-03  0.2201E-01
      5.675  0.1237E-01  0.2374E-01
      5.815  0.8492E-04  0.2375E-01
      5.954  0.8021E-12  0.2375E-01
      6.094  0.0000E+00  0.2375E-01
      6.233  0.0000E+00  0.2375E-01
      6.373  0.0000E+00  0.2375E-01
      6.512  0.2987E-08  0.2375E-01
      6.652  0.2967E-02  0.2416E-01
      6.791  0.2807E-01  0.2808E-01
      6.931  0.3233E-03  0.2812E-01
      7.070  0.5723E-10  0.2813E-01
      7.210  0.0000E+00  0.2813E-01
      7.349  0.0000E+00  0.2813E-01
      7.489  0.0000E+00  0.2813E-01
      7.628  0.1266E-10  0.2813E-01
      7.768  0.4128E-03  0.2818E-01
      7.907  0.3614E-01  0.3323E-01
      8.047  0.3760E-02  0.3375E-01
      8.186  0.1222E-07  0.3375E-01
      8.326  0.0000E+00  0.3375E-01
      8.466  0.0000E+00  0.3375E-01
      8.605  0.0000E+00  0.3375E-01
      8.745  0.0000E+00  0.3375E-01
      8.884  0.1287E-07  0.3375E-01
      9.024  0.4572E-02  0.3439E-01
      9.163  0.2227E-01  0.3749E-01
      9.303  0.3718E-04  0.3750E-01
      9.442  0.5310E-13  0.3750E-01
      9.582  0.0000E+00  0.3750E-01
      9.721  0.0000E+00  0.3750E-01
      9.861  0.1236E-12  0.3750E-01
     10.000  0.4385E-04  0.3751E-01
     10.140  0.2276E-01  0.4068E-01
     10.279  0.1743E-01  0.4311E-01
     10.419  0.8671E-04  0.4312E-01
     10.558  0.8415E-12  0.4312E-01
     10.698  0.0000E+00  0.4312E-01
     10.837  0.0000E+00  0.4312E-01
     10.977  0.2953E-08  0.4313E-01
     11.116  0.1810E-02  0.4338E-01
     11.256  0.1162E-01  0.4500E-01
     11.396  0.2090E-01  0.4792E-01
     11.535  0.5983E-02  0.4875E-01
     11.675  0.3333E-07  0.4875E-01
     11.814  0.0000E+00  0.4875E-01
     11.954  0.0000E+00  0.4875E-01
     12.093  0.1809E-12  0.4875E-01
     12.233  0.6510E-04  0.4876E-01
     12.372  0.2333E-01  0.5201E-01
     12.512  0.3478E-02  0.5250E-01
     12.651  0.5194E-08  0.5250E-01
     12.791  0.0000E+00  0.5250E-01
     12.930  0.0000E+00  0.5250E-01
     13.070  0.0000E+00  0.5250E-01
     13.209  0.1370E-07  0.5250E-01
     13.349  0.2910E-02  0.5291E-01
     13.488  0.2289E-01  0.5610E-01
     13.628  0.8549E-02  0.5729E-01
     13.767  0.5964E-02  0.5812E-01
     13.907  0.2929E-06  0.5813E-01
     14.047  0.0000E+00  0.5813E-01
     14.186  0.0000E+00  0.5813E-01
     14.326  0.1307E-07  0.5813E-01
     14.465  0.2798E-02  0.5852E-01
     14.605  0.2089E-01  0.6143E-01
     14.744  0.2970E-01  0.6557E-01
     14.884  0.3636E-03  0.6562E-01
     15.023  0.2807E-10  0.6563E-01
     15.163  0.0000E+00  0.6563E-01
     15.302  0.5048E-08  0.6563E-01
     15.442  0.2128E-02  0.6592E-01
     15.581  0.1130E-01  0.6750E-01
     15.721  0.1032E-01  0.6894E-01
     15.860  0.3141E-02  0.6938E-01
     16.000  0.1064E-01  0.7086E-01
     16.139  0.2792E-02  0.7125E-01
     16.279  0.1296E-07  0.7125E-01
     16.418  0.2046E-06  0.7125E-01
     16.558  0.2300E-02  0.7157E-01
     16.697  0.7694E-02  0.7264E-01
     16.837  0.2108E-01  0.7559E-01
     16.977  0.2845E-03  0.7563E-01
     17.116  0.1352E-02  0.7581E-01
     17.256  0.1204E-01  0.7749E-01
     17.395  0.5125E-04  0.7750E-01
     17.535  0.2505E-12  0.7750E-01
     17.674  0.0000E+00  0.7750E-01
     17.814  0.0000E+00  0.7750E-01
     17.953  0.0000E+00  0.7750E-01
     18.093  0.0000E+00  0.7750E-01
     18.232  0.4571E-07  0.7750E-01
     18.372  0.5246E-02  0.7823E-01
     18.511  0.2519E-01  0.8175E-01
     18.651  0.5397E-02  0.8250E-01
     18.790  0.9571E-06  0.8250E-01
     18.930  0.0000E+00  0.8250E-01
     19.069  0.0000E+00  0.8250E-01
     19.209  0.7092E-09  0.8250E-01
     19.348  0.1238E-02  0.8267E-01
     19.488  0.2465E-01  0.8611E-01
     19.628  0.7684E-02  0.8718E-01
     19.767  0.8321E-02  0.8835E-01
     19.907  0.7371E-02  0.8937E-01
     20.046  0.1148E-04  0.8938E-01
     20.186  0.4200E-03  0.8943E-01
     20.325  0.1277E-01  0.9122E-01
     20.465  0.1828E-01  0.9377E-01
     20.604  0.9187E-02  0.9505E-01
     20.744  0.1279E-01  0.9683E-01
     20.883  0.3026E-03  0.9687E-01
     21.023  0.1794E-10  0.9688E-01
     21.162  0.8440E-12  0.9688E-01
     21.302  0.1288E-03  0.9689E-01
     21.441  0.2439E-01  0.1003E+00
     21.581  0.2369E-02  0.1006E+00
     21.720  0.7561E-02  0.1017E+00
     21.860  0.1382E-02  0.1019E+00
     21.999  0.3085E-08  0.1019E+00
     22.139  0.0000E+00  0.1019E+00
     22.278  0.2238E-17  0.1019E+00
     22.418  0.1700E-06  0.1019E+00
     22.558  0.5311E-02  0.1026E+00
     22.697  0.8126E-02  0.1037E+00
     22.837  0.3715E-02  0.1043E+00
     22.976  0.2310E-01  0.1075E+00
     23.116  0.2400E-02  0.1078E+00
     23.255  0.4475E-02  0.1085E+00
     23.395  0.2149E-02  0.1088E+00
     23.534  0.1091E-01  0.1103E+00
     23.674  0.2929E-01  0.1144E+00
     23.813  0.8897E-02  0.1156E+00
     23.953  0.1752E-03  0.1156E+00
     24.092  0.8340E-11  0.1156E+00
     24.232  0.1197E-11  0.1156E+00
     24.371  0.1498E-03  0.1156E+00
     24.511  0.2459E-01  0.1191E+00
     24.650  0.2137E-02  0.1194E+00
     24.790  0.4206E-06  0.1194E+00
     24.929  0.6413E-02  0.1203E+00
     25.069  0.7024E-02  0.1212E+00
     25.208  0.6756E-06  0.1212E+00
     25.348  0.0000E+00  0.1212E+00
     25.488  0.1634E-07  0.1213E+00
     25.627  0.2975E-02  0.1217E+00
     25.767  0.1699E-01  0.1240E+00
     25.906  0.2033E-01  0.1269E+00
     26.046  0.1547E-04  0.1269E+00
     26.185  0.8271E-14  0.1269E+00
     26.325  0.1119E-16  0.1269E+00
     26.464  0.3968E-06  0.1269E+00
     26.604  0.6345E-02  0.1278E+00
     26.743  0.1724E-01  0.1302E+00
     26.883  0.3405E-01  0.1349E+00
     27.022  0.1158E-01  0.1365E+00
     27.162  0.1591E-01  0.1388E+00
     27.301  0.4037E-02  0.1393E+00
     27.441  0.4261E-03  0.1394E+00
     27.580  0.3294E-09  0.1394E+00
     27.720  0.0000E+00  0.1394E+00
     27.859  0.0000E+00  0.1394E+00
     27.999  0.4672E-09  0.1394E+00
     28.139  0.9956E-03  0.1395E+00
     28.278  0.1236E-01  0.1412E+00
     28.418  0.8337E-04  0.1412E+00
     28.557  0.7681E-12  0.1412E+00
     28.697  0.0000E+00  0.1412E+00
     28.836  0.0000E+00  0.1412E+00
     28.976  0.2899E-10  0.1413E+00
     29.115  0.3642E-03  0.1413E+00
     29.255  0.1710E-01  0.1437E+00
     29.394  0.9414E-02  0.1450E+00
     29.534  0.3356E-05  0.1450E+00
     29.673  0.2223E-06  0.1450E+00
     29.813  0.9657E-02  0.1463E+00
     29.952  0.2644E-01  0.1500E+00
     30.092  0.4214E-02  0.1506E+00
     30.231  0.6246E-07  0.1506E+00
     30.371  0.3318E-09  0.1506E+00
     30.510  0.1388E-02  0.1508E+00
     30.650  0.2521E-01  0.1543E+00
     30.789  0.2753E-03  0.1544E+00
     30.929  0.1687E-07  0.1544E+00
     31.069  0.3002E-02  0.1548E+00
     31.208  0.1043E-01  0.1562E+00
     31.348  0.9711E-05  0.1562E+00
     31.487  0.6657E-14  0.1562E+00
     31.627  0.0000E+00  0.1562E+00
     31.766  0.0000E+00  0.1562E+00
     31.906  0.1417E-16  0.1562E+00
     32.045  0.4513E-06  0.1563E+00
     32.185  0.6506E-02  0.1572E+00
     32.324  0.6932E-02  0.1581E+00
     32.464  0.6289E-06  0.1581E+00
     32.603  0.0000E+00  0.1581E+00
     32.743  0.0000E+00  0.1581E+00
     32.882  0.0000E+00  0.1581E+00
     33.022  0.0000E+00  0.1581E+00
     33.161  0.0000E+00  0.1581E+00
     33.301  0.0000E+00  0.1581E+00
     33.440  0.0000E+00  0.1581E+00
     33.580  0.0000E+00  0.1581E+00
     33.719  0.0000E+00  0.1581E+00
     33.859  0.0000E+00  0.1581E+00
     33.999  0.4966E-09  0.1581E+00
     34.138  0.1016E-02  0.1583E+00
     34.278  0.1234E-01  0.1600E+00
     34.417  0.8082E-04  0.1600E+00
     34.557  0.7144E-12  0.1600E+00
     34.696  0.0000E+00  0.1600E+00
     34.836  0.0000E+00  0.1600E+00
     34.975  0.0000E+00  0.1600E+00
     35.115  0.0000E+00  0.1600E+00
     35.254  0.0000E+00  0.1600E+00
     35.394  0.0000E+00  0.1600E+00
     35.533  0.0000E+00  0.1600E+00
     35.673  0.0000E+00  0.1600E+00
     35.812  0.0000E+00  0.1600E+00
     35.952  0.0000E+00  0.1600E+00
     36.091  0.0000E+00  0.1600E+00
