    1    1  100    1
  0.1408159E+02  0.2710538E-09  0.2710538E-09  0.2710538E-09  0.5000000E-15
  1.000000000000000E-004
  CAR 
 unknown system                          
      4     10      8
 
  0.1250000E+00  0.1250000E+00  0.1250000E+00  0.3125000E-01
    1       -3.863380   1.000000
    2       16.556766   0.000000
    3       19.799922   0.000000
    4       19.799929   0.000000
    5       23.253229   0.000000
    6       23.740301   0.000000
    7       23.740310   0.000000
    8       27.255053   0.000000
 
  0.3750000E+00  0.1250000E+00  0.1250000E+00  0.9375000E-01
    1       -1.469522   1.000000
    2       10.098435   0.747041
    3       14.493823   0.000000
    4       19.396921   0.000000
    5       22.566920   0.000000
    6       22.877767   0.000000
    7       24.931462   0.000000
    8       26.813757   0.000000
 
 -0.3750000E+00  0.1250000E+00  0.1250000E+00  0.9375000E-01
    1        2.038614   1.000000
    2        4.461358   1.000000
    3       15.477164   0.000000
    4       16.708054   0.000000
    5       19.435455   0.000000
    6       23.512224   0.000000
    7       25.654201   0.000000
    8       29.183254   0.000000
 
 -0.1250000E+00  0.1250000E+00  0.1250000E+00  0.9375000E-01
    1       -2.662395   1.000000
    2       13.377292   0.000000
    3       16.765140   0.000000
    4       18.416621   0.000000
    5       20.251459   0.000000
    6       22.872559   0.000000
    7       26.747022   0.000000
    8       26.809495   0.000000
 
  0.3750000E+00  0.3750000E+00  0.1250000E+00  0.9375000E-01
    1       -0.281420   1.000000
    2       11.155554   0.000000
    3       13.438554   0.000000
    4       14.675882   0.000000
    5       17.161253   0.000000
    6       20.672840   0.000000
    7       29.271159   0.000000
    8       31.095433   0.000000
 
 -0.3750000E+00  0.3750000E+00  0.1250000E+00  0.1875000E+00
    1        4.359572   1.000000
    2        6.695316   1.000000
    3        9.057350   1.000000
    4       11.368559   0.000000
    5       20.448981   0.000000
    6       24.461078   0.000000
    7       27.030474   0.000000
    8       30.568028   0.000000
 
 -0.1250000E+00  0.3750000E+00  0.1250000E+00  0.1875000E+00
    1        0.894258   1.000000
    2        7.844723   1.000000
    3       12.332300   0.000000
    4       14.616258   0.000000
    5       21.393391   0.000000
    6       23.596200   0.000000
    7       25.791190   0.000000
    8       29.825560   0.000000
 
 -0.3750000E+00 -0.3750000E+00  0.1250000E+00  0.9375000E-01
    1        3.223721   1.000000
    2        7.878135   1.000000
    3       10.116472   0.561607
    4       13.622950   0.000000
    5       15.971073   0.000000
    6       19.627672   0.000000
    7       32.186133   0.000000
    8       34.188810   0.000000
 
  0.3750000E+00  0.3750000E+00  0.3750000E+00  0.3125000E-01
    1       -0.286957   1.000000
    2        6.733808   1.000000
    3       18.519934   0.000000
    4       18.519939   0.000000
    5       21.684375   0.000000
    6       21.684383   0.000000
    7       23.113632   0.000000
    8       26.721482   0.000000
 
 -0.3750000E+00  0.3750000E+00  0.3750000E+00  0.9375000E-01
    1        3.207587   1.000000
    2        5.586867   1.000000
    3       10.191440   0.024686
    4       15.695025   0.000000
    5       18.391556   0.000000
    6       26.606222   0.000000
    7       28.189636   0.000000
    8       29.935130   0.000000
