 vasp.6.2.0 18Jan21 (build Aug 12 2022 13:00:08) complex                        
  
 executed on             LinuxIFC date 2024.11.03  21:52:50
 running on    4 total cores
 distrk:  each k-point on    4 cores,    1 groups
 distr:  one band on NCORE=   1 cores,    4 groups


--------------------------------------------------------------------------------------------------------


 INCAR:
   ISTART = 0            (Read existing wavefunction, if there)
   ISPIN = 1            (Non-Spin polarised DFT)
   LREAL = .FALSE.       (Projection operators: automatic)
   LWAVE = .FALSE.        (Write WAVECAR or not)
   LCHARG = .FALSE.        (Write CHGCAR or not)
   ADDGRID = .TRUE.        (Increase grid, helps GGA convergence)
   LASPH = .TRUE.        (Give more accurate total energies and band structure calculations)
   PREC = Accurate      (Accurate strictly avoids any aliasing or wrap around errors)
   ENCUT = 350          (Cut-off energy for plane wave basis set, in eV)
   ISMEAR = 0            (Gaussian smearing, metals:1)
   SIGMA = 0.05         (Smearing value in eV, metals:0.2)
   NELM = 90           (Max electronic SCF steps)
   NELMIN = 6            (Min electronic SCF steps)
   EDIFF = 1E-06        (SCF energy convergence, in eV)
   NSW = 100          (Max ionic steps)
   IBRION = 2            (Algorithm: 0-MD, 1-Quasi-New, 2-CG)
   ISIF = 3            (Stress/relaxation: 2-Ions, 3-Shape/Ions/V, 4-Shape/Ions)
   EDIFFG = -2E-03        (Ionic convergence, eV/AA)
   ISYM = 2              (Symmetry: 0\=none, 2\=GGA, 3\=hybrids)

 POTCAR:    PAW_PBE Si 05Jan2001                  
 POTCAR:    PAW_PBE Si 05Jan2001                  
   VRHFIN =Si: s2p2                                                                                 
   LEXCH  = PE                                                                                      
   EATOM  =   103.0669 eV,    7.5752 Ry                                                             
                                                                                                    
   TITEL  = PAW_PBE Si 05Jan2001                                                                    
   LULTRA =        F    use ultrasoft PP ?                                                          
   IUNSCR =        1    unscreen: 0-lin 1-nonlin 2-no                                               
   RPACOR =    1.500    partial core radius                                                         
   POMASS =   28.085; ZVAL   =    4.000    mass and valenz                                          
   RCORE  =    1.900    outmost cutoff radius                                                       
   RWIGS  =    2.480; RWIGS  =    1.312    wigner-seitz radius (au A)                               
   ENMAX  =  245.345; ENMIN  =  184.009 eV                                                          
   ICORE  =        2    local potential                                                             
   LCOR   =        T    correct aug charges                                                         
   LPAW   =        T    paw PP                                                                      
   EAUG   =  322.069                                                                                
   DEXC   =    0.000                                                                                
   RMAX   =    1.950    core radius for proj-oper                                                   
   RAUG   =    1.300    factor for augmentation sphere                                              
   RDEP   =    1.993    radius for radial grids                                                     
   RDEPT  =    1.837    core radius for aug-charge                                                  
                                                                                                    
   Atomic configuration                                                                             
    6 entries                                                                                       
     n  l   j            E        occ.                                                              
     1  0  0.50     -1785.8828   2.0000                                                             
     2  0  0.50      -139.4969   2.0000                                                             
     2  1  1.50       -95.5546   6.0000                                                             
     3  0  0.50       -10.8127   2.0000                                                             
     3  1  0.50        -4.0811   2.0000                                                             
     3  2  1.50        -4.0817   0.0000                                                             
   Description                                                                                      
     l       E           TYP  RCUT    TYP  RCUT                                                     
     0    -10.8127223     23  1.900                                                                 
     0     -7.6451159     23  1.900                                                                 
     1     -4.0811372     23  1.900                                                                 
     1      2.4879257     23  1.900                                                                 
     2     -4.0817478      7  1.900                                                                 
  local pseudopotential read in
  partial core-charges read in
  partial kinetic energy density read in
  atomic valenz-charges read in
  non local Contribution for L=           0  read in
    real space projection operators read in
  non local Contribution for L=           0  read in
    real space projection operators read in
  non local Contribution for L=           1  read in
    real space projection operators read in
  non local Contribution for L=           1  read in
    real space projection operators read in
    PAW grid and wavefunctions read in
 
   number of l-projection  operators is LMAX  =           4
   number of lm-projection operators is LMMAX =           8
 
  PAW_PBE Si 05Jan2001                  :
 energy of atom  1       EATOM= -103.0669
 kinetic energy error for atom=    0.0013 (will be added to EATOM!!)
 
 
 POSCAR: Si1
  positions in direct lattice
  No initial velocities read in
 exchange correlation table for  LEXCH =        8
   RHO(1)=    0.500       N(1)  =     2000
   RHO(2)=  100.500       N(2)  =     4000
 


--------------------------------------------------------------------------------------------------------


 ion  position               nearest neighbor table
   1  0.000  0.000  0.000-
 
  LATTYP: Found a face centered cubic cell.
 ALAT       =     3.8332789147
  
  Lattice vectors:
  
 A1 = (   2.3473950000,   0.0000000000,   1.3552680000)
 A2 = (   0.7824650000,   2.2131450000,   1.3552680000)
 A3 = (   0.0000000000,   0.0000000000,   2.7105380000)


Analysis of symmetry for initial positions (statically):
=====================================================================
 Subroutine PRICEL returns:
 Original cell was already a primitive cell.
 

 Routine SETGRP: Setting up the symmetry group for a 
 face centered cubic supercell.


 Subroutine GETGRP returns: Found 48 space group operations
 (whereof 48 operations were pure point group operations)
 out of a pool of 48 trial point group operations.


The static configuration has the point symmetry O_h .


Analysis of symmetry for dynamics (positions and initial velocities):
=====================================================================
 Subroutine PRICEL returns:
 Original cell was already a primitive cell.
 

 Routine SETGRP: Setting up the symmetry group for a 
 face centered cubic supercell.


 Subroutine GETGRP returns: Found 48 space group operations
 (whereof 48 operations were pure point group operations)
 out of a pool of 48 trial point group operations.


The dynamic configuration has the point symmetry O_h .


 Subroutine INISYM returns: Found 48 space group operations
 (whereof 48 operations are pure point group operations),
 and found     1 'primitive' translations


----------------------------------------------------------------------------------------

                                     Primitive cell                                     

  volume of cell :      14.0816

  direct lattice vectors                    reciprocal lattice vectors
     2.347395000  0.000000000  1.355268000     0.426004145 -0.150615226  0.000000000
     0.782465000  2.213145000  1.355268000     0.000000000  0.451845677  0.000000000
     0.000000000  0.000000000  2.710538000    -0.213001915 -0.150615114  0.368930448

  length of vectors
     2.710537703  2.710537515  2.710538000     0.451845635  0.451845677  0.451845554

  position of ions in fractional coordinates (direct lattice)
     0.000000000  0.000000000  0.000000000

  ion indices of the primitive-cell ions
   primitive index   ion index
                 1           1

----------------------------------------------------------------------------------------

 
 
 KPOINTS: Automatic                               

Automatic generation of k-mesh.
 Grid dimensions read from file:
 generate k-points for:    4    4    4

 Generating k-lattice:

  Cartesian coordinates                     Fractional coordinates (reciprocal lattice)
     0.106501036 -0.037653806  0.000000000     0.250000000  0.000000000  0.000000000
     0.000000000  0.112961419  0.000000000     0.000000000  0.250000000  0.000000000
    -0.053250479 -0.037653779  0.092232612    -0.000000000 -0.000000000  0.250000000

  Length of vectors
     0.112961409  0.112961419  0.112961388

  Shift w.r.t. Gamma in fractional coordinates (k-lattice)
     0.500000000  0.500000000  0.500000000

 
 Subroutine IBZKPT returns following result:
 ===========================================
 
 Found     10 irreducible k-points:
 
 Following reciprocal coordinates:
            Coordinates               Weight
  0.125000  0.125000  0.125000      8.000000
  0.375000  0.125000  0.125000     24.000000
 -0.375000  0.125000  0.125000     24.000000
 -0.125000  0.125000  0.125000     24.000000
  0.375000  0.375000  0.125000     24.000000
 -0.375000  0.375000  0.125000     48.000000
 -0.125000  0.375000  0.125000     48.000000
 -0.375000 -0.375000  0.125000     24.000000
  0.375000  0.375000  0.375000      8.000000
 -0.375000  0.375000  0.375000     24.000000
 
 Following cartesian coordinates:
            Coordinates               Weight
  0.026625  0.018827  0.046116      8.000000
  0.133126 -0.018827  0.046116     24.000000
 -0.186377  0.094135  0.046116     24.000000
 -0.079876  0.056481  0.046116     24.000000
  0.133126  0.094135  0.046116     24.000000
 -0.186377  0.207096  0.046116     48.000000
 -0.079876  0.169442  0.046116     48.000000
 -0.186377 -0.131788  0.046116     24.000000
  0.079876  0.056481  0.138349      8.000000
 -0.239627  0.169442  0.138349     24.000000
 


--------------------------------------------------------------------------------------------------------




 Dimension of arrays:
   k-points           NKPTS =     10   k-points in BZ     NKDIM =     10   number of bands    NBANDS=      8
   number of dos      NEDOS =    301   number of ions     NIONS =      1
   non local maximal  LDIM  =      4   non local SUM 2l+1 LMDIM =      8
   total plane-waves  NPLWV =   5832
   max r-space proj   IRMAX =      1   max aug-charges    IRDMAX= 110965
   dimension x,y,z NGX =    18 NGY =   18 NGZ =   18
   dimension x,y,z NGXF=    36 NGYF=   36 NGZF=   36
   support grid    NGXF=    72 NGYF=   72 NGZF=   72
   ions per type =               1
   NGX,Y,Z   is equivalent  to a cutoff of  11.04, 11.04, 11.04 a.u.
   NGXF,Y,Z  is equivalent  to a cutoff of  22.08, 22.08, 22.08 a.u.

 SYSTEM =  unknown system                          
 POSCAR =  Si1                                     

 Startparameter for this run:
   NWRITE =      2    write-flag & timer
   PREC   = accura    normal or accurate (medium, high low for compatibility)
   ISTART =      0    job   : 0-new  1-cont  2-samecut
   ICHARG =      2    charge: 1-file 2-atom 10-const
   ISPIN  =      1    spin polarized calculation?
   LNONCOLLINEAR =      F non collinear calculations
   LSORBIT =      F    spin-orbit coupling
   INIWAV =      1    electr: 0-lowe 1-rand  2-diag
   LASPH  =      T    aspherical Exc in radial PAW
   METAGGA=      F    non-selfconsistent MetaGGA calc.

 Electronic Relaxation 1
   ENCUT  =  350.0 eV  25.72 Ry    5.07 a.u.   4.13  4.13  4.13*2*pi/ulx,y,z
   ENINI  =  350.0     initial cutoff
   ENAUG  =  322.1 eV  augmentation charge cutoff
   NELM   =     90;   NELMIN=  6; NELMDL= -5     # of ELM steps 
   EDIFF  = 0.1E-05   stopping-criterion for ELM
   LREAL  =      F    real-space projection
   NLSPLINE    = F    spline interpolate recip. space projectors
   LCOMPAT=      F    compatible to vasp.4.4
   GGA_COMPAT  = T    GGA compatible to vasp.4.4-vasp.4.6
   LMAXPAW     = -100 max onsite density
   LMAXMIX     =    2 max onsite mixed and CHGCAR
   VOSKOWN=      0    Vosko Wilk Nusair interpolation
   ROPT   =    0.00000
 Ionic relaxation
   EDIFFG = -.2E-02   stopping-criterion for IOM
   NSW    =    100    number of steps for IOM
   NBLOCK =      1;   KBLOCK =    100    inner block; outer block 
   IBRION =      2    ionic relax: 0-MD 1-quasi-New 2-CG
   NFREE  =      1    steps in history (QN), initial steepest desc. (CG)
   ISIF   =      3    stress and relaxation
   IWAVPR =     11    prediction:  0-non 1-charg 2-wave 3-comb
   ISYM   =      2    0-nonsym 1-usesym 2-fastsym
   LCORR  =      T    Harris-Foulkes like correction to forces

   POTIM  = 0.5000    time-step for ionic-motion
   TEIN   =    0.0    initial temperature
   TEBEG  =    0.0;   TEEND  =   0.0 temperature during run
   SMASS  =  -3.00    Nose mass-parameter (am)
   estimated Nose-frequenzy (Omega)   =  0.10E-29 period in steps = 0.13E+47 mass=  -0.168E-27a.u.
   SCALEE = 1.0000    scale energy and forces
   NPACO  =    256;   APACO  = 16.0  distance and # of slots for P.C.
   PSTRESS=    0.0 pullay stress

  Mass of Ions in am
   POMASS =  28.09
  Ionic Valenz
   ZVAL   =   4.00
  Atomic Wigner-Seitz radii
   RWIGS  =  -1.00
  virtual crystal weights 
   VCA    =   1.00
   NELECT =       4.0000    total number of electrons
   NUPDOWN=      -1.0000    fix difference up-down

 DOS related values:
   EMIN   =  10.00;   EMAX   =-10.00  energy-range for DOS
   EFERMI =   0.00
   ISMEAR =     0;   SIGMA  =   0.05  broadening in eV -4-tet -1-fermi 0-gaus

 Electronic relaxation 2 (details)
   IALGO  =     38    algorithm
   LDIAG  =      T    sub-space diagonalisation (order eigenvalues)
   LSUBROT=      F    optimize rotation matrix (better conditioning)
   TURBO    =      0    0=normal 1=particle mesh
   IRESTART =      0    0=no restart 2=restart with 2 vectors
   NREBOOT  =      0    no. of reboots
   NMIN     =      0    reboot dimension
   EREF     =   0.00    reference energy to select bands
   IMIX   =      4    mixing-type and parameters
     AMIX     =   0.40;   BMIX     =  1.00
     AMIX_MAG =   1.60;   BMIX_MAG =  1.00
     AMIN     =   0.10
     WC   =   100.;   INIMIX=   1;  MIXPRE=   1;  MAXMIX= -45

 Intra band minimization:
   WEIMIN = 0.0010     energy-eigenvalue tresh-hold
   EBREAK =  0.31E-07  absolut break condition
   DEPER  =   0.30     relativ break condition  

   TIME   =   0.40     timestep for ELM

  volume/ion in A,a.u.               =      14.08        95.03
  Fermi-wavevector in a.u.,A,eV,Ry     =   1.076162  2.033651 15.757242  1.158125
  Thomas-Fermi vector in A             =   2.212039
 
 Write flags
   LWAVE        =      F    write WAVECAR
   LDOWNSAMPLE  =      F    k-point downsampling of WAVECAR
   LCHARG       =      F    write CHGCAR
   LVTOT        =      F    write LOCPOT, total local potential
   LVHAR        =      F    write LOCPOT, Hartree potential only
   LELF         =      F    write electronic localiz. function (ELF)
   LORBIT       =      0    0 simple, 1 ext, 2 COOP (PROOUT), +10 PAW based schemes


 Dipole corrections
   LMONO  =      F    monopole corrections only (constant potential shift)
   LDIPOL =      F    correct potential (dipole corrections)
   IDIPOL =      0    1-x, 2-y, 3-z, 4-all directions 
   EPSILON=  1.0000000 bulk dielectric constant

 Exchange correlation treatment:
   GGA     =    --    GGA type
   LEXCH   =     8    internal setting for exchange type
   VOSKOWN=      0    Vosko Wilk Nusair interpolation
   LHFCALC =     F    Hartree Fock is set to
   LHFONE  =     F    Hartree Fock one center treatment
   AEXX    =    0.0000 exact exchange contribution

 Linear response parameters
   LEPSILON=     F    determine dielectric tensor
   LRPA    =     F    only Hartree local field effects (RPA)
   LNABLA  =     F    use nabla operator in PAW spheres
   LVEL    =     F    velocity operator in full k-point grid
   LINTERFAST=   F  fast interpolation
   KINTER  =     0    interpolate to denser k-point grid
   CSHIFT  =0.1000    complex shift for real part using Kramers Kronig
   OMEGAMAX=  -1.0    maximum frequency
   DEG_THRESHOLD= 0.2000000E-02 threshold for treating states as degnerate
   RTIME   =   -0.100 relaxation time in fs
  (WPLASMAI=    0.000 imaginary part of plasma frequency in eV, 0.658/RTIME)
   DFIELD  = 0.0000000 0.0000000 0.0000000 field for delta impulse in time
 
 Orbital magnetization related:
   ORBITALMAG=     F  switch on orbital magnetization
   LCHIMAG   =     F  perturbation theory with respect to B field
   DQ        =  0.001000  dq finite difference perturbation B field
   LLRAUG    =     F  two centre corrections for induced B field



--------------------------------------------------------------------------------------------------------


 conjugate gradient relaxation of ions
 charge density and potential will be updated during run
 non-spin polarized calculation
 Variant of blocked Davidson
 Davidson routine will perform the subspace rotation
 perform sub-space diagonalisation
    after iterative eigenvector-optimisation
 modified Broyden-mixing scheme, WC =      100.0
 initial mixing is a Kerker type mixing with AMIX =  0.4000 and BMIX =      1.0000
 Hartree-type preconditioning will be used
 using additional bands            6
 reciprocal scheme for non local part
 use partial core corrections
 calculate Harris-corrections to forces 
   (improved forces if not selfconsistent)
 use gradient corrections 
 use of overlap-Matrix (Vanderbilt PP)
 Gauss-broadening in eV      SIGMA  =   0.05


--------------------------------------------------------------------------------------------------------


  energy-cutoff  :      350.00
  volume of cell :       14.08
      direct lattice vectors                 reciprocal lattice vectors
     2.347395000  0.000000000  1.355268000     0.426004145 -0.150615226  0.000000000
     0.782465000  2.213145000  1.355268000     0.000000000  0.451845677  0.000000000
     0.000000000  0.000000000  2.710538000    -0.213001915 -0.150615114  0.368930448

  length of vectors
     2.710537703  2.710537515  2.710538000     0.451845635  0.451845677  0.451845554


 
 k-points in units of 2pi/SCALE and weight: Automatic                               
   0.02662528  0.01882692  0.04611631       0.031
   0.13312631 -0.01882689  0.04611631       0.094
  -0.18637679  0.09413453  0.04611631       0.094
  -0.07987576  0.05648072  0.04611631       0.094
   0.13312631  0.09413453  0.04611631       0.094
  -0.18637679  0.20709595  0.04611631       0.188
  -0.07987576  0.16944214  0.04611631       0.188
  -0.18637679 -0.13178831  0.04611631       0.094
   0.07987584  0.05648075  0.13834892       0.031
  -0.23962727  0.16944217  0.13834892       0.094
 
 k-points in reciprocal lattice and weights: Automatic                               
   0.12500000  0.12500000  0.12500000       0.031
   0.37500000  0.12500000  0.12500000       0.094
  -0.37500000  0.12500000  0.12500000       0.094
  -0.12500000  0.12500000  0.12500000       0.094
   0.37500000  0.37500000  0.12500000       0.094
  -0.37500000  0.37500000  0.12500000       0.188
  -0.12500000  0.37500000  0.12500000       0.188
  -0.37500000 -0.37500000  0.12500000       0.094
   0.37500000  0.37500000  0.37500000       0.031
  -0.37500000  0.37500000  0.37500000       0.094
 
 position of ions in fractional coordinates (direct lattice) 
   0.00000000  0.00000000  0.00000000
 
 position of ions in cartesian coordinates  (Angst):
   0.00000000  0.00000000  0.00000000
 


--------------------------------------------------------------------------------------------------------


 k-point   1 :   0.1250 0.1250 0.1250  plane waves:     196
 k-point   2 :   0.3750 0.1250 0.1250  plane waves:     208
 k-point   3 :  -0.3750 0.1250 0.1250  plane waves:     213
 k-point   4 :  -0.1250 0.1250 0.1250  plane waves:     207
 k-point   5 :   0.3750 0.3750 0.1250  plane waves:     212
 k-point   6 :  -0.3750 0.3750 0.1250  plane waves:     212
 k-point   7 :  -0.1250 0.3750 0.1250  plane waves:     208
 k-point   8 :  -0.3750-0.3750 0.1250  plane waves:     209
 k-point   9 :   0.3750 0.3750 0.3750  plane waves:     205
 k-point  10 :  -0.3750 0.3750 0.3750  plane waves:     210

 maximum and minimum number of plane-waves per node :       213      196

 maximum number of plane-waves:       213
 maximum index in each direction: 
   IXMAX=    4   IYMAX=    4   IZMAX=    4
   IXMIN=   -4   IYMIN=   -4   IZMIN=   -4


 serial   3D FFT for wavefunctions
 parallel 3D FFT for charge:
    minimum data exchange during FFTs selected (reduces bandwidth)


 total amount of memory used by VASP MPI-rank0    32809. kBytes
=======================================================================

   base      :      30000. kBytes
   nonl-proj :        141. kBytes
   fftplans  :       1775. kBytes
   grid      :        819. kBytes
   one-center:          3. kBytes
   wavefun   :         71. kBytes
 
     INWAV:  cpu time    0.0000: real time    0.0008
 Broyden mixing: mesh for mixing (old mesh)
   NGX =  9   NGY =  9   NGZ =  9
  (NGX  = 36   NGY  = 36   NGZ  = 36)
  gives a total of    729 points

 initial charge density was supplied:
 charge density of overlapping atoms calculated
 number of electron       4.0000000 magnetization 
 keeping initial charge density in first step


--------------------------------------------------------------------------------------------------------


 Maximum index for augmentation-charges        26783 (set IRDMAX)


--------------------------------------------------------------------------------------------------------


 First call to EWALD:  gamma=   0.734
 Maximum number of real-space cells 3x 3x 3
 Maximum number of reciprocal cells 3x 3x 3

    FEWALD:  cpu time    0.0030: real time    0.0036


--------------------------------------- Iteration      1(   1)  ---------------------------------------


    POTLOK:  cpu time    0.0140: real time    0.0173
    SETDIJ:  cpu time    0.1680: real time    0.1677
     EDDAV:  cpu time    0.0500: real time    0.0506
       DOS:  cpu time    0.0010: real time    0.0008
    --------------------------------------------
      LOOP:  cpu time    0.2330: real time    0.2366

 eigenvalue-minimisations  :   176
 total energy-change (2. order) :-0.2930733E+01  (-0.1698323E+03)
 number of electron       4.0000000 magnetization 
 augmentation part        4.0000000 magnetization 

 Free energy of the ion-electron system (eV)
  ---------------------------------------------------
  alpha Z        PSCENC =         2.39057823
  Ewald energy   TEWEN  =      -137.78496289
  -Hartree energ DENC   =        -0.54229904
  -exchange      EXHF   =         0.00000000
  -V(xc)+E(xc)   XCENC  =        -8.73348015
  PAW double counting   =        88.12379961      -70.53051779
  entropy T*S    EENTRO =        -0.00485198
  eigenvalues    EBANDS =        21.08537403
  atomic energy  EATOM  =       103.06562707
  Solvation  Ediel_sol  =         0.00000000
  ---------------------------------------------------
  free energy    TOTEN  =        -2.93073291 eV

  energy without entropy =       -2.92588093  energy(sigma->0) =       -2.92830692


--------------------------------------------------------------------------------------------------------




--------------------------------------- Iteration      1(   2)  ---------------------------------------


     EDDAV:  cpu time    0.0670: real time    0.0777
       DOS:  cpu time    0.0000: real time    0.0006
    --------------------------------------------
      LOOP:  cpu time    0.0670: real time    0.0783

 eigenvalue-minimisations  :   240
 total energy-change (2. order) :-0.1895517E+01  (-0.1741880E+01)
 number of electron       4.0000000 magnetization 
 augmentation part        4.0000000 magnetization 

 Free energy of the ion-electron system (eV)
  ---------------------------------------------------
  alpha Z        PSCENC =         2.39057823
  Ewald energy   TEWEN  =      -137.78496289
  -Hartree energ DENC   =        -0.54229904
  -exchange      EXHF   =         0.00000000
  -V(xc)+E(xc)   XCENC  =        -8.73348015
  PAW double counting   =        88.12379961      -70.53051779
  entropy T*S    EENTRO =        -0.00480628
  eigenvalues    EBANDS =        19.18981115
  atomic energy  EATOM  =       103.06562707
  Solvation  Ediel_sol  =         0.00000000
  ---------------------------------------------------
  free energy    TOTEN  =        -4.82625009 eV

  energy without entropy =       -4.82144381  energy(sigma->0) =       -4.82384695


--------------------------------------------------------------------------------------------------------




--------------------------------------- Iteration      1(   3)  ---------------------------------------


     EDDAV:  cpu time    0.0830: real time    0.0942
       DOS:  cpu time    0.0010: real time    0.0010
    --------------------------------------------
      LOOP:  cpu time    0.0840: real time    0.0954

 eigenvalue-minimisations  :   184
 total energy-change (2. order) :-0.8554060E-02  (-0.8543992E-02)
 number of electron       4.0000000 magnetization 
 augmentation part        4.0000000 magnetization 

 Free energy of the ion-electron system (eV)
  ---------------------------------------------------
  alpha Z        PSCENC =         2.39057823
  Ewald energy   TEWEN  =      -137.78496289
  -Hartree energ DENC   =        -0.54229904
  -exchange      EXHF   =         0.00000000
  -V(xc)+E(xc)   XCENC  =        -8.73348015
  PAW double counting   =        88.12379961      -70.53051779
  entropy T*S    EENTRO =        -0.00476711
  eigenvalues    EBANDS =        19.18121793
  atomic energy  EATOM  =       103.06562707
  Solvation  Ediel_sol  =         0.00000000
  ---------------------------------------------------
  free energy    TOTEN  =        -4.83480415 eV

  energy without entropy =       -4.83003703  energy(sigma->0) =       -4.83242059


--------------------------------------------------------------------------------------------------------




--------------------------------------- Iteration      1(   4)  ---------------------------------------


     EDDAV:  cpu time    0.1240: real time    0.1320
       DOS:  cpu time    0.0020: real time    0.0011
    --------------------------------------------
      LOOP:  cpu time    0.1260: real time    0.1330

 eigenvalue-minimisations  :   264
 total energy-change (2. order) :-0.6160108E-05  (-0.6161020E-05)
 number of electron       4.0000000 magnetization 
 augmentation part        4.0000000 magnetization 

 Free energy of the ion-electron system (eV)
  ---------------------------------------------------
  alpha Z        PSCENC =         2.39057823
  Ewald energy   TEWEN  =      -137.78496289
  -Hartree energ DENC   =        -0.54229904
  -exchange      EXHF   =         0.00000000
  -V(xc)+E(xc)   XCENC  =        -8.73348015
  PAW double counting   =        88.12379961      -70.53051779
  entropy T*S    EENTRO =        -0.00476711
  eigenvalues    EBANDS =        19.18121176
  atomic energy  EATOM  =       103.06562707
  Solvation  Ediel_sol  =         0.00000000
  ---------------------------------------------------
  free energy    TOTEN  =        -4.83481031 eV

  energy without entropy =       -4.83004319  energy(sigma->0) =       -4.83242675


--------------------------------------------------------------------------------------------------------




--------------------------------------- Iteration      1(   5)  ---------------------------------------


     EDDAV:  cpu time    0.0810: real time    0.0899
       DOS:  cpu time    0.0010: real time    0.0009
    CHARGE:  cpu time    0.0190: real time    0.0197
    MIXING:  cpu time    0.0010: real time    0.0012
    --------------------------------------------
      LOOP:  cpu time    0.1030: real time    0.1116

 eigenvalue-minimisations  :   168
 total energy-change (2. order) :-0.2024862E-08  (-0.6487327E-09)
 number of electron       4.0000000 magnetization 
 augmentation part       -0.2403952 magnetization 

 Broyden mixing:
  rms(total) = 0.27945E+00    rms(broyden)= 0.27945E+00
  rms(prec ) = 0.41565E+00
  weight for this iteration     100.00

 Free energy of the ion-electron system (eV)
  ---------------------------------------------------
  alpha Z        PSCENC =         2.39057823
  Ewald energy   TEWEN  =      -137.78496289
  -Hartree energ DENC   =        -0.54229904
  -exchange      EXHF   =         0.00000000
  -V(xc)+E(xc)   XCENC  =        -8.73348015
  PAW double counting   =        88.12379961      -70.53051779
  entropy T*S    EENTRO =        -0.00476711
  eigenvalues    EBANDS =        19.18121176
  atomic energy  EATOM  =       103.06562707
  Solvation  Ediel_sol  =         0.00000000
  ---------------------------------------------------
  free energy    TOTEN  =        -4.83481031 eV

  energy without entropy =       -4.83004320  energy(sigma->0) =       -4.83242675


--------------------------------------------------------------------------------------------------------




--------------------------------------- Iteration      1(   6)  ---------------------------------------


    POTLOK:  cpu time    0.0210: real time    0.0276
    SETDIJ:  cpu time    0.1670: real time    0.1684
     EDDAV:  cpu time    0.0560: real time    0.0564
       DOS:  cpu time    0.0010: real time    0.0006
    CHARGE:  cpu time    0.0130: real time    0.0131
    MIXING:  cpu time    0.0010: real time    0.0008
    --------------------------------------------
      LOOP:  cpu time    0.2580: real time    0.2668

 eigenvalue-minimisations  :   192
 total energy-change (2. order) : 0.1335214E-01  (-0.3878142E-03)
 number of electron       4.0000000 magnetization 
 augmentation part       -0.2425973 magnetization 

 Broyden mixing:
  rms(total) = 0.15454E+00    rms(broyden)= 0.15454E+00
  rms(prec ) = 0.24035E+00
  weight for this iteration     100.00

 eigenvalues of (default mixing * dielectric matrix)
  average eigenvalue GAMMA=   2.2268
  2.2268

 Free energy of the ion-electron system (eV)
  ---------------------------------------------------
  alpha Z        PSCENC =         2.39057823
  Ewald energy   TEWEN  =      -137.78496289
  -Hartree energ DENC   =        -0.47485758
  -exchange      EXHF   =         0.00000000
  -V(xc)+E(xc)   XCENC  =        -8.71159432
  PAW double counting   =       171.95071667     -154.35792427
  entropy T*S    EENTRO =        -0.00479327
  eigenvalues    EBANDS =        19.10575218
  atomic energy  EATOM  =       103.06562707
  Solvation  Ediel_sol  =         0.00000000
  ---------------------------------------------------
  free energy    TOTEN  =        -4.82145817 eV

  energy without entropy =       -4.81666490  energy(sigma->0) =       -4.81906154


--------------------------------------------------------------------------------------------------------




--------------------------------------- Iteration      1(   7)  ---------------------------------------


    POTLOK:  cpu time    0.0150: real time    0.0250
    SETDIJ:  cpu time    0.1660: real time    0.1660
     EDDAV:  cpu time    0.0510: real time    0.0515
       DOS:  cpu time    0.0010: real time    0.0006
    CHARGE:  cpu time    0.0120: real time    0.0129
    MIXING:  cpu time    0.0010: real time    0.0009
    --------------------------------------------
      LOOP:  cpu time    0.2470: real time    0.2569

 eigenvalue-minimisations  :   184
 total energy-change (2. order) : 0.7682260E-02  (-0.7860849E-03)
 number of electron       4.0000000 magnetization 
 augmentation part       -0.2457910 magnetization 

 Broyden mixing:
  rms(total) = 0.13330E-01    rms(broyden)= 0.13330E-01
  rms(prec ) = 0.17949E-01
  weight for this iteration     100.00

 eigenvalues of (default mixing * dielectric matrix)
  average eigenvalue GAMMA=   2.4058
  2.4058  2.4058

 Free energy of the ion-electron system (eV)
  ---------------------------------------------------
  alpha Z        PSCENC =         2.39057823
  Ewald energy   TEWEN  =      -137.78496289
  -Hartree energ DENC   =        -0.40832096
  -exchange      EXHF   =         0.00000000
  -V(xc)+E(xc)   XCENC  =        -8.67535405
  PAW double counting   =       333.05044430     -315.46249954
  entropy T*S    EENTRO =        -0.00482440
  eigenvalues    EBANDS =        19.01553633
  atomic energy  EATOM  =       103.06562707
  Solvation  Ediel_sol  =         0.00000000
  ---------------------------------------------------
  free energy    TOTEN  =        -4.81377591 eV

  energy without entropy =       -4.80895151  energy(sigma->0) =       -4.81136371


--------------------------------------------------------------------------------------------------------




--------------------------------------- Iteration      1(   8)  ---------------------------------------


    POTLOK:  cpu time    0.0160: real time    0.0241
    SETDIJ:  cpu time    0.1660: real time    0.1661
     EDDAV:  cpu time    0.0700: real time    0.0708
       DOS:  cpu time    0.0000: real time    0.0010
    CHARGE:  cpu time    0.0130: real time    0.0145
    MIXING:  cpu time    0.0010: real time    0.0009
    --------------------------------------------
      LOOP:  cpu time    0.2660: real time    0.2775

 eigenvalue-minimisations  :   240
 total energy-change (2. order) : 0.3730721E-04  (-0.2677940E-05)
 number of electron       4.0000000 magnetization 
 augmentation part       -0.2458764 magnetization 

 Broyden mixing:
  rms(total) = 0.13754E-02    rms(broyden)= 0.13754E-02
  rms(prec ) = 0.22071E-02
  weight for this iteration     100.00

 eigenvalues of (default mixing * dielectric matrix)
  average eigenvalue GAMMA=   2.0177
  1.0272  2.4263  2.5995

 Free energy of the ion-electron system (eV)
  ---------------------------------------------------
  alpha Z        PSCENC =         2.39057823
  Ewald energy   TEWEN  =      -137.78496289
  -Hartree energ DENC   =        -0.41088351
  -exchange      EXHF   =         0.00000000
  -V(xc)+E(xc)   XCENC  =        -8.67132791
  PAW double counting   =       318.39219059     -300.81080777
  entropy T*S    EENTRO =        -0.00482512
  eigenvalues    EBANDS =        19.02067269
  atomic energy  EATOM  =       103.06562707
  Solvation  Ediel_sol  =         0.00000000
  ---------------------------------------------------
  free energy    TOTEN  =        -4.81373860 eV

  energy without entropy =       -4.80891349  energy(sigma->0) =       -4.81132605


--------------------------------------------------------------------------------------------------------




--------------------------------------- Iteration      1(   9)  ---------------------------------------


    POTLOK:  cpu time    0.0160: real time    0.0298
    SETDIJ:  cpu time    0.1720: real time    0.1718
     EDDAV:  cpu time    0.0600: real time    0.0600
       DOS:  cpu time    0.0000: real time    0.0009
    --------------------------------------------
      LOOP:  cpu time    0.2480: real time    0.2624

 eigenvalue-minimisations  :   192
 total energy-change (2. order) :-0.3201830E-06  (-0.3150087E-07)
 number of electron       4.0000000 magnetization 
 augmentation part       -0.2458764 magnetization 

 Free energy of the ion-electron system (eV)
  ---------------------------------------------------
  alpha Z        PSCENC =         2.39057823
  Ewald energy   TEWEN  =      -137.78496289
  -Hartree energ DENC   =        -0.41109040
  -exchange      EXHF   =         0.00000000
  -V(xc)+E(xc)   XCENC  =        -8.67076696
  PAW double counting   =       316.70042633     -299.11970427
  entropy T*S    EENTRO =        -0.00482528
  eigenvalues    EBANDS =        19.02097925
  atomic energy  EATOM  =       103.06562707
  Solvation  Ediel_sol  =         0.00000000
  ---------------------------------------------------
  free energy    TOTEN  =        -4.81373892 eV

  energy without entropy =       -4.80891364  energy(sigma->0) =       -4.81132628


--------------------------------------------------------------------------------------------------------




 average (electrostatic) potential at core
  the test charge radii are     0.9892
  (the norm of the test charge is              1.0000)
       1 -79.5396
 
 
 
 E-fermi :  10.5785     XC(G=0): -11.3052     alpha+bet :-17.0325

 Fermi energy:        10.5785199133

 k-point     1 :       0.1250    0.1250    0.1250
  band No.  band energies     occupation 
      1      -3.7109      2.00000
      2      17.1871      0.00000
      3      20.5577      0.00000
      4      20.5577      0.00000
      5      24.0434      0.00000
      6      24.5213      0.00000
      7      24.5213      0.00000
      8      28.0011      0.00000

 k-point     2 :       0.3750    0.1250    0.1250
  band No.  band energies     occupation 
      1      -1.2583      2.00000
      2      10.5657      1.28288
      3      15.1008      0.00000
      4      20.1946      0.00000
      5      23.2803      0.00000
      6      23.5311      0.00000
      7      25.7799      0.00000
      8      27.5996      0.00000

 k-point     3 :      -0.3750    0.1250    0.1250
  band No.  band energies     occupation 
      1       2.3458      2.00000
      2       4.7884      2.00000
      3      16.1313      0.00000
      4      17.3822      0.00000
      5      20.0441      0.00000
      6      24.2339      0.00000
      7      26.5680      0.00000
      8      29.9496      0.00000

 k-point     4 :      -0.1250    0.1250    0.1250
  band No.  band energies     occupation 
      1      -2.4805      2.00000
      2      13.9252      0.00000
      3      17.4266      0.00000
      4      19.1891      0.00000
      5      20.8733      0.00000
      6      23.5856      0.00000
      7      27.6077      0.00000
      8      27.6547      0.00000

 k-point     5 :       0.3750    0.3750    0.1250
  band No.  band energies     occupation 
      1      -0.0421      2.00000
      2      11.6575      0.00000
      3      14.0311      0.00000
      4      15.2872      0.00000
      5      17.7053      0.00000
      6      21.3974      0.00000
      7      30.1425      0.00000
      8      32.0780      0.00000

 k-point     6 :      -0.3750    0.3750    0.1250
  band No.  band energies     occupation 
      1       4.7137      2.00000
      2       7.0860      2.00000
      3       9.5354      2.00000
      4      11.8621      0.00000
      5      21.1352      0.00000
      6      25.2743      0.00000
      7      27.8438      0.00000
      8      31.4869      0.00000

 k-point     7 :      -0.1250    0.3750    0.1250
  band No.  band energies     occupation 
      1       1.1634      2.00000
      2       8.2584      2.00000
      3      12.8983      0.00000
      4      15.1960      0.00000
      5      22.1046      0.00000
      6      24.3528      0.00000
      7      26.5989      0.00000
      8      30.7532      0.00000

 k-point     8 :      -0.3750   -0.3750    0.1250
  band No.  band energies     occupation 
      1       3.5417      2.00000
      2       8.3496      2.00000
      3      10.5609      1.38257
      4      14.2109      0.00000
      5      16.5055      0.00000
      6      20.3411      0.00000
      7      33.1184      0.00000
      8      35.1992      0.00000

 k-point     9 :       0.3750    0.3750    0.3750
  band No.  band energies     occupation 
      1      -0.0457      2.00000
      2       7.1243      2.00000
      3      19.2849      0.00000
      4      19.2849      0.00000
      5      22.3166      0.00000
      6      22.3166      0.00000
      7      23.9413      0.00000
      8      27.4492      0.00000

 k-point    10 :      -0.3750    0.3750    0.3750
  band No.  band energies     occupation 
      1       3.5423      2.00000
      2       5.9373      2.00000
      3      10.6929      0.00122
      4      16.3366      0.00000
      5      19.0039      0.00000
      6      27.4123      0.00000
      7      29.1087      0.00000
      8      30.8514      0.00000


--------------------------------------------------------------------------------------------------------


 soft charge-density along one line, spin component           1
         0         1         2         3         4         5         6         7         8         9
 total charge-density along one line
 
 pseudopotential strength for first ion, spin component:           1
 17.926  25.007   0.000   0.000   0.000   0.000   0.000   0.000
 25.007  34.890   0.000   0.000   0.000   0.000   0.000   0.000
  0.000   0.000   4.090  -0.000  -0.000   7.619  -0.000  -0.000
  0.000   0.000  -0.000   4.090  -0.000  -0.000   7.619  -0.000
  0.000   0.000  -0.000  -0.000   4.090  -0.000  -0.000   7.619
  0.000   0.000   7.619  -0.000  -0.000  14.204  -0.000  -0.000
  0.000   0.000  -0.000   7.619  -0.000  -0.000  14.204  -0.000
  0.000   0.000  -0.000  -0.000   7.619  -0.000  -0.000  14.204
 total augmentation occupancy for first ion, spin component:           1
  5.063  -2.161   0.000   0.000   0.000   0.000   0.000   0.000
 -2.161   1.388   0.000   0.000   0.000   0.000   0.000   0.000
  0.000   0.000   2.394  -0.000  -0.000  -0.577   0.000   0.000
  0.000   0.000  -0.000   2.394  -0.000   0.000  -0.577   0.000
  0.000   0.000  -0.000  -0.000   2.394   0.000   0.000  -0.577
  0.000   0.000  -0.577   0.000   0.000   0.153  -0.000  -0.000
  0.000   0.000   0.000  -0.577   0.000  -0.000   0.153  -0.000
  0.000   0.000   0.000   0.000  -0.577  -0.000  -0.000   0.153


------------------------ aborting loop because EDIFF is reached ----------------------------------------


    CHARGE:  cpu time    0.0140: real time    0.0148
    FORLOC:  cpu time    0.0000: real time    0.0006
    FORNL :  cpu time    0.0520: real time    0.0523
    STRESS:  cpu time    0.1890: real time    0.1891
    FORCOR:  cpu time    0.0140: real time    0.0139
    FORHAR:  cpu time    0.0030: real time    0.0027
    MIXING:  cpu time    0.0000: real time    0.0006
    OFIELD:  cpu time    0.0000: real time    0.0002

  FORCE on cell =-STRESS in cart. coord.  units (eV):
  Direction    XX          YY          ZZ          XY          YZ          ZX
  --------------------------------------------------------------------------------------
  Alpha Z     2.39058     2.39058     2.39058
  Ewald     -45.92833   -45.92832   -45.92832     0.00000     0.00001     0.00001
  Hartree     0.13701     0.13701     0.13701     0.00000     0.00000     0.00000
  E(xc)     -12.78503   -12.78503   -12.78503    -0.00000    -0.00000    -0.00000
  Local      -4.75487    -4.75487    -4.75486     0.00000     0.00000     0.00001
  n-local    37.19710    38.24247    39.77607    -0.92221     0.05239    -0.22120
  augment    -6.26173    -6.26173    -6.26174    -0.00000    -0.00000    -0.00000
  Kinetic    38.32448    33.83142    15.01167     4.98651     2.79715     1.13627
  Fock        0.00000     0.00000     0.00000     0.00000     0.00000     0.00000
  -------------------------------------------------------------------------------------
  Total       0.25871     0.25871     0.25871    -0.00000    -0.00000    -0.00000
  in kB      29.43544    29.43543    29.43544    -0.00000    -0.00001    -0.00001
  external pressure =       29.44 kB  Pullay stress =        0.00 kB


 VOLUME and BASIS-vectors are now :
 -----------------------------------------------------------------------------
  energy-cutoff  :      350.00
  volume of cell :       14.08
      direct lattice vectors                 reciprocal lattice vectors
     2.347395000  0.000000000  1.355268000     0.426004145 -0.150615226  0.000000000
     0.782465000  2.213145000  1.355268000     0.000000000  0.451845677  0.000000000
     0.000000000  0.000000000  2.710538000    -0.213001915 -0.150615114  0.368930448

  length of vectors
     2.710537703  2.710537515  2.710538000     0.451845635  0.451845677  0.451845554


 FORCES acting on ions
    electron-ion (+dipol)            ewald-force                    non-local-force                 convergence-correction
 -----------------------------------------------------------------------------------------------
   0.102E-15 0.625E-15 0.224E-15   0.159E-15 -.845E-16 -.358E-16   -.207E-23 0.000E+00 -.331E-23   -.739E-17 -.674E-18 -.503E-17
 -----------------------------------------------------------------------------------------------
   0.102E-15 0.625E-15 0.224E-15   0.159E-15 -.845E-16 -.358E-16   -.207E-23 0.000E+00 -.331E-23   -.739E-17 -.674E-18 -.503E-17
 
 
 POSITION                                       TOTAL-FORCE (eV/Angst)
 -----------------------------------------------------------------------------------
      0.00000      0.00000      0.00000        -0.000000      0.000000      0.000000
 -----------------------------------------------------------------------------------
    total drift:                                0.000000      0.000000      0.000000


--------------------------------------------------------------------------------------------------------



  FREE ENERGIE OF THE ION-ELECTRON SYSTEM (eV)
  ---------------------------------------------------
  free  energy   TOTEN  =        -4.81373892 eV

  energy  without entropy=       -4.80891364  energy(sigma->0) =       -4.81132628
 


--------------------------------------------------------------------------------------------------------


    POTLOK:  cpu time    0.1810: real time    0.1901


--------------------------------------------------------------------------------------------------------




--------------------------------------------------------------------------------------------------------


    WAVPRE:  cpu time    0.0050: real time    0.0123
    FEWALD:  cpu time    0.0000: real time    0.0003
    GENKIN:  cpu time    0.0030: real time    0.0029
    ORTHCH:  cpu time    0.0020: real time    0.0016
     LOOP+:  cpu time    2.2707: real time    2.4016


--------------------------------------- Iteration      2(   1)  ---------------------------------------


    POTLOK:  cpu time    0.0130: real time    0.0171
    SETDIJ:  cpu time    0.1670: real time    0.1662
     EDDAV:  cpu time    0.0520: real time    0.0535
       DOS:  cpu time    0.0010: real time    0.0006
    CHARGE:  cpu time    0.0130: real time    0.0131
    MIXING:  cpu time    0.0000: real time    0.0007
    --------------------------------------------
      LOOP:  cpu time    0.2470: real time    0.2514

 eigenvalue-minimisations  :   184
 total energy-change (2. order) :-0.7142345E-02  (-0.1535610E-01)
 number of electron       4.0000000 magnetization 
 augmentation part       -0.2495564 magnetization 

 Broyden mixing:
  rms(total) = 0.37008E-01    rms(broyden)= 0.37007E-01
  rms(prec ) = 0.11088E+00
  weight for this iteration     100.00

 Free energy of the ion-electron system (eV)
  ---------------------------------------------------
  alpha Z        PSCENC =         2.30325787
  Ewald energy   TEWEN  =      -136.08649372
  -Hartree energ DENC   =        -0.40596543
  -exchange      EXHF   =         0.00000000
  -V(xc)+E(xc)   XCENC  =        -8.76776226
  PAW double counting   =       316.69444047     -299.11344492
  entropy T*S    EENTRO =        -0.00519957
  eigenvalues    EBANDS =        17.49465954
  atomic energy  EATOM  =       103.06562707
  Solvation  Ediel_sol  =         0.00000000
  ---------------------------------------------------
  free energy    TOTEN  =        -4.82088095 eV

  energy without entropy =       -4.81568138  energy(sigma->0) =       -4.81828116


--------------------------------------------------------------------------------------------------------




--------------------------------------- Iteration      2(   2)  ---------------------------------------


    POTLOK:  cpu time    0.0160: real time    0.0265
    SETDIJ:  cpu time    0.1650: real time    0.1654
     EDDAV:  cpu time    0.0840: real time    0.0849
       DOS:  cpu time    0.0010: real time    0.0006
    CHARGE:  cpu time    0.0160: real time    0.0165
    MIXING:  cpu time    0.0010: real time    0.0008
    --------------------------------------------
      LOOP:  cpu time    0.2820: real time    0.2949

 eigenvalue-minimisations  :   232
 total energy-change (2. order) : 0.1690113E-02  (-0.8516224E-04)
 number of electron       4.0000000 magnetization 
 augmentation part       -0.2490529 magnetization 

 Broyden mixing:
  rms(total) = 0.20508E-01    rms(broyden)= 0.20508E-01
  rms(prec ) = 0.65119E-01
  weight for this iteration     100.00

 eigenvalues of (default mixing * dielectric matrix)
  average eigenvalue GAMMA=   2.1993
  2.1993

 Free energy of the ion-electron system (eV)
  ---------------------------------------------------
  alpha Z        PSCENC =         2.30325787
  Ewald energy   TEWEN  =      -136.08649372
  -Hartree energ DENC   =        -0.43013757
  -exchange      EXHF   =         0.00000000
  -V(xc)+E(xc)   XCENC  =        -8.77231742
  PAW double counting   =       302.56768905     -284.98602059
  entropy T*S    EENTRO =        -0.00517790
  eigenvalues    EBANDS =        17.52438237
  atomic energy  EATOM  =       103.06562707
  Solvation  Ediel_sol  =         0.00000000
  ---------------------------------------------------
  free energy    TOTEN  =        -4.81919084 eV

  energy without entropy =       -4.81401293  energy(sigma->0) =       -4.81660188


--------------------------------------------------------------------------------------------------------




--------------------------------------- Iteration      2(   3)  ---------------------------------------


    POTLOK:  cpu time    0.0180: real time    0.0293
    SETDIJ:  cpu time    0.1670: real time    0.1665
     EDDAV:  cpu time    0.0520: real time    0.0520
       DOS:  cpu time    0.0010: real time    0.0006
    CHARGE:  cpu time    0.0110: real time    0.0129
    MIXING:  cpu time    0.0010: real time    0.0009
    --------------------------------------------
      LOOP:  cpu time    0.2510: real time    0.2620

 eigenvalue-minimisations  :   184
 total energy-change (2. order) : 0.9785202E-03  (-0.1134992E-03)
 number of electron       4.0000000 magnetization 
 augmentation part       -0.2478114 magnetization 

 Broyden mixing:
  rms(total) = 0.61582E-02    rms(broyden)= 0.61582E-02
  rms(prec ) = 0.62459E-02
  weight for this iteration     100.00

 eigenvalues of (default mixing * dielectric matrix)
  average eigenvalue GAMMA=   1.2840
  2.1270  0.4410

 Free energy of the ion-electron system (eV)
  ---------------------------------------------------
  alpha Z        PSCENC =         2.30325787
  Ewald energy   TEWEN  =      -136.08649372
  -Hartree energ DENC   =        -0.46681776
  -exchange      EXHF   =         0.00000000
  -V(xc)+E(xc)   XCENC  =        -8.77966007
  PAW double counting   =       284.52674681     -266.94225116
  entropy T*S    EENTRO =        -0.00514846
  eigenvalues    EBANDS =        17.56652710
  atomic energy  EATOM  =       103.06562707
  Solvation  Ediel_sol  =         0.00000000
  ---------------------------------------------------
  free energy    TOTEN  =        -4.81821232 eV

  energy without entropy =       -4.81306386  energy(sigma->0) =       -4.81563809


--------------------------------------------------------------------------------------------------------




--------------------------------------- Iteration      2(   4)  ---------------------------------------


    POTLOK:  cpu time    0.0180: real time    0.0243
    SETDIJ:  cpu time    0.1650: real time    0.1652
     EDDAV:  cpu time    0.0710: real time    0.0710
       DOS:  cpu time    0.0000: real time    0.0007
    CHARGE:  cpu time    0.0120: real time    0.0129
    MIXING:  cpu time    0.0010: real time    0.0009
    --------------------------------------------
      LOOP:  cpu time    0.2670: real time    0.2750

 eigenvalue-minimisations  :   248
 total energy-change (2. order) : 0.1698117E-05  (-0.1802319E-06)
 number of electron       4.0000000 magnetization 
 augmentation part       -0.2478137 magnetization 

 Broyden mixing:
  rms(total) = 0.49376E-02    rms(broyden)= 0.49376E-02
  rms(prec ) = 0.50514E-02
  weight for this iteration     100.00

 eigenvalues of (default mixing * dielectric matrix)
  average eigenvalue GAMMA=   2.1279
  0.9718  3.0208  2.3912

 Free energy of the ion-electron system (eV)
  ---------------------------------------------------
  alpha Z        PSCENC =         2.30325787
  Ewald energy   TEWEN  =      -136.08649372
  -Hartree energ DENC   =        -0.46669183
  -exchange      EXHF   =         0.00000000
  -V(xc)+E(xc)   XCENC  =        -8.77976661
  PAW double counting   =       286.17407971     -268.58904356
  entropy T*S    EENTRO =        -0.00514861
  eigenvalues    EBANDS =        17.56596907
  atomic energy  EATOM  =       103.06562707
  Solvation  Ediel_sol  =         0.00000000
  ---------------------------------------------------
  free energy    TOTEN  =        -4.81821062 eV

  energy without entropy =       -4.81306200  energy(sigma->0) =       -4.81563631


--------------------------------------------------------------------------------------------------------




--------------------------------------- Iteration      2(   5)  ---------------------------------------


    POTLOK:  cpu time    0.0180: real time    0.0252
    SETDIJ:  cpu time    0.1660: real time    0.1654
     EDDAV:  cpu time    0.0390: real time    0.0396
       DOS:  cpu time    0.0010: real time    0.0006
    CHARGE:  cpu time    0.0130: real time    0.0129
    MIXING:  cpu time    0.0010: real time    0.0009
    --------------------------------------------
      LOOP:  cpu time    0.2370: real time    0.2446

 eigenvalue-minimisations  :   120
 total energy-change (2. order) : 0.5115669E-05  (-0.3516573E-07)
 number of electron       4.0000000 magnetization 
 augmentation part       -0.2478045 magnetization 

 Broyden mixing:
  rms(total) = 0.59519E-03    rms(broyden)= 0.59518E-03
  rms(prec ) = 0.60325E-03
  weight for this iteration     100.00

 eigenvalues of (default mixing * dielectric matrix)
  average eigenvalue GAMMA=   1.6920
  2.6626  2.3485  1.0068  0.7502

 Free energy of the ion-electron system (eV)
  ---------------------------------------------------
  alpha Z        PSCENC =         2.30325787
  Ewald energy   TEWEN  =      -136.08649372
  -Hartree energ DENC   =        -0.46702299
  -exchange      EXHF   =         0.00000000
  -V(xc)+E(xc)   XCENC  =        -8.78035289
  PAW double counting   =       293.19168768     -275.60440095
  entropy T*S    EENTRO =        -0.00514857
  eigenvalues    EBANDS =        17.56464100
  atomic energy  EATOM  =       103.06562707
  Solvation  Ediel_sol  =         0.00000000
  ---------------------------------------------------
  free energy    TOTEN  =        -4.81820550 eV

  energy without entropy =       -4.81305693  energy(sigma->0) =       -4.81563122


--------------------------------------------------------------------------------------------------------




--------------------------------------- Iteration      2(   6)  ---------------------------------------


    POTLOK:  cpu time    0.0150: real time    0.0236
    SETDIJ:  cpu time    0.1650: real time    0.1656
     EDDAV:  cpu time    0.0290: real time    0.0286
       DOS:  cpu time    0.0000: real time    0.0007
    --------------------------------------------
      LOOP:  cpu time    0.2090: real time    0.2184

 eigenvalue-minimisations  :    80
 total energy-change (2. order) :-0.2107997E-06  (-0.8349470E-09)
 number of electron       4.0000000 magnetization 
 augmentation part       -0.2478045 magnetization 

 Free energy of the ion-electron system (eV)
  ---------------------------------------------------
  alpha Z        PSCENC =         2.30325787
  Ewald energy   TEWEN  =      -136.08649372
  -Hartree energ DENC   =        -0.46701439
  -exchange      EXHF   =         0.00000000
  -V(xc)+E(xc)   XCENC  =        -8.78030871
  PAW double counting   =       292.53381365     -274.94672491
  entropy T*S    EENTRO =        -0.00514856
  eigenvalues    EBANDS =        17.56478599
  atomic energy  EATOM  =       103.06562707
  Solvation  Ediel_sol  =         0.00000000
  ---------------------------------------------------
  free energy    TOTEN  =        -4.81820571 eV

  energy without entropy =       -4.81305716  energy(sigma->0) =       -4.81563143


--------------------------------------------------------------------------------------------------------




 average (electrostatic) potential at core
  the test charge radii are     0.9892
  (the norm of the test charge is              1.0000)
       1 -80.0409
 
 
 
 E-fermi :  10.1007     XC(G=0): -11.1539     alpha+bet :-16.4104

 Fermi energy:        10.1007209572

 k-point     1 :       0.1250    0.1250    0.1250
  band No.  band energies     occupation 
      1      -3.8704      2.00000
      2      16.5274      0.00000
      3      19.7645      0.00000
      4      19.7645      0.00000
      5      23.2167      0.00000
      6      23.7044      0.00000
      7      23.7044      0.00000
      8      27.2204      0.00000

 k-point     2 :       0.3750    0.1250    0.1250
  band No.  band energies     occupation 
      1      -1.4793      2.00000
      2      10.0767      1.50276
      3      14.4657      0.00000
      4      19.3598      0.00000
      5      22.5339      0.00000
      6      22.8475      0.00000
      7      24.8921      0.00000
      8      26.7774      0.00000

 k-point     3 :      -0.3750    0.1250    0.1250
  band No.  band energies     occupation 
      1       2.0243      2.00000
      2       4.4463      2.00000
      3      15.4467      0.00000
      4      16.6767      0.00000
      5      19.4074      0.00000
      6      23.4789      0.00000
      7      25.6119      0.00000
      8      29.1476      0.00000

 k-point     4 :      -0.1250    0.1250    0.1250
  band No.  band energies     occupation 
      1      -2.6708      2.00000
      2      13.3518      0.00000
      3      16.7344      0.00000
      4      18.3806      0.00000
      5      20.2228      0.00000
      6      22.8397      0.00000
      7      26.7072      0.00000
      8      26.7704      0.00000

 k-point     5 :       0.3750    0.3750    0.1250
  band No.  band energies     occupation 
      1      -0.2925      2.00000
      2      11.1321      0.00000
      3      13.4110      0.00000
      4      14.6475      0.00000
      5      17.1362      0.00000
      6      20.6394      0.00000
      7      29.2308      0.00000
      8      31.0499      0.00000

 k-point     6 :      -0.3750    0.3750    0.1250
  band No.  band energies     occupation 
      1       4.3430      2.00000
      2       6.6772      2.00000
      3       9.0352      2.00000
      4      11.3458      0.00000
      5      20.4172      0.00000
      6      24.4235      0.00000
      7      26.9928      0.00000
      8      30.5254      0.00000

 k-point     7 :      -0.1250    0.3750    0.1250
  band No.  band energies     occupation 
      1       0.8817      2.00000
      2       7.8255      2.00000
      3      12.3060      0.00000
      4      14.5894      0.00000
      5      21.3604      0.00000
      6      23.5612      0.00000
      7      25.7538      0.00000
      8      29.7826      0.00000

 k-point     8 :      -0.3750   -0.3750    0.1250
  band No.  band energies     occupation 
      1       3.2089      2.00000
      2       7.8562      2.00000
      3      10.0959      1.10763
      4      13.5957      0.00000
      5      15.9464      0.00000
      6      19.5948      0.00000
      7      32.1429      0.00000
      8      34.1420      0.00000

 k-point     9 :       0.3750    0.3750    0.3750
  band No.  band energies     occupation 
      1      -0.2982      2.00000
      2       6.7157      2.00000
      3      18.4844      0.00000
      4      18.4844      0.00000
      5      21.6552      0.00000
      6      21.6552      0.00000
      7      23.0752      0.00000
      8      26.6878      0.00000

 k-point    10 :      -0.3750    0.3750    0.3750
  band No.  band energies     occupation 
      1       3.1919      2.00000
      2       5.5707      2.00000
      3      10.1682      0.05627
      4      15.6653      0.00000
      5      18.3633      0.00000
      6      26.5689      0.00000
      7      28.1470      0.00000
      8      29.8926      0.00000


--------------------------------------------------------------------------------------------------------


 soft charge-density along one line, spin component           1
         0         1         2         3         4         5         6         7         8         9
 total charge-density along one line
 
 pseudopotential strength for first ion, spin component:           1
 17.982  25.086   0.000  -0.000   0.000   0.000  -0.000   0.000
 25.086  35.001   0.000  -0.000   0.000   0.000  -0.000   0.000
  0.000   0.000   4.098  -0.000  -0.000   7.634  -0.000  -0.000
 -0.000  -0.000  -0.000   4.098  -0.000  -0.000   7.634  -0.000
  0.000   0.000  -0.000  -0.000   4.098  -0.000  -0.000   7.634
  0.000   0.000   7.634  -0.000  -0.000  14.232  -0.000  -0.000
 -0.000  -0.000  -0.000   7.634  -0.000  -0.000  14.232  -0.000
  0.000   0.000  -0.000  -0.000   7.634  -0.000  -0.000  14.232
 total augmentation occupancy for first ion, spin component:           1
  4.777  -1.994   0.000   0.000   0.000   0.000   0.000   0.000
 -1.994   1.308   0.000   0.000   0.000   0.000   0.000   0.000
  0.000   0.000   2.274  -0.000   0.000  -0.537   0.000  -0.000
  0.000   0.000  -0.000   2.274  -0.000   0.000  -0.537   0.000
  0.000   0.000   0.000  -0.000   2.274  -0.000   0.000  -0.537
  0.000   0.000  -0.537   0.000  -0.000   0.141  -0.000   0.000
  0.000   0.000   0.000  -0.537   0.000  -0.000   0.141  -0.000
  0.000   0.000  -0.000   0.000  -0.537   0.000  -0.000   0.141


------------------------ aborting loop because EDIFF is reached ----------------------------------------


    CHARGE:  cpu time    0.0120: real time    0.0128
    FORLOC:  cpu time    0.0010: real time    0.0006
    FORNL :  cpu time    0.0490: real time    0.0499
    STRESS:  cpu time    0.1800: real time    0.1812
    FORCOR:  cpu time    0.0140: real time    0.0141
    FORHAR:  cpu time    0.0030: real time    0.0027
    MIXING:  cpu time    0.0010: real time    0.0007
    OFIELD:  cpu time    0.0000: real time    0.0002

  FORCE on cell =-STRESS in cart. coord.  units (eV):
  Direction    XX          YY          ZZ          XY          YZ          ZX
  --------------------------------------------------------------------------------------
  Alpha Z     2.30326     2.30326     2.30326
  Ewald     -45.36217   -45.36216   -45.36217     0.00000     0.00001     0.00001
  Hartree     0.15567     0.15567     0.15567     0.00000     0.00000     0.00000
  E(xc)     -12.66703   -12.66703   -12.66703    -0.00000    -0.00000    -0.00000
  Local      -5.08249    -5.08249    -5.08248     0.00000     0.00000     0.00001
  n-local    37.35352    38.38412    39.58890    -0.84729     0.05941    -0.15565
  augment    -6.31401    -6.31401    -6.31402    -0.00000    -0.00000    -0.00001
  Kinetic    38.03994    33.26638    14.23442     4.46960     2.89667     1.02125
  Fock        0.00000     0.00000     0.00000     0.00000     0.00000     0.00000
  -------------------------------------------------------------------------------------
  Total      -0.01101    -0.01101    -0.01101    -0.00000     0.00000     0.00000
  in kB      -1.20693    -1.20693    -1.20693    -0.00000     0.00000     0.00000
  external pressure =       -1.21 kB  Pullay stress =        0.00 kB


 VOLUME and BASIS-vectors are now :
 -----------------------------------------------------------------------------
  energy-cutoff  :      350.00
  volume of cell :       14.62
      direct lattice vectors                 reciprocal lattice vectors
     2.376692379 -0.000000005  1.372182824     0.420752810 -0.148758598  0.000000002
     0.792230788  2.240766827  1.372182824     0.000000000  0.446275795  0.000000002
    -0.000000014 -0.000000010  2.744367698    -0.210376248 -0.148758487  0.364382658

  length of vectors
     2.744367389  2.744367194  2.744367698     0.446275753  0.446275795  0.446275671


 FORCES acting on ions
    electron-ion (+dipol)            ewald-force                    non-local-force                 convergence-correction
 -----------------------------------------------------------------------------------------------
   0.279E-15 0.154E-14 0.747E-15   0.455E-16 0.108E-15 0.131E-15   0.118E-24 0.163E-24 0.000E+00   -.770E-16 0.124E-16 -.185E-16
 -----------------------------------------------------------------------------------------------
   0.279E-15 0.154E-14 0.747E-15   0.455E-16 0.108E-15 0.131E-15   0.118E-24 0.163E-24 0.000E+00   -.770E-16 0.124E-16 -.185E-16
 
 
 POSITION                                       TOTAL-FORCE (eV/Angst)
 -----------------------------------------------------------------------------------
     -0.00000     -0.00000      0.00000        -0.000000     -0.000000      0.000000
 -----------------------------------------------------------------------------------
    total drift:                                0.000000      0.000000      0.000000


--------------------------------------------------------------------------------------------------------



  FREE ENERGIE OF THE ION-ELECTRON SYSTEM (eV)
  ---------------------------------------------------
  free  energy   TOTEN  =        -4.81820571 eV

  energy  without entropy=       -4.81305716  energy(sigma->0) =       -4.81563143
 
 d Force = 0.0000000E+00[ 0.000E+00, 0.000E+00]  d Energy = 0.4466788E-02-0.447E-02
 d Force = 0.0000000E+00[ 0.000E+00, 0.000E+00]  d Ewald  =-0.1698469E+01 0.170E+01


--------------------------------------------------------------------------------------------------------


    POTLOK:  cpu time    0.1840: real time    0.1917


--------------------------------------------------------------------------------------------------------


 Steepest descent step on ions:
 trial-energy change:   -0.004467  1 .order   -0.004637   -0.009687    0.000412
  (g-gl).g = 0.969E-02      g.g   = 0.969E-02  gl.gl    = 0.000E+00
 g(Force)  = 0.447E-67   g(Stress)= 0.969E-02 ortho     = 0.000E+00
 gamma     =   0.00000
 trial     =   1.00000
 opt step  =   0.95481  (harmonic =   0.95918) maximal distance =0.00000000
 next E    =    -4.818215   (d E  =  -0.00448)


--------------------------------------------------------------------------------------------------------


    WAVPRE:  cpu time    0.0040: real time    0.0131
    FEWALD:  cpu time    0.0010: real time    0.0003
    GENKIN:  cpu time    0.0020: real time    0.0026
    ORTHCH:  cpu time    0.0020: real time    0.0012
     LOOP+:  cpu time    2.1197: real time    2.2242


--------------------------------------- Iteration      3(   1)  ---------------------------------------


    POTLOK:  cpu time    0.0140: real time    0.0172
    SETDIJ:  cpu time    0.1650: real time    0.1654
     EDDAV:  cpu time    0.0510: real time    0.0509
       DOS:  cpu time    0.0000: real time    0.0007
    CHARGE:  cpu time    0.0130: real time    0.0129
    MIXING:  cpu time    0.0000: real time    0.0008
    --------------------------------------------
      LOOP:  cpu time    0.2440: real time    0.2482

 eigenvalue-minimisations  :   184
 total energy-change (2. order) :-0.1509485E-04  (-0.3164472E-04)
 number of electron       4.0000000 magnetization 
 augmentation part       -0.2476286 magnetization 

 Broyden mixing:
  rms(total) = 0.16500E-02    rms(broyden)= 0.16500E-02
  rms(prec ) = 0.50806E-02
  weight for this iteration     100.00

 Free energy of the ion-electron system (eV)
  ---------------------------------------------------
  alpha Z        PSCENC =         2.30711120
  Ewald energy   TEWEN  =      -136.16234191
  -Hartree energ DENC   =        -0.46727335
  -exchange      EXHF   =         0.00000000
  -V(xc)+E(xc)   XCENC  =        -8.77601873
  PAW double counting   =       292.42236454     -274.83529737
  entropy T*S    EENTRO =        -0.00511406
  eigenvalues    EBANDS =        17.63272202
  atomic energy  EATOM  =       103.06562707
  Solvation  Ediel_sol  =         0.00000000
  ---------------------------------------------------
  free energy    TOTEN  =        -4.81822060 eV

  energy without entropy =       -4.81310653  energy(sigma->0) =       -4.81566356


--------------------------------------------------------------------------------------------------------




--------------------------------------- Iteration      3(   2)  ---------------------------------------


    POTLOK:  cpu time    0.0160: real time    0.0224
    SETDIJ:  cpu time    0.1650: real time    0.1652
     EDDAV:  cpu time    0.0650: real time    0.0662
       DOS:  cpu time    0.0010: real time    0.0008
    CHARGE:  cpu time    0.0130: real time    0.0129
    MIXING:  cpu time    0.0010: real time    0.0008
    --------------------------------------------
      LOOP:  cpu time    0.2600: real time    0.2684

 eigenvalue-minimisations  :   232
 total energy-change (2. order) : 0.3592482E-05  (-0.1758060E-06)
 number of electron       4.0000000 magnetization 
 augmentation part       -0.2476523 magnetization 

 Broyden mixing:
  rms(total) = 0.91255E-03    rms(broyden)= 0.91254E-03
  rms(prec ) = 0.29846E-02
  weight for this iteration     100.00

 eigenvalues of (default mixing * dielectric matrix)
  average eigenvalue GAMMA=   2.1890
  2.1890

 Free energy of the ion-electron system (eV)
  ---------------------------------------------------
  alpha Z        PSCENC =         2.30711120
  Ewald energy   TEWEN  =      -136.16234191
  -Hartree energ DENC   =        -0.46602397
  -exchange      EXHF   =         0.00000000
  -V(xc)+E(xc)   XCENC  =        -8.77582201
  PAW double counting   =       293.01200813     -275.42496096
  entropy T*S    EENTRO =        -0.00511490
  eigenvalues    EBANDS =        17.63130036
  atomic energy  EATOM  =       103.06562707
  Solvation  Ediel_sol  =         0.00000000
  ---------------------------------------------------
  free energy    TOTEN  =        -4.81821700 eV

  energy without entropy =       -4.81310210  energy(sigma->0) =       -4.81565955


--------------------------------------------------------------------------------------------------------




--------------------------------------- Iteration      3(   3)  ---------------------------------------


    POTLOK:  cpu time    0.0140: real time    0.0243
    SETDIJ:  cpu time    0.1650: real time    0.1647
     EDDAV:  cpu time    0.0500: real time    0.0499
       DOS:  cpu time    0.0000: real time    0.0007
    CHARGE:  cpu time    0.0120: real time    0.0131
    MIXING:  cpu time    0.0010: real time    0.0007
    --------------------------------------------
      LOOP:  cpu time    0.2430: real time    0.2535

 eigenvalue-minimisations  :   176
 total energy-change (2. order) : 0.1907948E-05  (-0.2409824E-06)
 number of electron       4.0000000 magnetization 
 augmentation part       -0.2477092 magnetization 

 Broyden mixing:
  rms(total) = 0.29122E-03    rms(broyden)= 0.29121E-03
  rms(prec ) = 0.29520E-03
  weight for this iteration     100.00

 eigenvalues of (default mixing * dielectric matrix)
  average eigenvalue GAMMA=   1.2641
  2.1215  0.4066

 Free energy of the ion-electron system (eV)
  ---------------------------------------------------
  alpha Z        PSCENC =         2.30711120
  Ewald energy   TEWEN  =      -136.16234191
  -Hartree energ DENC   =        -0.46428161
  -exchange      EXHF   =         0.00000000
  -V(xc)+E(xc)   XCENC  =        -8.77548008
  PAW double counting   =       293.77626280     -276.18932927
  entropy T*S    EENTRO =        -0.00511612
  eigenvalues    EBANDS =        17.62933282
  atomic energy  EATOM  =       103.06562707
  Solvation  Ediel_sol  =         0.00000000
  ---------------------------------------------------
  free energy    TOTEN  =        -4.81821510 eV

  energy without entropy =       -4.81309898  energy(sigma->0) =       -4.81565704


--------------------------------------------------------------------------------------------------------




--------------------------------------- Iteration      3(   4)  ---------------------------------------


    POTLOK:  cpu time    0.0160: real time    0.0294
    SETDIJ:  cpu time    0.1650: real time    0.1650
     EDDAV:  cpu time    0.0270: real time    0.0286
       DOS:  cpu time    0.0010: real time    0.0008
    CHARGE:  cpu time    0.0130: real time    0.0129
    MIXING:  cpu time    0.0010: real time    0.0009
    --------------------------------------------
      LOOP:  cpu time    0.2220: real time    0.2376

 eigenvalue-minimisations  :    80
 total energy-change (2. order) :-0.2588123E-07  (-0.4035091E-09)
 number of electron       4.0000000 magnetization 
 augmentation part       -0.2477090 magnetization 

 Broyden mixing:
  rms(total) = 0.23552E-03    rms(broyden)= 0.23551E-03
  rms(prec ) = 0.24066E-03
  weight for this iteration     100.00

 eigenvalues of (default mixing * dielectric matrix)
  average eigenvalue GAMMA=   2.1259
  0.9672  3.0319  2.3787

 Free energy of the ion-electron system (eV)
  ---------------------------------------------------
  alpha Z        PSCENC =         2.30711120
  Ewald energy   TEWEN  =      -136.16234191
  -Hartree energ DENC   =        -0.46428777
  -exchange      EXHF   =         0.00000000
  -V(xc)+E(xc)   XCENC  =        -8.77547511
  PAW double counting   =       293.70148450     -276.11457472
  entropy T*S    EENTRO =        -0.00511611
  eigenvalues    EBANDS =        17.62935772
  atomic energy  EATOM  =       103.06562707
  Solvation  Ediel_sol  =         0.00000000
  ---------------------------------------------------
  free energy    TOTEN  =        -4.81821512 eV

  energy without entropy =       -4.81309901  energy(sigma->0) =       -4.81565707


--------------------------------------------------------------------------------------------------------




--------------------------------------- Iteration      3(   5)  ---------------------------------------


    POTLOK:  cpu time    0.0150: real time    0.0272
    SETDIJ:  cpu time    0.1650: real time    0.1658
     EDDAV:  cpu time    0.0290: real time    0.0288
       DOS:  cpu time    0.0000: real time    0.0007
    CHARGE:  cpu time    0.0130: real time    0.0129
    MIXING:  cpu time    0.0010: real time    0.0009
    --------------------------------------------
      LOOP:  cpu time    0.2230: real time    0.2364

 eigenvalue-minimisations  :    80
 total energy-change (2. order) :-0.1210804E-06  (-0.1130202E-09)
 number of electron       4.0000000 magnetization 
 augmentation part       -0.2477095 magnetization 

 Broyden mixing:
  rms(total) = 0.24956E-04    rms(broyden)= 0.24871E-04
  rms(prec ) = 0.25619E-04
  weight for this iteration     100.00

 eigenvalues of (default mixing * dielectric matrix)
  average eigenvalue GAMMA=   1.6924
  2.6708  2.3504  1.0096  0.7387

 Free energy of the ion-electron system (eV)
  ---------------------------------------------------
  alpha Z        PSCENC =         2.30711120
  Ewald energy   TEWEN  =      -136.16234191
  -Hartree energ DENC   =        -0.46427671
  -exchange      EXHF   =         0.00000000
  -V(xc)+E(xc)   XCENC  =        -8.77544530
  PAW double counting   =       293.36990204     -275.78309627
  entropy T*S    EENTRO =        -0.00511611
  eigenvalues    EBANDS =        17.62942074
  atomic energy  EATOM  =       103.06562707
  Solvation  Ediel_sol  =         0.00000000
  ---------------------------------------------------
  free energy    TOTEN  =        -4.81821524 eV

  energy without entropy =       -4.81309913  energy(sigma->0) =       -4.81565719


--------------------------------------------------------------------------------------------------------




--------------------------------------- Iteration      3(   6)  ---------------------------------------


    POTLOK:  cpu time    0.0150: real time    0.0243
    SETDIJ:  cpu time    0.1660: real time    0.1655
     EDDAV:  cpu time    0.0290: real time    0.0292
       DOS:  cpu time    0.0000: real time    0.0009
    --------------------------------------------
      LOOP:  cpu time    0.2110: real time    0.2198

 eigenvalue-minimisations  :    80
 total energy-change (2. order) : 0.1136704E-07  (-0.3210871E-11)
 number of electron       4.0000000 magnetization 
 augmentation part       -0.2477095 magnetization 

 Free energy of the ion-electron system (eV)
  ---------------------------------------------------
  alpha Z        PSCENC =         2.30711120
  Ewald energy   TEWEN  =      -136.16234191
  -Hartree energ DENC   =        -0.46427684
  -exchange      EXHF   =         0.00000000
  -V(xc)+E(xc)   XCENC  =        -8.77544779
  PAW double counting   =       293.39866776     -275.81185303
  entropy T*S    EENTRO =        -0.00511611
  eigenvalues    EBANDS =        17.62941442
  atomic energy  EATOM  =       103.06562707
  Solvation  Ediel_sol  =         0.00000000
  ---------------------------------------------------
  free energy    TOTEN  =        -4.81821523 eV

  energy without entropy =       -4.81309912  energy(sigma->0) =       -4.81565718


--------------------------------------------------------------------------------------------------------




 average (electrostatic) potential at core
  the test charge radii are     0.9892
  (the norm of the test charge is              1.0000)
       1 -80.0187
 
 
 
 E-fermi :  10.1220     XC(G=0): -11.1607     alpha+bet :-16.4378

 Fermi energy:        10.1219535682

 k-point     1 :       0.1250    0.1250    0.1250
  band No.  band energies     occupation 
      1      -3.8634      2.00000
      2      16.5568      0.00000
      3      19.7999      0.00000
      4      19.7999      0.00000
      5      23.2532      0.00000
      6      23.7403      0.00000
      7      23.7403      0.00000
      8      27.2551      0.00000

 k-point     2 :       0.3750    0.1250    0.1250
  band No.  band energies     occupation 
      1      -1.4695      2.00000
      2      10.0984      1.49408
      3      14.4938      0.00000
      4      19.3969      0.00000
      5      22.5669      0.00000
      6      22.8778      0.00000
      7      24.9315      0.00000
      8      26.8138      0.00000

 k-point     3 :      -0.3750    0.1250    0.1250
  band No.  band energies     occupation 
      1       2.0386      2.00000
      2       4.4614      2.00000
      3      15.4772      0.00000
      4      16.7081      0.00000
      5      19.4355      0.00000
      6      23.5122      0.00000
      7      25.6542      0.00000
      8      29.1833      0.00000

 k-point     4 :      -0.1250    0.1250    0.1250
  band No.  band energies     occupation 
      1      -2.6624      2.00000
      2      13.3773      0.00000
      3      16.7651      0.00000
      4      18.4166      0.00000
      5      20.2515      0.00000
      6      22.8726      0.00000
      7      26.7470      0.00000
      8      26.8095      0.00000

 k-point     5 :       0.3750    0.3750    0.1250
  band No.  band energies     occupation 
      1      -0.2814      2.00000
      2      11.1556      0.00000
      3      13.4386      0.00000
      4      14.6759      0.00000
      5      17.1613      0.00000
      6      20.6728      0.00000
      7      29.2712      0.00000
      8      31.0954      0.00000

 k-point     6 :      -0.3750    0.3750    0.1250
  band No.  band energies     occupation 
      1       4.3596      2.00000
      2       6.6953      2.00000
      3       9.0574      2.00000
      4      11.3686      0.00000
      5      20.4490      0.00000
      6      24.4611      0.00000
      7      27.0305      0.00000
      8      30.5680      0.00000

 k-point     7 :      -0.1250    0.3750    0.1250
  band No.  band energies     occupation 
      1       0.8943      2.00000
      2       7.8447      2.00000
      3      12.3323      0.00000
      4      14.6163      0.00000
      5      21.3934      0.00000
      6      23.5962      0.00000
      7      25.7912      0.00000
      8      29.8256      0.00000

 k-point     8 :      -0.3750   -0.3750    0.1250
  band No.  band energies     occupation 
      1       3.2237      2.00000
      2       7.8781      2.00000
      3      10.1165      1.12321
      4      13.6229      0.00000
      5      15.9711      0.00000
      6      19.6277      0.00000
      7      32.1861      0.00000
      8      34.1888      0.00000

 k-point     9 :       0.3750    0.3750    0.3750
  band No.  band energies     occupation 
      1      -0.2870      2.00000
      2       6.7338      2.00000
      3      18.5199      0.00000
      4      18.5199      0.00000
      5      21.6844      0.00000
      6      21.6844      0.00000
      7      23.1136      0.00000
      8      26.7215      0.00000

 k-point    10 :      -0.3750    0.3750    0.3750
  band No.  band energies     occupation 
      1       3.2076      2.00000
      2       5.5869      2.00000
      3      10.1914      0.04937
      4      15.6950      0.00000
      5      18.3916      0.00000
      6      26.6062      0.00000
      7      28.1896      0.00000
      8      29.9351      0.00000


--------------------------------------------------------------------------------------------------------


 soft charge-density along one line, spin component           1
         0         1         2         3         4         5         6         7         8         9
 total charge-density along one line
 
 pseudopotential strength for first ion, spin component:           1
 17.979  25.082   0.000  -0.000  -0.000   0.000  -0.000  -0.000
 25.082  34.996   0.000  -0.000  -0.000   0.000  -0.000  -0.000
  0.000   0.000   4.097  -0.000  -0.000   7.633  -0.000  -0.000
 -0.000  -0.000  -0.000   4.097  -0.000  -0.000   7.633  -0.000
 -0.000  -0.000  -0.000  -0.000   4.097  -0.000  -0.000   7.633
  0.000   0.000   7.633  -0.000  -0.000  14.231  -0.000  -0.000
 -0.000  -0.000  -0.000   7.633  -0.000  -0.000  14.231  -0.000
 -0.000  -0.000  -0.000  -0.000   7.633  -0.000  -0.000  14.231
 total augmentation occupancy for first ion, spin component:           1
  4.789  -2.001   0.000   0.000   0.000   0.000   0.000   0.000
 -2.001   1.311   0.000   0.000   0.000   0.000   0.000   0.000
  0.000   0.000   2.279  -0.000   0.000  -0.539   0.000  -0.000
  0.000   0.000  -0.000   2.279  -0.000   0.000  -0.539   0.000
  0.000   0.000   0.000  -0.000   2.279  -0.000   0.000  -0.539
  0.000   0.000  -0.539   0.000  -0.000   0.141  -0.000   0.000
  0.000   0.000   0.000  -0.539   0.000  -0.000   0.141  -0.000
  0.000   0.000  -0.000   0.000  -0.539   0.000  -0.000   0.141


------------------------ aborting loop because EDIFF is reached ----------------------------------------


    CHARGE:  cpu time    0.0130: real time    0.0130
    FORLOC:  cpu time    0.0010: real time    0.0006
    FORNL :  cpu time    0.0500: real time    0.0515
    STRESS:  cpu time    0.1810: real time    0.1811
    FORCOR:  cpu time    0.0140: real time    0.0137
    FORHAR:  cpu time    0.0020: real time    0.0027
    MIXING:  cpu time    0.0000: real time    0.0007
    OFIELD:  cpu time    0.0000: real time    0.0002

  FORCE on cell =-STRESS in cart. coord.  units (eV):
  Direction    XX          YY          ZZ          XY          YZ          ZX
  --------------------------------------------------------------------------------------
  Alpha Z     2.30711     2.30711     2.30711
  Ewald     -45.38745   -45.38745   -45.38745     0.00000     0.00001     0.00001
  Hartree     0.15476     0.15476     0.15476     0.00000     0.00000     0.00000
  E(xc)     -12.67218   -12.67218   -12.67218    -0.00000    -0.00000    -0.00000
  Local      -5.06730    -5.06730    -5.06729     0.00000     0.00000     0.00001
  n-local    37.34457    38.37651    39.59658    -0.85089     0.05972    -0.15885
  augment    -6.31145    -6.31145    -6.31146    -0.00000    -0.00000    -0.00000
  Kinetic    38.04868    33.28859    14.27465     4.49653     2.88914     1.02937
  Fock        0.00000     0.00000     0.00000     0.00000     0.00000     0.00000
  -------------------------------------------------------------------------------------
  Total       0.00002     0.00002     0.00002     0.00000    -0.00000    -0.00000
  in kB       0.00197     0.00197     0.00197     0.00000    -0.00000    -0.00000
  external pressure =        0.00 kB  Pullay stress =        0.00 kB


 VOLUME and BASIS-vectors are now :
 -----------------------------------------------------------------------------
  energy-cutoff  :      350.00
  volume of cell :       14.59
      direct lattice vectors                 reciprocal lattice vectors
     2.375368461 -0.000000005  1.371418461     0.420987318 -0.148841509  0.000000002
     0.791789482  2.239518625  1.371418461     0.000000000  0.446524528  0.000000002
    -0.000000014 -0.000000010  2.742838969    -0.210493502 -0.148841398  0.364585747

  length of vectors
     2.742838661  2.742838466  2.742838969     0.446524486  0.446524528  0.446524404


 FORCES acting on ions
    electron-ion (+dipol)            ewald-force                    non-local-force                 convergence-correction
 -----------------------------------------------------------------------------------------------
   0.118E-15 0.362E-15 0.827E-15   0.679E-15 0.422E-16 -.464E-16   -.723E-25 -.113E-25 0.000E+00   0.108E-15 -.325E-16 -.222E-16
 -----------------------------------------------------------------------------------------------
   0.118E-15 0.362E-15 0.827E-15   0.679E-15 0.422E-16 -.464E-16   -.723E-25 -.113E-25 0.000E+00   0.108E-15 -.325E-16 -.222E-16
 
 
 POSITION                                       TOTAL-FORCE (eV/Angst)
 -----------------------------------------------------------------------------------
     -0.00000     -0.00000      0.00000         0.000000      0.000000      0.000000
 -----------------------------------------------------------------------------------
    total drift:                                0.000000      0.000000      0.000000


--------------------------------------------------------------------------------------------------------



  FREE ENERGIE OF THE ION-ELECTRON SYSTEM (eV)
  ---------------------------------------------------
  free  energy   TOTEN  =        -4.81821523 eV

  energy  without entropy=       -4.81309912  energy(sigma->0) =       -4.81565718
 
 d Force = 0.0000000E+00[ 0.000E+00, 0.000E+00]  d Energy = 0.9519209E-05-0.952E-05
 d Force = 0.0000000E+00[ 0.000E+00, 0.000E+00]  d Ewald  = 0.7584819E-01-0.758E-01


--------------------------------------------------------------------------------------------------------


    POTLOK:  cpu time    0.1810: real time    0.1875


--------------------------------------------------------------------------------------------------------




--------------------------------------------------------------------------------------------------------


  
 reached required accuracy - stopping structural energy minimisation
     LOOP+:  cpu time    2.0207: real time    2.1347
    4ORBIT:  cpu time    0.0000: real time    0.0000

 total amount of memory used by VASP MPI-rank0    32809. kBytes
=======================================================================

   base      :      30000. kBytes
   nonl-proj :        141. kBytes
   fftplans  :       1775. kBytes
   grid      :        819. kBytes
   one-center:          3. kBytes
   wavefun   :         71. kBytes
 
  
  
 General timing and accounting informations for this job:
 ========================================================
  
                  Total CPU time used (sec):        6.934
                            User time (sec):        6.737
                          System time (sec):        0.197
                         Elapsed time (sec):        7.745
  
                   Maximum memory used (kb):       55024.
                   Average memory used (kb):          N/A
  
                          Minor page faults:         9395
                          Major page faults:            1
                 Voluntary context switches:         8715
