<?xml version="1.0" encoding="ISO-8859-1"?>
<modeling>
 <generator>
  <i name="program" type="string">vasp </i>
  <i name="version" type="string">6.2.0  </i>
  <i name="subversion" type="string">18Jan21 (build Aug 12 2022 13:00:08) complex                          parallel </i>
  <i name="platform" type="string">LinuxIFC </i>
  <i name="date" type="string">2024 11 03 </i>
  <i name="time" type="string">21:52:50 </i>
 </generator>
 <incar>
  <i type="int" name="ISTART">     0</i>
  <i type="string" name="PREC">Accurate      (Accurate strictly avoids</i>
  <i type="logical" name="ADDGRID"> T  </i>
  <i type="int" name="ISPIN">     1</i>
  <i type="int" name="NELM">    90</i>
  <i type="int" name="NELMIN">     6</i>
  <i type="int" name="IBRION">     2</i>
  <i name="EDIFF">      0.00000100</i>
  <i name="EDIFFG">     -0.00200000</i>
  <i type="int" name="NSW">   100</i>
  <i type="int" name="ISIF">     3</i>
  <i type="int" name="ISYM">     2</i>
  <i name="ENCUT">    350.00000000</i>
  <i type="logical" name="LREAL"> F  </i>
  <i type="int" name="ISMEAR">     0</i>
  <i name="SIGMA">      0.05000000</i>
  <i type="logical" name="LWAVE"> F  </i>
  <i type="logical" name="LCHARG"> F  </i>
  <i type="logical" name="LASPH"> T  </i>
 </incar>
 <primitive_cell>
  <structure name="primitive_cell" >
   <crystal>
    <varray name="basis" >
     <v>       2.34739500       0.00000000       1.35526800 </v>
     <v>       0.78246500       2.21314500       1.35526800 </v>
     <v>       0.00000000       0.00000000       2.71053800 </v>
    </varray>
    <i name="volume">     14.08158510 </i>
    <varray name="rec_basis" >
     <v>       0.42600415      -0.15061523       0.00000000 </v>
     <v>       0.00000000       0.45184568       0.00000000 </v>
     <v>      -0.21300192      -0.15061511       0.36893045 </v>
    </varray>
   </crystal>
   <varray name="positions" >
    <v>       0.00000000       0.00000000       0.00000000 </v>
   </varray>
  </structure>
  <varray name="primitive_index" >
   <v type="int" >        1 </v>
  </varray>
 </primitive_cell>
 <kpoints>
  <generation param="Monkhorst-Pack">
   <v type="int" name="divisions">       4        4        4 </v>
   <v name="usershift">      0.00000000       0.00000000       0.00000000 </v>
   <v name="genvec1">      0.25000000       0.00000000       0.00000000 </v>
   <v name="genvec2">      0.00000000       0.25000000       0.00000000 </v>
   <v name="genvec3">     -0.00000000      -0.00000000       0.25000000 </v>
   <v name="shift">      0.50000000       0.50000000       0.50000000 </v>
  </generation>
  <varray name="kpointlist" >
   <v>       0.12500000       0.12500000       0.12500000 </v>
   <v>       0.37500000       0.12500000       0.12500000 </v>
   <v>      -0.37500000       0.12500000       0.12500000 </v>
   <v>      -0.12500000       0.12500000       0.12500000 </v>
   <v>       0.37500000       0.37500000       0.12500000 </v>
   <v>      -0.37500000       0.37500000       0.12500000 </v>
   <v>      -0.12500000       0.37500000       0.12500000 </v>
   <v>      -0.37500000      -0.37500000       0.12500000 </v>
   <v>       0.37500000       0.37500000       0.37500000 </v>
   <v>      -0.37500000       0.37500000       0.37500000 </v>
  </varray>
  <varray name="weights" >
   <v>       0.03125000 </v>
   <v>       0.09375000 </v>
   <v>       0.09375000 </v>
   <v>       0.09375000 </v>
   <v>       0.09375000 </v>
   <v>       0.18750000 </v>
   <v>       0.18750000 </v>
   <v>       0.09375000 </v>
   <v>       0.03125000 </v>
   <v>       0.09375000 </v>
  </varray>
 </kpoints>
 <parameters>
  <separator name="general" >
   <i type="string" name="SYSTEM">unknown system</i>
   <i type="logical" name="LCOMPAT"> F  </i>
  </separator>
  <separator name="electronic" >
   <i type="string" name="PREC">accura</i>
   <i name="ENMAX">    350.00000000</i>
   <i name="ENAUG">    322.06900000</i>
   <i name="EDIFF">      0.00000100</i>
   <i type="int" name="IALGO">    38</i>
   <i type="int" name="IWAVPR">    11</i>
   <i type="int" name="NBANDS">     8</i>
   <i type="int" name="NBANDSLOW">    -1</i>
   <i type="int" name="NBANDSHIGH">    -1</i>
   <i name="NELECT">      4.00000000</i>
   <i type="int" name="TURBO">     0</i>
   <i type="int" name="IRESTART">     0</i>
   <i type="int" name="NREBOOT">     0</i>
   <i type="int" name="NMIN">     0</i>
   <i name="EREF">      0.00000000</i>
   <separator name="electronic smearing" >
    <i type="int" name="ISMEAR">     0</i>
    <i name="SIGMA">      0.05000000</i>
    <i name="KSPACING">      0.50000000</i>
    <i type="logical" name="KGAMMA"> T  </i>
    <i type="logical" name="KBLOWUP"> T  </i>
   </separator>
   <separator name="electronic projectors" >
    <i type="logical" name="LREAL"> F  </i>
    <v name="ROPT">      0.00000000</v>
    <i type="int" name="LMAXPAW">  -100</i>
    <i type="int" name="LMAXMIX">     2</i>
    <i type="logical" name="NLSPLINE"> F  </i>
   </separator>
   <separator name="electronic startup" >
    <i type="int" name="ISTART">     0</i>
    <i type="int" name="ICHARG">     2</i>
    <i type="int" name="INIWAV">     1</i>
   </separator>
   <separator name="electronic spin" >
    <i type="int" name="ISPIN">     1</i>
    <i type="logical" name="LNONCOLLINEAR"> F  </i>
    <v name="MAGMOM">      1.00000000</v>
    <i name="NUPDOWN">     -1.00000000</i>
    <i type="logical" name="LSORBIT"> F  </i>
    <v name="SAXIS">      0.00000000      0.00000000      1.00000000</v>
    <i type="logical" name="LSPIRAL"> F  </i>
    <v name="QSPIRAL">      0.00000000      0.00000000      0.00000000</v>
    <i type="logical" name="LZEROZ"> F  </i>
   </separator>
   <separator name="electronic exchange-correlation" >
    <i type="logical" name="LASPH"> T  </i>
    <i type="logical" name="LMETAGGA"> F  </i>
   </separator>
   <separator name="electronic convergence" >
    <i type="int" name="NELM">    90</i>
    <i type="int" name="NELMDL">    -5</i>
    <i type="int" name="NELMIN">     6</i>
    <i name="ENINI">    350.00000000</i>
    <separator name="electronic convergence detail" >
     <i type="logical" name="LDIAG"> T  </i>
     <i type="logical" name="LSUBROT"> F  </i>
     <i name="WEIMIN">      0.00100000</i>
     <i name="EBREAK">      0.00000003</i>
     <i name="DEPER">      0.30000000</i>
     <i type="int" name="NRMM">     4</i>
     <i name="TIME">      0.40000000</i>
    </separator>
   </separator>
   <separator name="electronic mixer" >
    <i name="AMIX">      0.40000000</i>
    <i name="BMIX">      1.00000000</i>
    <i name="AMIN">      0.10000000</i>
    <i name="AMIX_MAG">      1.60000000</i>
    <i name="BMIX_MAG">      1.00000000</i>
    <separator name="electronic mixer details" >
     <i type="int" name="IMIX">     4</i>
     <i type="logical" name="MIXFIRST"> F  </i>
     <i type="int" name="MAXMIX">   -45</i>
     <i name="WC">    100.00000000</i>
     <i type="int" name="INIMIX">     1</i>
     <i type="int" name="MIXPRE">     1</i>
     <i type="int" name="MREMOVE">     5</i>
    </separator>
   </separator>
   <separator name="electronic dipolcorrection" >
    <i type="logical" name="LDIPOL"> F  </i>
    <i type="logical" name="LMONO"> F  </i>
    <i type="int" name="IDIPOL">     0</i>
    <i name="EPSILON">      1.00000000</i>
    <v name="DIPOL">   -100.00000000   -100.00000000   -100.00000000</v>
    <i name="EFIELD">      0.00000000</i>
   </separator>
  </separator>
  <separator name="grids" >
   <i type="int" name="NGX">    18</i>
   <i type="int" name="NGY">    18</i>
   <i type="int" name="NGZ">    18</i>
   <i type="int" name="NGXF">    36</i>
   <i type="int" name="NGYF">    36</i>
   <i type="int" name="NGZF">    36</i>
   <i type="logical" name="ADDGRID"> T  </i>
  </separator>
  <separator name="ionic" >
   <i type="int" name="NSW">   100</i>
   <i type="int" name="IBRION">     2</i>
   <i type="int" name="MDALGO">     0</i>
   <i type="int" name="ISIF">     3</i>
   <i name="PSTRESS">      0.00000000</i>
   <i name="EDIFFG">     -0.00200000</i>
   <i type="int" name="NFREE">     1</i>
   <i name="POTIM">      0.50000000</i>
   <i name="SMASS">     -3.00000000</i>
   <i name="SCALEE">      1.00000000</i>
  </separator>
  <separator name="ionic md" >
   <i name="TEBEG">      0.00010000</i>
   <i name="TEEND">      0.00010000</i>
   <i type="int" name="NBLOCK">     1</i>
   <i type="int" name="KBLOCK">   100</i>
   <i type="int" name="NPACO">   256</i>
   <i name="APACO">     16.00000000</i>
  </separator>
  <separator name="symmetry" >
   <i type="int" name="ISYM">     2</i>
   <i name="SYMPREC">      0.00001000</i>
  </separator>
  <separator name="dos" >
   <i type="int" name="LORBIT">     0</i>
   <v name="RWIGS">     -1.00000000</v>
   <i type="int" name="NEDOS">   301</i>
   <i name="EMIN">     10.00000000</i>
   <i name="EMAX">    -10.00000000</i>
   <i name="EFERMI">      0.00000000</i>
  </separator>
  <separator name="writing" >
   <i type="int" name="NWRITE">     2</i>
   <i type="logical" name="LWAVE"> F  </i>
   <i type="logical" name="LDOWNSAMPLE"> F  </i>
   <i type="logical" name="LCHARG"> F  </i>
   <i type="logical" name="LPARD"> F  </i>
   <i type="logical" name="LVTOT"> F  </i>
   <i type="logical" name="LVHAR"> F  </i>
   <i type="logical" name="LELF"> F  </i>
   <i type="logical" name="LOPTICS"> F  </i>
   <v name="STM">      0.00000000      0.00000000      0.00000000      0.00000000      0.00000000      0.00000000      0.00000000</v>
  </separator>
  <separator name="performance" >
   <i type="int" name="NPAR">     4</i>
   <i type="int" name="NSIM">     4</i>
   <i type="int" name="NBLK">    -1</i>
   <i type="logical" name="LPLANE"> T  </i>
   <i type="logical" name="LSCALAPACK"> T  </i>
   <i type="logical" name="LSCAAWARE"> F  </i>
   <i type="logical" name="LSCALU"> F  </i>
   <i type="logical" name="LASYNC"> F  </i>
   <i type="logical" name="LORBITALREAL"> F  </i>
  </separator>
  <separator name="miscellaneous" >
   <i type="int" name="IDIOT">     3</i>
   <i type="int" name="PHON_NSTRUCT">    -1</i>
   <i type="logical" name="LMUSIC"> F  </i>
   <v name="POMASS">     28.08500000</v>
   <v name="DARWINR">      0.00000000</v>
   <v name="DARWINV">      1.00000000</v>
   <i type="logical" name="LCORR"> T  </i>
  </separator>
  <i type="logical" name="GGA_COMPAT"> T  </i>
  <i type="logical" name="LBERRY"> F  </i>
  <i type="int" name="ICORELEVEL">     0</i>
  <i type="logical" name="LDAU"> F  </i>
  <i type="int" name="I_CONSTRAINED_M">     0</i>
  <separator name="electronic exchange-correlation" >
   <i type="string" name="GGA">--</i>
   <i type="int" name="VOSKOWN">     0</i>
   <i type="logical" name="LHFCALC"> F  </i>
   <i type="string" name="PRECFOCK"></i>
   <i type="logical" name="LSYMGRAD"> F  </i>
   <i type="logical" name="LHFONE"> F  </i>
   <i type="logical" name="LRHFCALC"> F  </i>
   <i type="logical" name="LTHOMAS"> F  </i>
   <i type="logical" name="LMODELHF"> F  </i>
   <i type="logical" name="LFOCKACE"> F  </i>
   <i name="ENCUT4O">     -1.00000000</i>
   <i type="int" name="EXXOEP">     0</i>
   <i type="int" name="FOURORBIT">     0</i>
   <i name="AEXX">      0.00000000</i>
   <i name="HFALPHA">      0.00000000</i>
   <i name="MCALPHA">      0.00000000</i>
   <i name="ALDAX">      1.00000000</i>
   <i name="AGGAX">      1.00000000</i>
   <i name="ALDAC">      1.00000000</i>
   <i name="AGGAC">      1.00000000</i>
   <i type="int" name="NKREDX">     1</i>
   <i type="int" name="NKREDY">     1</i>
   <i type="int" name="NKREDZ">     1</i>
   <i type="logical" name="SHIFTRED"> F  </i>
   <i type="logical" name="ODDONLY"> F  </i>
   <i type="logical" name="EVENONLY"> F  </i>
   <i type="int" name="LMAXFOCK">     0</i>
   <i type="int" name="NMAXFOCKAE">     0</i>
   <i type="logical" name="LFOCKAEDFT"> F  </i>
   <i name="HFSCREEN">      0.00000000</i>
   <i name="HFSCREENC">      0.00000000</i>
   <i type="int" name="NBANDSGWLOW">     0</i>
  </separator>
  <separator name="vdW DFT" >
   <i type="logical" name="LUSE_VDW"> F  </i>
   <i name="Zab_VDW">     -0.84910000</i>
   <i name="PARAM1">      0.12340000</i>
   <i name="PARAM2">      1.00000000</i>
   <i name="PARAM3">      0.00000000</i>
  </separator>
  <separator name="model GW" >
   <i type="int" name="MODEL_GW">     0</i>
   <i name="MODEL_EPS0">      8.44895106</i>
   <i name="MODEL_ALPHA">      1.00000000</i>
  </separator>
  <separator name="linear response parameters" >
   <i type="logical" name="LEPSILON"> F  </i>
   <i type="logical" name="LRPA"> F  </i>
   <i type="logical" name="LNABLA"> F  </i>
   <i type="logical" name="LVEL"> F  </i>
   <i type="int" name="KINTER">     0</i>
   <i name="CSHIFT">      0.10000000</i>
   <i name="OMEGAMAX">     -1.00000000</i>
   <i name="DEG_THRESHOLD">      0.00200000</i>
   <i name="RTIME">     -0.10000000</i>
   <i name="WPLASMAI">      0.00000000</i>
   <v name="DFIELD">      0.00000000      0.00000000      0.00000000</v>
   <v name="WPLASMA">      0.00000000      0.00000000      0.00000000      0.00000000      0.00000000      0.00000000      0.00000000      0.00000000      0.00000000</v>
  </separator>
  <separator name="orbital magnetization" >
   <i type="logical" name="NUCIND"> F  </i>
   <v name="MAGPOS">      0.00000000      0.00000000      0.00000000</v>
   <i type="logical" name="LNICSALL"> T  </i>
   <i type="logical" name="ORBITALMAG"> F  </i>
   <i type="logical" name="LMAGBLOCH"> F  </i>
   <i type="logical" name="LCHIMAG"> F  </i>
   <i type="logical" name="LGAUGE"> T  </i>
   <i type="int" name="MAGATOM">     0</i>
   <v name="MAGDIPOL">      0.00000000      0.00000000      0.00000000</v>
   <v name="AVECCONST">      0.00000000      0.00000000      0.00000000</v>
  </separator>
  <separator name="response functions" >
   <i type="logical" name="LFINITE_TEMPERATURE"> F  </i>
   <i type="logical" name="LADDER"> F  </i>
   <i type="logical" name="LRPAFORCE"> F  </i>
   <i type="logical" name="LFXC"> F  </i>
   <i type="logical" name="LHARTREE"> T  </i>
   <i type="int" name="IBSE">     0</i>
   <v type="int" name="KPOINT">    -1     0     0     0</v>
   <i type="logical" name="LTCTC"> F  </i>
   <i type="logical" name="LTCTE"> F  </i>
   <i type="logical" name="LTETE"> F  </i>
   <i type="logical" name="LTRIPLET"> F  </i>
   <i type="logical" name="LFXCEPS"> F  </i>
   <i type="logical" name="LFXHEG"> F  </i>
   <i type="int" name="NATURALO">     2</i>
   <i type="logical" name="LHOLEGF"> F  </i>
   <i type="logical" name="L2ORDER"> F  </i>
   <i type="logical" name="LDMP1"> F  </i>
   <i type="logical" name="LMP2LT"> F  </i>
   <i type="logical" name="LSMP2LT"> F  </i>
   <i type="logical" name="LGWLF"> F  </i>
   <i name="ENCUTGW">     -2.00000000</i>
   <i name="ENCUTGWSOFT">     -2.00000000</i>
   <i name="ENCUTLF">     -1.00000000</i>
   <i type="logical" name="LESF_SPLINES"> F  </i>
   <i type="int" name="LMAXMP2">    -1</i>
   <i name="SCISSOR">      0.00000000</i>
   <i type="int" name="NOMEGA">     0</i>
   <i type="int" name="NOMEGAR">     0</i>
   <i type="int" name="NBANDSGW">    -1</i>
   <i type="int" name="NBANDSO">    -1</i>
   <i type="int" name="NBANDSV">    -1</i>
   <i type="int" name="NELM">    90</i>
   <i type="int" name="NELMHF">     1</i>
   <i type="int" name="DIM">     3</i>
   <i type="int" name="IESPILON">     4</i>
   <i type="int" name="ANTIRES">     0</i>
   <i name="OMEGAMAX">    -30.00000000</i>
   <i name="OMEGAMIN">    -30.00000000</i>
   <i name="OMEGATL">   -200.00000000</i>
   <i type="int" name="OMEGAGRID">     0</i>
   <i name="CSHIFT">     -0.10000000</i>
   <i type="logical" name="LSELFENERGY"> F  </i>
   <i type="logical" name="LSPECTRAL"> F  </i>
   <i type="logical" name="LSPECTRALGW"> F  </i>
   <i type="logical" name="LSINGLES"> F  </i>
   <i type="logical" name="LFERMIGW"> F  </i>
   <i type="logical" name="ODDONLYGW"> F  </i>
   <i type="logical" name="EVENONLYGW"> F  </i>
   <i type="int" name="NKREDLFX">     1</i>
   <i type="int" name="NKREDLFY">     1</i>
   <i type="int" name="NKREDLFZ">     1</i>
   <i type="int" name="MAXMEM">  2800</i>
   <i type="int" name="TELESCOPE">     0</i>
   <i type="int" name="NTAUPAR">    -1</i>
   <i type="int" name="NOMEGAPAR">    -1</i>
   <i name="DAMP_NEWTON">      0.80000001</i>
   <i name="LAMBDA">      1.00000000</i>
  </separator>
  <separator name="External order field" >
   <i name="OFIELD_KAPPA">      0.00000000</i>
   <v name="OFIELD_K">      0.00000000      0.00000000      0.00000000</v>
   <i name="OFIELD_Q6_NEAR">      0.00000000</i>
   <i name="OFIELD_Q6_FAR">      0.00000000</i>
   <i name="OFIELD_A">      0.00000000</i>
  </separator>
 </parameters>
 <atominfo>
  <atoms>       1 </atoms>
  <types>       1 </types>
  <array name="atoms" >
   <dimension dim="1">ion</dimension>
   <field type="string">element</field>
   <field type="int">atomtype</field>
   <set>
    <rc><c>Si</c><c>   1</c></rc>
   </set>
  </array>
  <array name="atomtypes" >
   <dimension dim="1">type</dimension>
   <field type="int">atomspertype</field>
   <field type="string">element</field>
   <field>mass</field>
   <field>valence</field>
   <field type="string">pseudopotential</field>
   <set>
    <rc><c>   1</c><c>Si</c><c>     28.08500000</c><c>      4.00000000</c><c>  PAW_PBE Si 05Jan2001                  </c></rc>
   </set>
  </array>
 </atominfo>
 <structure name="initialpos" >
  <crystal>
   <varray name="basis" >
    <v>       2.34739500       0.00000000       1.35526800 </v>
    <v>       0.78246500       2.21314500       1.35526800 </v>
    <v>       0.00000000       0.00000000       2.71053800 </v>
   </varray>
   <i name="volume">     14.08158510 </i>
   <varray name="rec_basis" >
    <v>       0.42600415      -0.15061523       0.00000000 </v>
    <v>       0.00000000       0.45184568       0.00000000 </v>
    <v>      -0.21300192      -0.15061511       0.36893045 </v>
   </varray>
  </crystal>
  <varray name="positions" >
   <v>       0.00000000       0.00000000       0.00000000 </v>
  </varray>
 </structure>
 <calculation>
  <scstep>
   <time name="dav">    0.05    0.05</time>
   <time name="total">    0.23    0.24</time>
   <energy>
    <i name="alphaZ">      2.39057823 </i>
    <i name="ewald">   -137.78496289 </i>
    <i name="hartreedc">     -0.54229904 </i>
    <i name="XCdc">     -8.73348015 </i>
    <i name="pawpsdc">     88.12379961 </i>
    <i name="pawaedc">    -70.53051779 </i>
    <i name="eentropy">     -0.00485198 </i>
    <i name="bandstr">     21.08537403 </i>
    <i name="atom">    103.06562707 </i>
    <i name="e_fr_energy">     -2.93073291 </i>
    <i name="e_wo_entrp">     -2.92588093 </i>
    <i name="e_0_energy">     -2.92830692 </i>
   </energy>
  </scstep>
  <scstep>
   <time name="dav">    0.07    0.08</time>
   <time name="total">    0.07    0.08</time>
   <energy>
    <i name="e_fr_energy">     -4.82625009 </i>
    <i name="e_wo_entrp">     -4.82144381 </i>
    <i name="e_0_energy">     -4.82384695 </i>
   </energy>
  </scstep>
  <scstep>
   <time name="dav">    0.08    0.09</time>
   <time name="total">    0.08    0.10</time>
   <energy>
    <i name="e_fr_energy">     -4.83480415 </i>
    <i name="e_wo_entrp">     -4.83003703 </i>
    <i name="e_0_energy">     -4.83242059 </i>
   </energy>
  </scstep>
  <scstep>
   <time name="dav">    0.12    0.13</time>
   <time name="total">    0.13    0.13</time>
   <energy>
    <i name="e_fr_energy">     -4.83481031 </i>
    <i name="e_wo_entrp">     -4.83004319 </i>
    <i name="e_0_energy">     -4.83242675 </i>
   </energy>
  </scstep>
  <scstep>
   <time name="dav">    0.08    0.09</time>
   <time name="total">    0.10    0.11</time>
   <energy>
    <i name="e_fr_energy">     -4.83481031 </i>
    <i name="e_wo_entrp">     -4.83004320 </i>
    <i name="e_0_energy">     -4.83242675 </i>
   </energy>
  </scstep>
  <scstep>
   <time name="dav">    0.06    0.06</time>
   <time name="total">    0.26    0.27</time>
   <energy>
    <i name="e_fr_energy">     -4.82145817 </i>
    <i name="e_wo_entrp">     -4.81666490 </i>
    <i name="e_0_energy">     -4.81906154 </i>
   </energy>
  </scstep>
  <scstep>
   <time name="dav">    0.05    0.05</time>
   <time name="total">    0.25    0.26</time>
   <energy>
    <i name="e_fr_energy">     -4.81377591 </i>
    <i name="e_wo_entrp">     -4.80895151 </i>
    <i name="e_0_energy">     -4.81136371 </i>
   </energy>
  </scstep>
  <scstep>
   <time name="dav">    0.07    0.07</time>
   <time name="total">    0.27    0.28</time>
   <energy>
    <i name="e_fr_energy">     -4.81373860 </i>
    <i name="e_wo_entrp">     -4.80891349 </i>
    <i name="e_0_energy">     -4.81132605 </i>
   </energy>
  </scstep>
  <scstep>
   <time name="dav">    0.06    0.06</time>
   <time name="total">    0.25    0.26</time>
   <energy>
    <i name="alphaZ">      2.39057823 </i>
    <i name="ewald">   -137.78496289 </i>
    <i name="hartreedc">     -0.41109040 </i>
    <i name="XCdc">     -8.67076696 </i>
    <i name="pawpsdc">    316.70042633 </i>
    <i name="pawaedc">   -299.11970427 </i>
    <i name="eentropy">     -0.00482528 </i>
    <i name="bandstr">     19.02097925 </i>
    <i name="atom">    103.06562707 </i>
    <i name="e_fr_energy">     -4.81373892 </i>
    <i name="e_wo_entrp">     -4.80891364 </i>
    <i name="e_0_energy">     -4.81132628 </i>
   </energy>
  </scstep>
  <structure>
   <crystal>
    <varray name="basis" >
     <v>       2.34739500       0.00000000       1.35526800 </v>
     <v>       0.78246500       2.21314500       1.35526800 </v>
     <v>       0.00000000       0.00000000       2.71053800 </v>
    </varray>
    <i name="volume">     14.08158510 </i>
    <varray name="rec_basis" >
     <v>       0.42600415      -0.15061523       0.00000000 </v>
     <v>       0.00000000       0.45184568       0.00000000 </v>
     <v>      -0.21300192      -0.15061511       0.36893045 </v>
    </varray>
   </crystal>
   <varray name="positions" >
    <v>       0.00000000       0.00000000       0.00000000 </v>
   </varray>
  </structure>
  <varray name="forces" >
   <v>      -0.00000000       0.00000000       0.00000000 </v>
  </varray>
  <varray name="stress" >
   <v>      29.43544111      -0.00000000      -0.00001254 </v>
   <v>      -0.00000000      29.43543499      -0.00000887 </v>
   <v>      -0.00001254      -0.00000887      29.43543524 </v>
  </varray>
  <energy>
   <i name="e_fr_energy">     -4.81373892 </i>
   <i name="e_wo_entrp">     -4.80891364 </i>
   <i name="e_0_energy">     -4.81132628 </i>
  </energy>
  <time name="totalsc">    2.27    2.40</time>
 </calculation>
 <calculation>
  <scstep>
   <time name="dav">    0.05    0.05</time>
   <time name="total">    0.25    0.25</time>
   <energy>
    <i name="alphaZ">      2.30325787 </i>
    <i name="ewald">   -136.08649372 </i>
    <i name="hartreedc">     -0.40596543 </i>
    <i name="XCdc">     -8.76776226 </i>
    <i name="pawpsdc">    316.69444047 </i>
    <i name="pawaedc">   -299.11344492 </i>
    <i name="eentropy">     -0.00519957 </i>
    <i name="bandstr">     17.49465954 </i>
    <i name="atom">    103.06562707 </i>
    <i name="e_fr_energy">     -4.82088095 </i>
    <i name="e_wo_entrp">     -4.81568138 </i>
    <i name="e_0_energy">     -4.81828116 </i>
   </energy>
  </scstep>
  <scstep>
   <time name="dav">    0.08    0.08</time>
   <time name="total">    0.28    0.29</time>
   <energy>
    <i name="e_fr_energy">     -4.81919084 </i>
    <i name="e_wo_entrp">     -4.81401293 </i>
    <i name="e_0_energy">     -4.81660188 </i>
   </energy>
  </scstep>
  <scstep>
   <time name="dav">    0.05    0.05</time>
   <time name="total">    0.25    0.26</time>
   <energy>
    <i name="e_fr_energy">     -4.81821232 </i>
    <i name="e_wo_entrp">     -4.81306386 </i>
    <i name="e_0_energy">     -4.81563809 </i>
   </energy>
  </scstep>
  <scstep>
   <time name="dav">    0.07    0.07</time>
   <time name="total">    0.27    0.28</time>
   <energy>
    <i name="e_fr_energy">     -4.81821062 </i>
    <i name="e_wo_entrp">     -4.81306200 </i>
    <i name="e_0_energy">     -4.81563631 </i>
   </energy>
  </scstep>
  <scstep>
   <time name="dav">    0.04    0.04</time>
   <time name="total">    0.24    0.24</time>
   <energy>
    <i name="e_fr_energy">     -4.81820550 </i>
    <i name="e_wo_entrp">     -4.81305693 </i>
    <i name="e_0_energy">     -4.81563122 </i>
   </energy>
  </scstep>
  <scstep>
   <time name="dav">    0.03    0.03</time>
   <time name="total">    0.21    0.22</time>
   <energy>
    <i name="alphaZ">      2.30325787 </i>
    <i name="ewald">   -136.08649372 </i>
    <i name="hartreedc">     -0.46701439 </i>
    <i name="XCdc">     -8.78030871 </i>
    <i name="pawpsdc">    292.53381365 </i>
    <i name="pawaedc">   -274.94672491 </i>
    <i name="eentropy">     -0.00514856 </i>
    <i name="bandstr">     17.56478599 </i>
    <i name="atom">    103.06562707 </i>
    <i name="e_fr_energy">     -4.81820571 </i>
    <i name="e_wo_entrp">     -4.81305716 </i>
    <i name="e_0_energy">     -4.81563143 </i>
   </energy>
  </scstep>
  <structure>
   <crystal>
    <varray name="basis" >
     <v>       2.37669238      -0.00000001       1.37218282 </v>
     <v>       0.79223079       2.24076683       1.37218282 </v>
     <v>      -0.00000001      -0.00000001       2.74436770 </v>
    </varray>
    <i name="volume">     14.61544158 </i>
    <varray name="rec_basis" >
     <v>       0.42075281      -0.14875860       0.00000000 </v>
     <v>       0.00000000       0.44627580       0.00000000 </v>
     <v>      -0.21037625      -0.14875849       0.36438266 </v>
    </varray>
   </crystal>
   <varray name="positions" >
    <v>      -0.00000000       0.00000000       0.00000000 </v>
   </varray>
  </structure>
  <varray name="forces" >
   <v>      -0.00000000      -0.00000000       0.00000000 </v>
  </varray>
  <varray name="stress" >
   <v>      -1.20692831      -0.00000000       0.00000053 </v>
   <v>      -0.00000000      -1.20692806       0.00000037 </v>
   <v>       0.00000053       0.00000037      -1.20692807 </v>
  </varray>
  <energy>
   <i name="e_fr_energy">     -4.81820571 </i>
   <i name="e_wo_entrp">     -4.81305716 </i>
   <i name="e_0_energy">     -4.81563143 </i>
  </energy>
  <time name="totalsc">    2.12    2.22</time>
 </calculation>
 <calculation>
  <scstep>
   <time name="dav">    0.05    0.05</time>
   <time name="total">    0.24    0.25</time>
   <energy>
    <i name="alphaZ">      2.30711120 </i>
    <i name="ewald">   -136.16234191 </i>
    <i name="hartreedc">     -0.46727335 </i>
    <i name="XCdc">     -8.77601873 </i>
    <i name="pawpsdc">    292.42236454 </i>
    <i name="pawaedc">   -274.83529737 </i>
    <i name="eentropy">     -0.00511406 </i>
    <i name="bandstr">     17.63272202 </i>
    <i name="atom">    103.06562707 </i>
    <i name="e_fr_energy">     -4.81822060 </i>
    <i name="e_wo_entrp">     -4.81310653 </i>
    <i name="e_0_energy">     -4.81566356 </i>
   </energy>
  </scstep>
  <scstep>
   <time name="dav">    0.06    0.07</time>
   <time name="total">    0.26    0.27</time>
   <energy>
    <i name="e_fr_energy">     -4.81821700 </i>
    <i name="e_wo_entrp">     -4.81310210 </i>
    <i name="e_0_energy">     -4.81565955 </i>
   </energy>
  </scstep>
  <scstep>
   <time name="dav">    0.05    0.05</time>
   <time name="total">    0.24    0.25</time>
   <energy>
    <i name="e_fr_energy">     -4.81821510 </i>
    <i name="e_wo_entrp">     -4.81309898 </i>
    <i name="e_0_energy">     -4.81565704 </i>
   </energy>
  </scstep>
  <scstep>
   <time name="dav">    0.03    0.03</time>
   <time name="total">    0.22    0.24</time>
   <energy>
    <i name="e_fr_energy">     -4.81821512 </i>
    <i name="e_wo_entrp">     -4.81309901 </i>
    <i name="e_0_energy">     -4.81565707 </i>
   </energy>
  </scstep>
  <scstep>
   <time name="dav">    0.03    0.03</time>
   <time name="total">    0.22    0.24</time>
   <energy>
    <i name="e_fr_energy">     -4.81821524 </i>
    <i name="e_wo_entrp">     -4.81309913 </i>
    <i name="e_0_energy">     -4.81565719 </i>
   </energy>
  </scstep>
  <scstep>
   <time name="dav">    0.03    0.03</time>
   <time name="total">    0.21    0.22</time>
   <energy>
    <i name="alphaZ">      2.30711120 </i>
    <i name="ewald">   -136.16234191 </i>
    <i name="hartreedc">     -0.46427684 </i>
    <i name="XCdc">     -8.77544779 </i>
    <i name="pawpsdc">    293.39866776 </i>
    <i name="pawaedc">   -275.81185303 </i>
    <i name="eentropy">     -0.00511611 </i>
    <i name="bandstr">     17.62941442 </i>
    <i name="atom">    103.06562707 </i>
    <i name="e_fr_energy">     -4.81821523 </i>
    <i name="e_wo_entrp">     -4.81309912 </i>
    <i name="e_0_energy">     -4.81565718 </i>
   </energy>
  </scstep>
  <structure>
   <crystal>
    <varray name="basis" >
     <v>       2.37536846      -0.00000000       1.37141846 </v>
     <v>       0.79178948       2.23951863       1.37141846 </v>
     <v>      -0.00000001      -0.00000001       2.74283897 </v>
    </varray>
    <i name="volume">     14.59103092 </i>
    <varray name="rec_basis" >
     <v>       0.42098732      -0.14884151       0.00000000 </v>
     <v>       0.00000000       0.44652453       0.00000000 </v>
     <v>      -0.21049350      -0.14884140       0.36458575 </v>
    </varray>
   </crystal>
   <varray name="positions" >
    <v>      -0.00000000      -0.00000000       0.00000000 </v>
   </varray>
  </structure>
  <varray name="forces" >
   <v>       0.00000000       0.00000000       0.00000000 </v>
  </varray>
  <varray name="stress" >
   <v>       0.00196751      -0.00000000      -0.00000000 </v>
   <v>       0.00000000       0.00196751      -0.00000000 </v>
   <v>      -0.00000000      -0.00000000       0.00196751 </v>
  </varray>
  <energy>
   <i name="e_fr_energy">     -4.81821523 </i>
   <i name="e_wo_entrp">     -4.81309912 </i>
   <i name="e_0_energy">     -4.81565718 </i>
  </energy>
  <time name="totalsc">    2.02    2.13</time>
  <eigenvalues>
   <array>
    <dimension dim="1">band</dimension>
    <dimension dim="2">kpoint</dimension>
    <dimension dim="3">spin</dimension>
    <field>eigene</field>
    <field>occ</field>
    <set>
     <set comment="spin 1">
      <set comment="kpoint 1">
       <r>   -3.8634    1.0000 </r>
       <r>   16.5568    0.0000 </r>
       <r>   19.7999    0.0000 </r>
       <r>   19.7999    0.0000 </r>
       <r>   23.2532    0.0000 </r>
       <r>   23.7403    0.0000 </r>
       <r>   23.7403    0.0000 </r>
       <r>   27.2551    0.0000 </r>
      </set>
      <set comment="kpoint 2">
       <r>   -1.4695    1.0000 </r>
       <r>   10.0984    0.7470 </r>
       <r>   14.4938    0.0000 </r>
       <r>   19.3969    0.0000 </r>
       <r>   22.5669    0.0000 </r>
       <r>   22.8778    0.0000 </r>
       <r>   24.9315    0.0000 </r>
       <r>   26.8138    0.0000 </r>
      </set>
      <set comment="kpoint 3">
       <r>    2.0386    1.0000 </r>
       <r>    4.4614    1.0000 </r>
       <r>   15.4772    0.0000 </r>
       <r>   16.7081    0.0000 </r>
       <r>   19.4355    0.0000 </r>
       <r>   23.5122    0.0000 </r>
       <r>   25.6542    0.0000 </r>
       <r>   29.1833    0.0000 </r>
      </set>
      <set comment="kpoint 4">
       <r>   -2.6624    1.0000 </r>
       <r>   13.3773    0.0000 </r>
       <r>   16.7651    0.0000 </r>
       <r>   18.4166    0.0000 </r>
       <r>   20.2515    0.0000 </r>
       <r>   22.8726    0.0000 </r>
       <r>   26.7470    0.0000 </r>
       <r>   26.8095    0.0000 </r>
      </set>
      <set comment="kpoint 5">
       <r>   -0.2814    1.0000 </r>
       <r>   11.1556    0.0000 </r>
       <r>   13.4386    0.0000 </r>
       <r>   14.6759    0.0000 </r>
       <r>   17.1613    0.0000 </r>
       <r>   20.6728    0.0000 </r>
       <r>   29.2712    0.0000 </r>
       <r>   31.0954    0.0000 </r>
      </set>
      <set comment="kpoint 6">
       <r>    4.3596    1.0000 </r>
       <r>    6.6953    1.0000 </r>
       <r>    9.0574    1.0000 </r>
       <r>   11.3686    0.0000 </r>
       <r>   20.4490    0.0000 </r>
       <r>   24.4611    0.0000 </r>
       <r>   27.0305    0.0000 </r>
       <r>   30.5680    0.0000 </r>
      </set>
      <set comment="kpoint 7">
       <r>    0.8943    1.0000 </r>
       <r>    7.8447    1.0000 </r>
       <r>   12.3323    0.0000 </r>
       <r>   14.6163    0.0000 </r>
       <r>   21.3934    0.0000 </r>
       <r>   23.5962    0.0000 </r>
       <r>   25.7912    0.0000 </r>
       <r>   29.8256    0.0000 </r>
      </set>
      <set comment="kpoint 8">
       <r>    3.2237    1.0000 </r>
       <r>    7.8781    1.0000 </r>
       <r>   10.1165    0.5616 </r>
       <r>   13.6229    0.0000 </r>
       <r>   15.9711    0.0000 </r>
       <r>   19.6277    0.0000 </r>
       <r>   32.1861    0.0000 </r>
       <r>   34.1888    0.0000 </r>
      </set>
      <set comment="kpoint 9">
       <r>   -0.2870    1.0000 </r>
       <r>    6.7338    1.0000 </r>
       <r>   18.5199    0.0000 </r>
       <r>   18.5199    0.0000 </r>
       <r>   21.6844    0.0000 </r>
       <r>   21.6844    0.0000 </r>
       <r>   23.1136    0.0000 </r>
       <r>   26.7215    0.0000 </r>
      </set>
      <set comment="kpoint 10">
       <r>    3.2076    1.0000 </r>
       <r>    5.5869    1.0000 </r>
       <r>   10.1914    0.0247 </r>
       <r>   15.6950    0.0000 </r>
       <r>   18.3916    0.0000 </r>
       <r>   26.6062    0.0000 </r>
       <r>   28.1896    0.0000 </r>
       <r>   29.9351    0.0000 </r>
      </set>
     </set>
    </set>
   </array>
  </eigenvalues>
  <separator name="orbital magnetization" >
   <v name="MAGDIPOLOUT">      0.00000000      0.00000000      0.00000000</v>
  </separator>
  <dos>
   <i name="efermi">     10.12195357 </i>
   <total>
    <array>
     <dimension dim="1">gridpoints</dimension>
     <dimension dim="2">spin</dimension>
     <field>energy</field>
     <field>total</field>
     <field>integrated</field>
     <set>
      <set comment="spin 1">
       <r>    -5.7660     0.0000     0.0000 </r>
       <r>    -5.6265     0.0000     0.0000 </r>
       <r>    -5.4869     0.0000     0.0000 </r>
       <r>    -5.3474     0.0000     0.0000 </r>
       <r>    -5.2079     0.0000     0.0000 </r>
       <r>    -5.0684     0.0000     0.0000 </r>
       <r>    -4.9288     0.0000     0.0000 </r>
       <r>    -4.7893     0.0000     0.0000 </r>
       <r>    -4.6498     0.0000     0.0000 </r>
       <r>    -4.5103     0.0000     0.0000 </r>
       <r>    -4.3707     0.0000     0.0000 </r>
       <r>    -4.2312     0.0000     0.0000 </r>
       <r>    -4.0917     0.0000     0.0000 </r>
       <r>    -3.9522     0.0027     0.0004 </r>
       <r>    -3.8126     0.4114     0.0578 </r>
       <r>    -3.6731     0.0339     0.0625 </r>
       <r>    -3.5336     0.0000     0.0625 </r>
       <r>    -3.3941     0.0000     0.0625 </r>
       <r>    -3.2545     0.0000     0.0625 </r>
       <r>    -3.1150     0.0000     0.0625 </r>
       <r>    -2.9755     0.0000     0.0625 </r>
       <r>    -2.8360     0.0000     0.0625 </r>
       <r>    -2.6964     0.2254     0.0940 </r>
       <r>    -2.5569     1.1165     0.2497 </r>
       <r>    -2.4174     0.0019     0.2500 </r>
       <r>    -2.2779     0.0000     0.2500 </r>
       <r>    -2.1383     0.0000     0.2500 </r>
       <r>    -1.9988     0.0000     0.2500 </r>
       <r>    -1.8593     0.0000     0.2500 </r>
       <r>    -1.7198     0.0000     0.2500 </r>
       <r>    -1.5802     0.0012     0.2502 </r>
       <r>    -1.4407     1.0636     0.3986 </r>
       <r>    -1.3012     0.2791     0.4375 </r>
       <r>    -1.1617     0.0000     0.4375 </r>
       <r>    -1.0221     0.0000     0.4375 </r>
       <r>    -0.8826     0.0000     0.4375 </r>
       <r>    -0.7431     0.0000     0.4375 </r>
       <r>    -0.6036     0.0000     0.4375 </r>
       <r>    -0.4641     0.0000     0.4375 </r>
       <r>    -0.3245     0.2142     0.4674 </r>
       <r>    -0.1850     1.5725     0.6868 </r>
       <r>    -0.0455     0.0052     0.6875 </r>
       <r>     0.0940     0.0000     0.6875 </r>
       <r>     0.2336     0.0000     0.6875 </r>
       <r>     0.3731     0.0000     0.6875 </r>
       <r>     0.5126     0.0000     0.6875 </r>
       <r>     0.6521     0.0000     0.6875 </r>
       <r>     0.7917     0.0050     0.6882 </r>
       <r>     0.9312     2.2848     1.0070 </r>
       <r>     1.0707     0.3980     1.0625 </r>
       <r>     1.2102     0.0000     1.0625 </r>
       <r>     1.3498     0.0000     1.0625 </r>
       <r>     1.4893     0.0000     1.0625 </r>
       <r>     1.6288     0.0000     1.0625 </r>
       <r>     1.7683     0.0000     1.0625 </r>
       <r>     1.9079     0.0001     1.0625 </r>
       <r>     2.0474     0.8036     1.1746 </r>
       <r>     2.1869     0.5401     1.2500 </r>
       <r>     2.3264     0.0000     1.2500 </r>
       <r>     2.4660     0.0000     1.2500 </r>
       <r>     2.6055     0.0000     1.2500 </r>
       <r>     2.7450     0.0000     1.2500 </r>
       <r>     2.8845     0.0000     1.2500 </r>
       <r>     3.0241     0.0000     1.2500 </r>
       <r>     3.1636     0.2032     1.2783 </r>
       <r>     3.3031     2.4633     1.6220 </r>
       <r>     3.4426     0.0212     1.6250 </r>
       <r>     3.5822     0.0000     1.6250 </r>
       <r>     3.7217     0.0000     1.6250 </r>
       <r>     3.8612     0.0000     1.6250 </r>
       <r>     4.0007     0.0000     1.6250 </r>
       <r>     4.1403     0.0000     1.6250 </r>
       <r>     4.2798     0.0323     1.6295 </r>
       <r>     4.4193     2.6905     2.0049 </r>
       <r>     4.5588     1.3048     2.1870 </r>
       <r>     4.6984     0.0039     2.1875 </r>
       <r>     4.8379     0.0000     2.1875 </r>
       <r>     4.9774     0.0000     2.1875 </r>
       <r>     5.1169     0.0000     2.1875 </r>
       <r>     5.2565     0.0000     2.1875 </r>
       <r>     5.3960     0.0000     2.1875 </r>
       <r>     5.5355     0.0983     2.2012 </r>
       <r>     5.6750     1.2370     2.3738 </r>
       <r>     5.8146     0.0085     2.3750 </r>
       <r>     5.9541     0.0000     2.3750 </r>
       <r>     6.0936     0.0000     2.3750 </r>
       <r>     6.2331     0.0000     2.3750 </r>
       <r>     6.3727     0.0000     2.3750 </r>
       <r>     6.5122     0.0000     2.3750 </r>
       <r>     6.6517     0.2967     2.4164 </r>
       <r>     6.7912     2.8066     2.8080 </r>
       <r>     6.9308     0.0323     2.8125 </r>
       <r>     7.0703     0.0000     2.8125 </r>
       <r>     7.2098     0.0000     2.8125 </r>
       <r>     7.3493     0.0000     2.8125 </r>
       <r>     7.4889     0.0000     2.8125 </r>
       <r>     7.6284     0.0000     2.8125 </r>
       <r>     7.7679     0.0413     2.8183 </r>
       <r>     7.9074     3.6143     3.3225 </r>
       <r>     8.0470     0.3760     3.3750 </r>
       <r>     8.1865     0.0000     3.3750 </r>
       <r>     8.3260     0.0000     3.3750 </r>
       <r>     8.4655     0.0000     3.3750 </r>
       <r>     8.6051     0.0000     3.3750 </r>
       <r>     8.7446     0.0000     3.3750 </r>
       <r>     8.8841     0.0000     3.3750 </r>
       <r>     9.0236     0.4572     3.4388 </r>
       <r>     9.1632     2.2268     3.7495 </r>
       <r>     9.3027     0.0037     3.7500 </r>
       <r>     9.4422     0.0000     3.7500 </r>
       <r>     9.5817     0.0000     3.7500 </r>
       <r>     9.7213     0.0000     3.7500 </r>
       <r>     9.8608     0.0000     3.7500 </r>
       <r>    10.0003     0.0044     3.7506 </r>
       <r>    10.1398     2.2759     4.0682 </r>
       <r>    10.2794     1.7426     4.3113 </r>
       <r>    10.4189     0.0087     4.3125 </r>
       <r>    10.5584     0.0000     4.3125 </r>
       <r>    10.6979     0.0000     4.3125 </r>
       <r>    10.8374     0.0000     4.3125 </r>
       <r>    10.9770     0.0000     4.3125 </r>
       <r>    11.1165     0.1810     4.3377 </r>
       <r>    11.2560     1.1618     4.4999 </r>
       <r>    11.3955     2.0904     4.7915 </r>
       <r>    11.5351     0.5983     4.8750 </r>
       <r>    11.6746     0.0000     4.8750 </r>
       <r>    11.8141     0.0000     4.8750 </r>
       <r>    11.9536     0.0000     4.8750 </r>
       <r>    12.0932     0.0000     4.8750 </r>
       <r>    12.2327     0.0065     4.8759 </r>
       <r>    12.3722     2.3333     5.2015 </r>
       <r>    12.5117     0.3478     5.2500 </r>
       <r>    12.6513     0.0000     5.2500 </r>
       <r>    12.7908     0.0000     5.2500 </r>
       <r>    12.9303     0.0000     5.2500 </r>
       <r>    13.0698     0.0000     5.2500 </r>
       <r>    13.2094     0.0000     5.2500 </r>
       <r>    13.3489     0.2910     5.2906 </r>
       <r>    13.4884     2.2892     5.6100 </r>
       <r>    13.6279     0.8549     5.7293 </r>
       <r>    13.7675     0.5964     5.8125 </r>
       <r>    13.9070     0.0000     5.8125 </r>
       <r>    14.0465     0.0000     5.8125 </r>
       <r>    14.1860     0.0000     5.8125 </r>
       <r>    14.3256     0.0000     5.8125 </r>
       <r>    14.4651     0.2798     5.8515 </r>
       <r>    14.6046     2.0894     6.1431 </r>
       <r>    14.7441     2.9698     6.5574 </r>
       <r>    14.8837     0.0364     6.5625 </r>
       <r>    15.0232     0.0000     6.5625 </r>
       <r>    15.1627     0.0000     6.5625 </r>
       <r>    15.3022     0.0000     6.5625 </r>
       <r>    15.4418     0.2128     6.5922 </r>
       <r>    15.5813     1.1297     6.7498 </r>
       <r>    15.7208     1.0322     6.8938 </r>
       <r>    15.8603     0.3141     6.9377 </r>
       <r>    15.9999     1.0635     7.0861 </r>
       <r>    16.1394     0.2792     7.1250 </r>
       <r>    16.2789     0.0000     7.1250 </r>
       <r>    16.4184     0.0000     7.1250 </r>
       <r>    16.5580     0.2300     7.1571 </r>
       <r>    16.6975     0.7694     7.2644 </r>
       <r>    16.8370     2.1078     7.5585 </r>
       <r>    16.9765     0.0284     7.5625 </r>
       <r>    17.1161     0.1352     7.5814 </r>
       <r>    17.2556     1.2036     7.7493 </r>
       <r>    17.3951     0.0051     7.7500 </r>
       <r>    17.5346     0.0000     7.7500 </r>
       <r>    17.6742     0.0000     7.7500 </r>
       <r>    17.8137     0.0000     7.7500 </r>
       <r>    17.9532     0.0000     7.7500 </r>
       <r>    18.0927     0.0000     7.7500 </r>
       <r>    18.2323     0.0000     7.7500 </r>
       <r>    18.3718     0.5246     7.8232 </r>
       <r>    18.5113     2.5192     8.1747 </r>
       <r>    18.6508     0.5397     8.2500 </r>
       <r>    18.7904     0.0001     8.2500 </r>
       <r>    18.9299     0.0000     8.2500 </r>
       <r>    19.0694     0.0000     8.2500 </r>
       <r>    19.2089     0.0000     8.2500 </r>
       <r>    19.3485     0.1238     8.2673 </r>
       <r>    19.4880     2.4649     8.6112 </r>
       <r>    19.6275     0.7684     8.7184 </r>
       <r>    19.7670     0.8321     8.8345 </r>
       <r>    19.9066     0.7371     8.9373 </r>
       <r>    20.0461     0.0011     8.9375 </r>
       <r>    20.1856     0.0420     8.9434 </r>
       <r>    20.3251     1.2775     9.1216 </r>
       <r>    20.4647     1.8284     9.3767 </r>
       <r>    20.6042     0.9187     9.5049 </r>
       <r>    20.7437     1.2786     9.6833 </r>
       <r>    20.8832     0.0303     9.6875 </r>
       <r>    21.0228     0.0000     9.6875 </r>
       <r>    21.1623     0.0000     9.6875 </r>
       <r>    21.3018     0.0129     9.6893 </r>
       <r>    21.4413     2.4394    10.0297 </r>
       <r>    21.5809     0.2369    10.0627 </r>
       <r>    21.7204     0.7561    10.1682 </r>
       <r>    21.8599     0.1382    10.1875 </r>
       <r>    21.9994     0.0000    10.1875 </r>
       <r>    22.1389     0.0000    10.1875 </r>
       <r>    22.2785     0.0000    10.1875 </r>
       <r>    22.4180     0.0000    10.1875 </r>
       <r>    22.5575     0.5311    10.2616 </r>
       <r>    22.6970     0.8126    10.3750 </r>
       <r>    22.8366     0.3715    10.4268 </r>
       <r>    22.9761     2.3104    10.7492 </r>
       <r>    23.1156     0.2400    10.7827 </r>
       <r>    23.2551     0.4475    10.8451 </r>
       <r>    23.3947     0.2149    10.8751 </r>
       <r>    23.5342     1.0911    11.0273 </r>
       <r>    23.6737     2.9285    11.4359 </r>
       <r>    23.8132     0.8897    11.5601 </r>
       <r>    23.9528     0.0175    11.5625 </r>
       <r>    24.0923     0.0000    11.5625 </r>
       <r>    24.2318     0.0000    11.5625 </r>
       <r>    24.3713     0.0150    11.5646 </r>
       <r>    24.5109     2.4590    11.9077 </r>
       <r>    24.6504     0.2137    11.9375 </r>
       <r>    24.7899     0.0000    11.9375 </r>
       <r>    24.9294     0.6413    12.0270 </r>
       <r>    25.0690     0.7024    12.1250 </r>
       <r>    25.2085     0.0001    12.1250 </r>
       <r>    25.3480     0.0000    12.1250 </r>
       <r>    25.4875     0.0000    12.1250 </r>
       <r>    25.6271     0.2975    12.1665 </r>
       <r>    25.7666     1.6992    12.4036 </r>
       <r>    25.9061     2.0332    12.6873 </r>
       <r>    26.0456     0.0015    12.6875 </r>
       <r>    26.1852     0.0000    12.6875 </r>
       <r>    26.3247     0.0000    12.6875 </r>
       <r>    26.4642     0.0000    12.6875 </r>
       <r>    26.6037     0.6345    12.7760 </r>
       <r>    26.7433     1.7238    13.0166 </r>
       <r>    26.8828     3.4051    13.4916 </r>
       <r>    27.0223     1.1584    13.6533 </r>
       <r>    27.1618     1.5907    13.8752 </r>
       <r>    27.3014     0.4037    13.9316 </r>
       <r>    27.4409     0.0426    13.9375 </r>
       <r>    27.5804     0.0000    13.9375 </r>
       <r>    27.7199     0.0000    13.9375 </r>
       <r>    27.8595     0.0000    13.9375 </r>
       <r>    27.9990     0.0000    13.9375 </r>
       <r>    28.1385     0.0996    13.9514 </r>
       <r>    28.2780     1.2359    14.1238 </r>
       <r>    28.4176     0.0083    14.1250 </r>
       <r>    28.5571     0.0000    14.1250 </r>
       <r>    28.6966     0.0000    14.1250 </r>
       <r>    28.8361     0.0000    14.1250 </r>
       <r>    28.9757     0.0000    14.1250 </r>
       <r>    29.1152     0.0364    14.1301 </r>
       <r>    29.2547     1.7095    14.3686 </r>
       <r>    29.3942     0.9414    14.5000 </r>
       <r>    29.5338     0.0003    14.5000 </r>
       <r>    29.6733     0.0000    14.5000 </r>
       <r>    29.8128     0.9657    14.6347 </r>
       <r>    29.9523     2.6444    15.0037 </r>
       <r>    30.0919     0.4214    15.0625 </r>
       <r>    30.2314     0.0000    15.0625 </r>
       <r>    30.3709     0.0000    15.0625 </r>
       <r>    30.5104     0.1388    15.0819 </r>
       <r>    30.6500     2.5213    15.4337 </r>
       <r>    30.7895     0.0275    15.4375 </r>
       <r>    30.9290     0.0000    15.4375 </r>
       <r>    31.0685     0.3002    15.4794 </r>
       <r>    31.2081     1.0427    15.6249 </r>
       <r>    31.3476     0.0010    15.6250 </r>
       <r>    31.4871     0.0000    15.6250 </r>
       <r>    31.6266     0.0000    15.6250 </r>
       <r>    31.7662     0.0000    15.6250 </r>
       <r>    31.9057     0.0000    15.6250 </r>
       <r>    32.0452     0.0000    15.6250 </r>
       <r>    32.1847     0.6506    15.7158 </r>
       <r>    32.3243     0.6932    15.8125 </r>
       <r>    32.4638     0.0001    15.8125 </r>
       <r>    32.6033     0.0000    15.8125 </r>
       <r>    32.7428     0.0000    15.8125 </r>
       <r>    32.8824     0.0000    15.8125 </r>
       <r>    33.0219     0.0000    15.8125 </r>
       <r>    33.1614     0.0000    15.8125 </r>
       <r>    33.3009     0.0000    15.8125 </r>
       <r>    33.4405     0.0000    15.8125 </r>
       <r>    33.5800     0.0000    15.8125 </r>
       <r>    33.7195     0.0000    15.8125 </r>
       <r>    33.8590     0.0000    15.8125 </r>
       <r>    33.9985     0.0000    15.8125 </r>
       <r>    34.1381     0.1016    15.8267 </r>
       <r>    34.2776     1.2341    15.9989 </r>
       <r>    34.4171     0.0081    16.0000 </r>
       <r>    34.5566     0.0000    16.0000 </r>
       <r>    34.6962     0.0000    16.0000 </r>
       <r>    34.8357     0.0000    16.0000 </r>
       <r>    34.9752     0.0000    16.0000 </r>
       <r>    35.1147     0.0000    16.0000 </r>
       <r>    35.2543     0.0000    16.0000 </r>
       <r>    35.3938     0.0000    16.0000 </r>
       <r>    35.5333     0.0000    16.0000 </r>
       <r>    35.6728     0.0000    16.0000 </r>
       <r>    35.8124     0.0000    16.0000 </r>
       <r>    35.9519     0.0000    16.0000 </r>
       <r>    36.0914     0.0000    16.0000 </r>
      </set>
     </set>
    </array>
   </total>
  </dos>
 </calculation>
 <structure name="finalpos" >
  <crystal>
   <varray name="basis" >
    <v>       2.37536846      -0.00000000       1.37141846 </v>
    <v>       0.79178948       2.23951863       1.37141846 </v>
    <v>      -0.00000001      -0.00000001       2.74283897 </v>
   </varray>
   <i name="volume">     14.59103092 </i>
   <varray name="rec_basis" >
    <v>       0.42098732      -0.14884151       0.00000000 </v>
    <v>       0.00000000       0.44652453       0.00000000 </v>
    <v>      -0.21049350      -0.14884140       0.36458575 </v>
   </varray>
  </crystal>
  <varray name="positions" >
   <v>      -0.00000000      -0.00000000       0.00000000 </v>
  </varray>
 </structure>
</modeling>
