 running on    4 total cores
 distrk:  each k-point on    4 cores,    1 groups
 distr:  one band on    1 cores,    4 groups
 vasp.6.2.0 18Jan21 (build Aug 12 2022 13:00:08) complex                        
  
 POSCAR found type information on POSCAR Si
 POSCAR found :  1 types and       1 ions
 scaLAPACK will be used
 LDA part: xc-table for Pade appr. of Perdew
 POSCAR, INCAR and KPOINTS ok, starting setup
 FFT: planning ...
 WAVECAR not read
 entering main loop
       N       E                     dE             d eps       ncg     rms          rms(c)
DAV:   1    -0.293073290824E+01   -0.29307E+01   -0.16983E+03   176   0.291E+02
DAV:   2    -0.482625008702E+01   -0.18955E+01   -0.17419E+01   240   0.251E+01
DAV:   3    -0.483480414698E+01   -0.85541E-02   -0.85440E-02   184   0.169E+00
DAV:   4    -0.483481030709E+01   -0.61601E-05   -0.61610E-05   264   0.454E-02
DAV:   5    -0.483481030911E+01   -0.20249E-08   -0.64873E-09   168   0.179E-04    0.279E+00
DAV:   6    -0.482145817085E+01    0.13352E-01   -0.38781E-03   192   0.271E-01    0.155E+00
DAV:   7    -0.481377591107E+01    0.76823E-02   -0.78608E-03   184   0.386E-01    0.133E-01
DAV:   8    -0.481373860385E+01    0.37307E-04   -0.26779E-05   240   0.415E-02    0.138E-02
DAV:   9    -0.481373892404E+01   -0.32018E-06   -0.31501E-07   192   0.319E-03
   1 F= -.48137389E+01 E0= -.48113263E+01  d E =-.481374E+01
 curvature:   0.00 expect dE= 0.000E+00 dE for cont linesearch  0.000E+00
 trial: gam= 0.00000 g(F)=  0.447E-67 g(S)=  0.969E-02 ort = 0.000E+00 (trialstep = 0.100E+01)
 search vector abs. value=  0.969E-02
 bond charge predicted
       N       E                     dE             d eps       ncg     rms          rms(c)
DAV:   1    -0.482088094853E+01   -0.71423E-02   -0.15356E-01   184   0.153E+00    0.370E-01
DAV:   2    -0.481919083536E+01    0.16901E-02   -0.85162E-04   232   0.210E-01    0.205E-01
DAV:   3    -0.481821231520E+01    0.97852E-03   -0.11350E-03   184   0.140E-01    0.616E-02
DAV:   4    -0.481821061708E+01    0.16981E-05   -0.18023E-06   248   0.118E-02    0.494E-02
DAV:   5    -0.481820550141E+01    0.51157E-05   -0.35166E-07   120   0.410E-03    0.595E-03
DAV:   6    -0.481820571221E+01   -0.21080E-06   -0.83495E-09    80   0.801E-04
   2 F= -.48182057E+01 E0= -.48156314E+01  d E =-.446679E-02
 trial-energy change:   -0.004467  1 .order   -0.004637   -0.009687    0.000412
 step:   0.9548(harm=  0.9592)  dis= 0.00000  next Energy=    -4.818215 (dE=-0.448E-02)
 bond charge predicted
       N       E                     dE             d eps       ncg     rms          rms(c)
DAV:   1    -0.481822059626E+01   -0.15095E-04   -0.31645E-04   184   0.699E-02    0.165E-02
DAV:   2    -0.481821700378E+01    0.35925E-05   -0.17581E-06   232   0.949E-03    0.913E-03
DAV:   3    -0.481821509583E+01    0.19079E-05   -0.24098E-06   176   0.646E-03    0.291E-03
DAV:   4    -0.481821512171E+01   -0.25881E-07   -0.40351E-09    80   0.560E-04    0.236E-03
DAV:   5    -0.481821524279E+01   -0.12108E-06   -0.11302E-09    80   0.254E-04    0.250E-04
DAV:   6    -0.481821523142E+01    0.11367E-07   -0.32109E-11    80   0.476E-05
   3 F= -.48182152E+01 E0= -.48156572E+01  d E =-.447631E-02
 curvature:  -0.47 expect dE=-0.220E-10 dE for cont linesearch -0.220E-10
 trial: gam=-0.00007 g(F)=  0.122E-65 g(S)=  0.465E-10 ort = 0.671E-06 (trialstep = 0.991E+00)
 search vector abs. value=  0.100E-09
 reached required accuracy - stopping structural energy minimisation
