unknown system                          
           1
     2.347395    0.000000    1.355268
     0.782465    2.213145    1.355268
     0.000000    0.000000    2.710538
   Si
     1
Direct configuration=     1
   0.00000000  0.00000000  0.00000000
unknown system                          
           1
     2.376692   -0.000000    1.372183
     0.792231    2.240767    1.372183
    -0.000000   -0.000000    2.744368
   Si
     1
Direct configuration=     2
  -0.00000000  0.00000000  0.00000000
unknown system                          
           1
     2.375368   -0.000000    1.371418
     0.791789    2.239519    1.371418
    -0.000000   -0.000000    2.742839
   Si
     1
Direct configuration=     3
  -0.00000000 -0.00000000  0.00000000
