   2   2   0   0
  0.2016476E+02  0.3849278E-09  0.3849279E-09  0.3849278E-09  0.5000000E-15
  1.000000000000000E-004
  CAR 
 unknown system                          
     16.35863396     -7.27062348  301      5.88422718      1.00000000
     -7.271  0.0000E+00  0.0000E+00
     -7.192  0.0000E+00  0.0000E+00
     -7.113  0.0000E+00  0.0000E+00
     -7.034  0.0000E+00  0.0000E+00
     -6.956  0.0000E+00  0.0000E+00
     -6.877  0.0000E+00  0.0000E+00
     -6.798  0.0000E+00  0.0000E+00
     -6.719  0.0000E+00  0.0000E+00
     -6.641  0.0000E+00  0.0000E+00
     -6.562  0.0000E+00  0.0000E+00
     -6.483  0.3208E-19  0.2527E-20
     -6.404  0.2469E-12  0.1945E-13
     -6.325  0.1543E-07  0.1215E-08
     -6.247  0.9185E-05  0.7246E-06
     -6.168  0.1781E-03  0.1475E-04
     -6.089  0.1074E-02  0.9932E-04
     -6.010  0.9219E-03  0.1719E-03
     -5.932  0.1983E-02  0.3281E-03
     -5.853  0.2475E-02  0.5231E-03
     -5.774  0.8432E-03  0.5895E-03
     -5.695  0.3395E-02  0.8569E-03
     -5.617  0.2892E-02  0.1085E-02
     -5.538  0.2985E-02  0.1320E-02
     -5.459  0.2658E-02  0.1529E-02
     -5.380  0.1452E-02  0.1644E-02
     -5.302  0.5924E-02  0.2110E-02
     -5.223  0.3713E-02  0.2403E-02
     -5.144  0.3602E-02  0.2686E-02
     -5.065  0.3864E-02  0.2991E-02
     -4.986  0.1624E-02  0.3118E-02
     -4.908  0.5521E-02  0.3553E-02
     -4.829  0.5610E-02  0.3995E-02
     -4.750  0.6783E-02  0.4529E-02
     -4.671  0.3789E-02  0.4828E-02
     -4.593  0.2680E-02  0.5039E-02
     -4.514  0.4987E-02  0.5432E-02
     -4.435  0.5529E-02  0.5867E-02
     -4.356  0.8187E-02  0.6512E-02
     -4.278  0.4204E-02  0.6843E-02
     -4.199  0.9408E-02  0.7584E-02
     -4.120  0.6162E-02  0.8070E-02
     -4.041  0.3559E-02  0.8350E-02
     -3.963  0.7659E-02  0.8953E-02
     -3.884  0.6597E-02  0.9473E-02
     -3.805  0.1445E-01  0.1061E-01
     -3.726  0.6946E-02  0.1116E-01
     -3.647  0.1074E-01  0.1200E-01
     -3.569  0.7082E-02  0.1256E-01
     -3.490  0.2316E-02  0.1274E-01
     -3.411  0.1145E-01  0.1365E-01
     -3.332  0.8629E-02  0.1433E-01
     -3.254  0.5160E-02  0.1473E-01
     -3.175  0.6679E-02  0.1526E-01
     -3.096  0.7074E-02  0.1582E-01
     -3.017  0.9678E-02  0.1658E-01
     -2.939  0.2428E-02  0.1677E-01
     -2.860  0.6052E-02  0.1725E-01
     -2.781  0.2646E-02  0.1745E-01
     -2.702  0.4832E-02  0.1783E-01
     -2.624  0.8602E-02  0.1851E-01
     -2.545  0.5500E-02  0.1894E-01
     -2.466  0.2703E-02  0.1916E-01
     -2.387  0.1574E-02  0.1928E-01
     -2.308  0.2077E-02  0.1945E-01
     -2.230  0.2271E-02  0.1962E-01
     -2.151  0.3659E-02  0.1991E-01
     -2.072  0.1751E-02  0.2005E-01
     -1.993  0.8186E-03  0.2011E-01
     -1.915  0.1745E-02  0.2025E-01
     -1.836  0.9644E-03  0.2033E-01
     -1.757  0.1154E-02  0.2042E-01
     -1.678  0.1692E-02  0.2055E-01
     -1.600  0.2414E-02  0.2074E-01
     -1.521  0.5831E-02  0.2120E-01
     -1.442  0.7858E-02  0.2182E-01
     -1.363  0.3019E-02  0.2206E-01
     -1.285  0.5082E-02  0.2246E-01
     -1.206  0.5966E-02  0.2293E-01
     -1.127  0.1133E-01  0.2382E-01
     -1.048  0.1594E-01  0.2508E-01
     -0.969  0.1549E-01  0.2630E-01
     -0.891  0.1051E-01  0.2712E-01
     -0.812  0.1152E-01  0.2803E-01
     -0.733  0.7205E-02  0.2860E-01
     -0.654  0.5888E-02  0.2906E-01
     -0.576  0.5043E-02  0.2946E-01
     -0.497  0.6950E-02  0.3001E-01
     -0.418  0.3157E-02  0.3026E-01
     -0.339  0.8773E-02  0.3095E-01
     -0.261  0.1050E-01  0.3178E-01
     -0.182  0.3503E-02  0.3205E-01
     -0.103  0.1382E-02  0.3216E-01
     -0.024  0.1201E-02  0.3225E-01
      0.054  0.8813E-02  0.3295E-01
      0.133  0.6395E-02  0.3345E-01
      0.212  0.2631E-03  0.3347E-01
      0.291  0.2942E-03  0.3350E-01
      0.370  0.6716E-02  0.3403E-01
      0.448  0.9012E-02  0.3473E-01
      0.527  0.1076E-02  0.3482E-01
      0.606  0.2191E-02  0.3499E-01
      0.685  0.1503E-02  0.3511E-01
      0.763  0.1899E-02  0.3526E-01
      0.842  0.4531E-02  0.3562E-01
      0.921  0.2384E-02  0.3580E-01
      1.000  0.7171E-03  0.3586E-01
      1.078  0.4025E-02  0.3618E-01
      1.157  0.3544E-02  0.3646E-01
      1.236  0.3645E-02  0.3674E-01
      1.315  0.2242E-02  0.3692E-01
      1.393  0.4751E-02  0.3730E-01
      1.472  0.3649E-02  0.3758E-01
      1.551  0.8930E-02  0.3829E-01
      1.630  0.1716E-01  0.3964E-01
      1.708  0.1234E-01  0.4061E-01
      1.787  0.1107E-01  0.4148E-01
      1.866  0.6811E-02  0.4202E-01
      1.945  0.6526E-02  0.4253E-01
      2.024  0.1617E-01  0.4381E-01
      2.102  0.1552E-01  0.4503E-01
      2.181  0.9246E-02  0.4576E-01
      2.260  0.5444E-02  0.4619E-01
      2.339  0.1404E-01  0.4729E-01
      2.417  0.9160E-02  0.4801E-01
      2.496  0.1199E-01  0.4896E-01
      2.575  0.1187E-01  0.4989E-01
      2.654  0.1238E-01  0.5087E-01
      2.732  0.1314E-01  0.5190E-01
      2.811  0.1008E-01  0.5270E-01
      2.890  0.1536E-01  0.5391E-01
      2.969  0.1743E-01  0.5528E-01
      3.047  0.1686E-01  0.5661E-01
      3.126  0.9295E-02  0.5734E-01
      3.205  0.2026E-01  0.5893E-01
      3.284  0.2127E-01  0.6061E-01
      3.363  0.1056E-01  0.6144E-01
      3.441  0.7343E-02  0.6202E-01
      3.520  0.1697E-01  0.6336E-01
      3.599  0.1234E-01  0.6433E-01
      3.678  0.1349E-01  0.6539E-01
      3.756  0.1434E-01  0.6652E-01
      3.835  0.6506E-02  0.6703E-01
      3.914  0.1907E-01  0.6853E-01
      3.993  0.1585E-01  0.6978E-01
      4.071  0.8532E-02  0.7045E-01
      4.150  0.8746E-02  0.7114E-01
      4.229  0.1665E-01  0.7245E-01
      4.308  0.1707E-01  0.7380E-01
      4.386  0.5577E-02  0.7424E-01
      4.465  0.7919E-02  0.7486E-01
      4.544  0.1432E-01  0.7599E-01
      4.623  0.6344E-02  0.7649E-01
      4.702  0.3078E-02  0.7673E-01
      4.780  0.5784E-02  0.7719E-01
      4.859  0.7787E-02  0.7780E-01
      4.938  0.5597E-02  0.7824E-01
      5.017  0.4973E-02  0.7863E-01
      5.095  0.4474E-02  0.7899E-01
      5.174  0.2847E-02  0.7921E-01
      5.253  0.2454E-02  0.7940E-01
      5.332  0.2794E-02  0.7962E-01
      5.410  0.1191E-02  0.7972E-01
      5.489  0.8845E-03  0.7979E-01
      5.568  0.2169E-02  0.7996E-01
      5.647  0.4512E-03  0.7999E-01
      5.725  0.8896E-04  0.8000E-01
      5.804  0.6904E-06  0.8000E-01
      5.883  0.5665E-10  0.8000E-01
      5.962  0.3842E-16  0.8000E-01
      6.041  0.2608E-12  0.8000E-01
      6.119  0.3390E-07  0.8000E-01
      6.198  0.4308E-04  0.8000E-01
      6.277  0.8279E-03  0.8007E-01
      6.356  0.5779E-03  0.8011E-01
      6.434  0.2177E-02  0.8029E-01
      6.513  0.2633E-02  0.8049E-01
      6.592  0.3405E-02  0.8076E-01
      6.671  0.2748E-02  0.8098E-01
      6.749  0.8261E-03  0.8104E-01
      6.828  0.7039E-02  0.8160E-01
      6.907  0.5538E-02  0.8203E-01
      6.986  0.4256E-02  0.8237E-01
      7.064  0.7143E-02  0.8293E-01
      7.143  0.1184E-01  0.8386E-01
      7.222  0.6025E-02  0.8434E-01
      7.301  0.6589E-02  0.8486E-01
      7.380  0.8041E-02  0.8549E-01
      7.458  0.8272E-02  0.8614E-01
      7.537  0.1017E-01  0.8694E-01
      7.616  0.1227E-01  0.8791E-01
      7.695  0.1284E-01  0.8892E-01
      7.773  0.1542E-01  0.9014E-01
      7.852  0.7064E-02  0.9069E-01
      7.931  0.1517E-01  0.9189E-01
      8.010  0.2009E-01  0.9347E-01
      8.088  0.1519E-01  0.9467E-01
      8.167  0.1781E-01  0.9607E-01
      8.246  0.1623E-01  0.9735E-01
      8.325  0.1496E-01  0.9852E-01
      8.403  0.1493E-01  0.9970E-01
      8.482  0.8334E-02  0.1004E+00
      8.561  0.2326E-02  0.1005E+00
      8.640  0.8516E-02  0.1012E+00
      8.719  0.2660E-01  0.1033E+00
      8.797  0.1259E-01  0.1043E+00
      8.876  0.1236E-01  0.1053E+00
      8.955  0.1605E-01  0.1065E+00
      9.034  0.2238E-01  0.1083E+00
      9.112  0.2108E-01  0.1100E+00
      9.191  0.1410E-01  0.1111E+00
      9.270  0.8908E-02  0.1118E+00
      9.349  0.1405E-01  0.1129E+00
      9.427  0.1901E-01  0.1144E+00
      9.506  0.2026E-01  0.1160E+00
      9.585  0.1951E-01  0.1175E+00
      9.664  0.2052E-01  0.1191E+00
      9.742  0.1661E-01  0.1204E+00
      9.821  0.8326E-02  0.1211E+00
      9.900  0.6185E-02  0.1216E+00
      9.979  0.1231E-01  0.1225E+00
     10.057  0.1511E-01  0.1237E+00
     10.136  0.1739E-01  0.1251E+00
     10.215  0.1108E-01  0.1260E+00
     10.294  0.1447E-01  0.1271E+00
     10.373  0.1077E-01  0.1280E+00
     10.451  0.6429E-02  0.1285E+00
     10.530  0.1373E-01  0.1296E+00
     10.609  0.1205E-01  0.1305E+00
     10.688  0.8534E-02  0.1312E+00
     10.766  0.9275E-02  0.1319E+00
     10.845  0.9957E-02  0.1327E+00
     10.924  0.1010E-01  0.1335E+00
     11.003  0.1108E-01  0.1344E+00
     11.081  0.2071E-01  0.1360E+00
     11.160  0.2004E-01  0.1376E+00
     11.239  0.1451E-01  0.1387E+00
     11.318  0.1368E-01  0.1398E+00
     11.396  0.8423E-02  0.1405E+00
     11.475  0.1320E-01  0.1415E+00
     11.554  0.1011E-01  0.1423E+00
     11.633  0.8650E-02  0.1430E+00
     11.712  0.5778E-02  0.1434E+00
     11.790  0.5872E-02  0.1439E+00
     11.869  0.8498E-02  0.1446E+00
     11.948  0.7086E-02  0.1451E+00
     12.027  0.9759E-02  0.1459E+00
     12.105  0.9066E-02  0.1466E+00
     12.184  0.3615E-02  0.1469E+00
     12.263  0.3397E-02  0.1471E+00
     12.342  0.1657E-01  0.1485E+00
     12.420  0.9194E-02  0.1492E+00
     12.499  0.9780E-02  0.1499E+00
     12.578  0.1259E-01  0.1509E+00
     12.657  0.1629E-01  0.1522E+00
     12.735  0.7570E-02  0.1528E+00
     12.814  0.5310E-02  0.1532E+00
     12.893  0.5871E-02  0.1537E+00
     12.972  0.3539E-02  0.1540E+00
     13.051  0.1955E-02  0.1541E+00
     13.129  0.4068E-02  0.1545E+00
     13.208  0.4115E-02  0.1548E+00
     13.287  0.6870E-02  0.1553E+00
     13.366  0.4556E-02  0.1557E+00
     13.444  0.5803E-02  0.1561E+00
     13.523  0.4131E-02  0.1565E+00
     13.602  0.5077E-02  0.1569E+00
     13.681  0.3854E-02  0.1572E+00
     13.759  0.6507E-02  0.1577E+00
     13.838  0.4285E-02  0.1580E+00
     13.917  0.3244E-02  0.1583E+00
     13.996  0.2875E-02  0.1585E+00
     14.074  0.8151E-02  0.1591E+00
     14.153  0.3964E-02  0.1594E+00
     14.232  0.5802E-04  0.1595E+00
     14.311  0.1089E-07  0.1595E+00
     14.390  0.1946E-13  0.1595E+00
     14.468  0.0000E+00  0.1595E+00
     14.547  0.0000E+00  0.1595E+00
     14.626  0.0000E+00  0.1595E+00
     14.705  0.1232E-17  0.1595E+00
     14.783  0.8651E-11  0.1595E+00
     14.862  0.4721E-06  0.1595E+00
     14.941  0.2430E-03  0.1595E+00
     15.020  0.2012E-02  0.1596E+00
     15.098  0.1246E-02  0.1597E+00
     15.177  0.1751E-02  0.1599E+00
     15.256  0.5830E-03  0.1599E+00
     15.335  0.9902E-03  0.1600E+00
     15.413  0.1082E-03  0.1600E+00
     15.492  0.1851E-06  0.1600E+00
     15.571  0.2963E-11  0.1600E+00
     15.650  0.3080E-18  0.1600E+00
     15.729  0.0000E+00  0.1600E+00
     15.807  0.0000E+00  0.1600E+00
     15.886  0.0000E+00  0.1600E+00
     15.965  0.0000E+00  0.1600E+00
     16.044  0.0000E+00  0.1600E+00
     16.122  0.0000E+00  0.1600E+00
     16.201  0.0000E+00  0.1600E+00
     16.280  0.0000E+00  0.1600E+00
     16.359  0.0000E+00  0.1600E+00
