    2    2  100    1
  0.2016476E+02  0.3849278E-09  0.3849279E-09  0.3849278E-09  0.5000000E-15
  1.000000000000000E-004
  CAR 
 unknown system                          
      8     84      8
 
  0.0000000E+00  0.0000000E+00  0.0000000E+00  0.4551661E-03
    1       -6.196566   1.000000
    2        5.623660   1.000000
    3        5.623660   1.000000
    4        5.623663   1.000000
    5        8.181364   0.000000
    6        8.181371   0.000000
    7        8.181373   0.000000
    8        8.764287   0.000000
 
  0.7692308E-01  0.6938894E-17  0.0000000E+00  0.3641329E-02
    1       -6.120336   1.000000
    2        4.870621   1.000000
    3        5.502318   1.000000
    4        5.502320   1.000000
    5        8.202842   0.000000
    6        8.360134   0.000000
    7        8.360141   0.000000
    8        9.369480   0.000000
 
  0.1538462E+00  0.0000000E+00  0.0000000E+00  0.3641329E-02
    1       -5.893680   1.000000
    2        3.498731   1.000000
    3        5.231883   1.000000
    4        5.231885   1.000000
    5        7.962611   0.000000
    6        8.751856   0.000000
    7        8.751864   0.000000
    8       10.676632   0.000000
 
  0.2307692E+00 -0.2775558E-16  0.0000000E+00  0.3641329E-02
    1       -5.524128   1.000000
    2        2.078937   1.000000
    3        4.943739   1.000000
    4        4.943742   1.000000
    5        7.658375   0.000000
    6        9.073651   0.000000
    7        9.073659   0.000000
    8       12.051643   0.000000
 
  0.3076923E+00  0.0000000E+00  0.0000000E+00  0.3641329E-02
    1       -5.030604   1.000000
    2        0.755896   1.000000
    3        4.704225   1.000000
    4        4.704227   1.000000
    5        7.391706   0.000000
    6        9.148300   0.000000
    7        9.148309   0.000000
    8       13.215804   0.000000
 
  0.3846154E+00  0.0000000E+00  0.0000000E+00  0.3641329E-02
    1       -4.465125   1.000000
    2       -0.376698   1.000000
    3        4.538498   1.000000
    4        4.538501   1.000000
    5        7.202461   0.000000
    6        9.066133   0.000000
    7        9.066142   0.000000
    8       13.453504   0.000000
 
  0.4615385E+00 -0.5551115E-16  0.0000000E+00  0.3641329E-02
    1       -3.995065   1.000000
    2       -1.133858   1.000000
    3        4.454610   1.000000
    4        4.454613   1.000000
    5        7.105583   0.000000
    6        8.986693   0.000000
    7        8.986702   0.000000
    8       13.345622   0.000000
 
  0.7692308E-01  0.7692308E-01  0.0000000E+00  0.2730997E-02
    1       -6.094811   1.000000
    2        5.004497   1.000000
    3        5.257467   1.000000
    4        5.257468   1.000000
    5        7.949050   0.000000
    6        8.673610   0.000000
    7        8.673615   0.000000
    8        9.346211   0.000000
 
  0.1538462E+00  0.7692308E-01  0.0000000E+00  0.1092399E-01
    1       -5.917930   1.000000
    2        3.899808   1.000000
    3        4.931620   1.000000
    4        5.109038   1.000000
    5        7.957509   0.000000
    6        8.723971   0.000000
    7        9.152453   0.000000
    8       10.267606   0.000000
 
  0.2307692E+00  0.7692308E-01  0.0000000E+00  0.1092399E-01
    1       -5.594987   1.000000
    2        2.528806   1.000000
    3        4.634266   1.000000
    4        4.830590   1.000000
    5        8.048803   0.000000
    6        8.727240   0.000000
    7        9.548747   0.000000
    8       10.994006   0.000000
 
  0.3076923E+00  0.7692308E-01  0.0000000E+00  0.1092399E-01
    1       -5.139817   1.000000
    2        1.191397   1.000000
    3        4.414834   1.000000
    4        4.510239   1.000000
    5        7.890472   0.000000
    6        8.879299   0.000000
    7        9.660541   0.000000
    8       11.469652   0.000000
 
  0.3846154E+00  0.7692308E-01  0.0000000E+00  0.1092399E-01
    1       -4.588531   1.000000
    2       -0.002943   1.000000
    3        4.226959   1.000000
    4        4.292054   1.000000
    5        7.705083   0.000000
    6        8.895299   0.000000
    7        9.534257   0.000000
    8       12.313896   0.000000
 
  0.4615385E+00  0.7692308E-01  0.0000000E+00  0.1092399E-01
    1       -4.053188   1.000000
    2       -0.912887   1.000000
    3        4.013313   1.000000
    4        4.269902   1.000000
    5        7.586556   0.000000
    6        8.878078   0.000000
    7        9.348984   0.000000
    8       13.262996   0.000000
 
 -0.4615385E+00  0.7692308E-01  0.0000000E+00  0.1092399E-01
    1       -3.857441   1.000000
    2       -1.202599   1.000000
    3        3.885517   1.000000
    4        4.344683   1.000000
    5        7.557240   0.000000
    6        8.934402   0.000000
    7        9.214544   0.000000
    8       13.584127   0.000000
 
 -0.3846154E+00  0.7692308E-01  0.0000000E+00  0.1092399E-01
    1       -4.216747   1.000000
    2       -0.654092   1.000000
    3        3.854427   1.000000
    4        4.507487   1.000000
    5        7.621131   0.000000
    6        9.083856   0.000000
    7        9.159423   0.000000
    8       13.473283   0.000000
 
 -0.3076923E+00  0.7692308E-01  0.0000000E+00  0.1092399E-01
    1       -4.779808   1.000000
    2        0.375362   1.000000
    3        3.927907   1.000000
    4        4.744415   1.000000
    5        7.774378   0.000000
    6        9.137756   0.000000
    7        9.271827   0.000000
    8       12.761771   0.000000
 
 -0.2307692E+00  0.7692308E-01  0.0000000E+00  0.1092399E-01
    1       -5.305569   1.000000
    2        1.626004   1.000000
    3        4.111722   1.000000
    4        5.032335   1.000000
    5        8.003901   0.000000
    6        9.017410   0.000000
    7        9.332829   0.000000
    8       11.885492   0.000000
 
 -0.1538462E+00  0.7692308E-01  0.0000000E+00  0.1092399E-01
    1       -5.718814   1.000000
    2        2.972099   1.000000
    3        4.413175   1.000000
    4        5.324780   1.000000
    5        8.274717   0.000000
    6        8.706007   0.000000
    7        9.042603   0.000000
    8       11.097544   0.000000
 
 -0.7692308E-01  0.7692308E-01  0.0000000E+00  0.5461994E-02
    1       -5.993811   1.000000
    2        4.202385   1.000000
    3        4.888194   1.000000
    4        5.524957   1.000000
    5        8.391096   0.000000
    6        8.472388   0.000000
    7        8.523126   0.000000
    8       10.123425   0.000000
 
  0.1538462E+00  0.1538462E+00  0.0000000E+00  0.2730997E-02
    1       -5.790879   1.000000
    2        3.789611   1.000000
    3        4.573111   1.000000
    4        4.573111   1.000000
    5        7.432351   0.000000
    6        9.728408   0.000000
    7        9.728411   0.000000
    8        9.905883   0.000000
 
  0.2307692E+00  0.1538462E+00  0.0000000E+00  0.1092399E-01
    1       -5.516019   1.000000
    2        2.793183   1.000000
    3        4.257066   1.000000
    4        4.278790   1.000000
    5        7.427245   0.000000
    6        9.541059   0.000000
    7       10.195013   0.000000
    8       10.256139   0.000000
 
  0.3076923E+00  0.1538462E+00  0.0000000E+00  0.1092399E-01
    1       -5.103282   1.000000
    2        1.575087   1.000000
    3        3.895195   1.000000
    4        4.030137   1.000000
    5        7.653661   0.000000
    6        9.558540   0.000000
    7       10.122168   0.000000
    8       10.495635   0.000000
 
  0.3846154E+00  0.1538462E+00  0.0000000E+00  0.1092399E-01
    1       -4.577874   1.000000
    2        0.396712   1.000000
    3        3.499916   1.000000
    4        3.911714   1.000000
    5        7.715805   0.000000
    6        9.645434   0.000000
    7       10.408650   0.000000
    8       10.533091   0.000000
 
  0.4615385E+00  0.1538462E+00  0.0000000E+00  0.1092399E-01
    1       -4.013842   1.000000
    2       -0.594558   1.000000
    3        3.167560   1.000000
    4        3.907301   1.000000
    5        7.706831   0.000000
    6        9.529234   0.000000
    7       10.180501   0.000000
    8       11.634931   0.000000
 
 -0.4615385E+00  0.1538462E+00  0.0000000E+00  0.1092399E-01
    1       -3.654501   1.000000
    2       -1.125667   1.000000
    3        2.931239   1.000000
    4        4.014085   1.000000
    5        7.764259   0.000000
    6        9.465016   0.000000
    7        9.957981   0.000000
    8       12.976517   0.000000
 
 -0.3846154E+00  0.1538462E+00  0.0000000E+00  0.1092399E-01
    1       -3.858471   1.000000
    2       -0.829225   1.000000
    3        2.811055   1.000000
    4        4.221959   1.000000
    5        7.921429   0.000000
    6        9.494159   0.000000
    7        9.793681   0.000000
    8       13.605178   0.000000
 
 -0.3076923E+00  0.1538462E+00  0.0000000E+00  0.1092399E-01
    1       -4.397006   1.000000
    2        0.056642   1.000000
    3        2.826761   1.000000
    4        4.511490   1.000000
    5        8.161114   0.000000
    6        9.598901   0.000000
    7        9.657396   0.000000
    8       12.468299   0.000000
 
 -0.2307692E+00  0.1538462E+00  0.0000000E+00  0.1092399E-01
    1       -4.946447   1.000000
    2        1.164249   1.000000
    3        3.015662   1.000000
    4        4.846704   1.000000
    5        8.434869   0.000000
    6        9.420418   0.000000
    7        9.630806   0.000000
    8       11.526503   0.000000
 
 -0.1538462E+00  0.1538462E+00  0.0000000E+00  0.5461994E-02
    1       -5.398619   1.000000
    2        2.231140   1.000000
    3        3.497880   1.000000
    4        5.158534   1.000000
    5        8.619204   0.000000
    6        9.018296   0.000000
    7        9.279115   0.000000
    8       11.195207   0.000000
 
  0.2307692E+00  0.2307692E+00  0.0000000E+00  0.2730997E-02
    1       -5.288993   1.000000
    2        2.445994   1.000000
    3        3.918531   1.000000
    4        3.918532   1.000000
    5        6.894490   0.000000
    6        9.043672   0.000000
    7       10.986602   0.000000
    8       10.986603   0.000000
 
  0.3076923E+00  0.2307692E+00  0.0000000E+00  0.1092399E-01
    1       -4.920840   1.000000
    2        1.596582   1.000000
    3        3.520415   1.000000
    4        3.669889   1.000000
    5        6.938522   0.000000
    6        8.675514   0.000000
    7       11.256020   0.000000
    8       11.469432   0.000000
 
  0.3846154E+00  0.2307692E+00  0.0000000E+00  0.1092399E-01
    1       -4.429076   1.000000
    2        0.608002   1.000000
    3        2.983367   1.000000
    4        3.533444   1.000000
    5        7.166497   0.000000
    6        8.930884   0.000000
    7       11.133465   0.000000
    8       11.526262   0.000000
 
  0.4615385E+00  0.2307692E+00  0.0000000E+00  0.1092399E-01
    1       -3.862458   1.000000
    2       -0.335235   1.000000
    3        2.486709   1.000000
    4        3.517299   1.000000
    5        7.245698   0.000000
    6        9.869064   0.000000
    7       10.959155   0.000000
    8       11.319796   0.000000
 
 -0.4615385E+00  0.2307692E+00  0.0000000E+00  0.1092399E-01
    1       -3.388532   1.000000
    2       -1.001783   1.000000
    3        2.113209   1.000000
    4        3.621017   1.000000
    5        7.346155   0.000000
    6       10.743266   0.000000
    7       11.054092   0.000000
    8       11.264718   0.000000
 
 -0.3846154E+00  0.2307692E+00  0.0000000E+00  0.1092399E-01
    1       -3.412757   1.000000
    2       -0.962920   1.000000
    3        1.899119   1.000000
    4        3.836155   1.000000
    5        7.557981   0.000000
    6       10.697812   0.000000
    7       10.808843   0.000000
    8       12.738926   0.000000
 
 -0.3076923E+00  0.2307692E+00  0.0000000E+00  0.1092399E-01
    1       -3.902528   1.000000
    2       -0.275560   1.000000
    3        1.891677   1.000000
    4        4.143889   1.000000
    5        7.879078   0.000000
    6       10.537844   0.000000
    7       10.664775   0.000000
    8       12.322160   0.000000
 
 -0.2307692E+00  0.2307692E+00  0.0000000E+00  0.5461994E-02
    1       -4.463771   1.000000
    2        0.544939   1.000000
    3        2.212005   1.000000
    4        4.506156   1.000000
    5        8.245760   0.000000
    6       10.054357   0.000000
    7       10.380088   0.000000
    8       11.479784   0.000000
 
  0.3076923E+00  0.3076923E+00  0.0000000E+00  0.2730997E-02
    1       -4.596741   1.000000
    2        1.082957   1.000000
    3        3.393997   1.000000
    4        3.393999   1.000000
    5        6.479855   0.000000
    6        7.961042   0.000000
    7       12.338457   0.000000
    8       12.338457   0.000000
 
  0.3846154E+00  0.3076923E+00  0.0000000E+00  0.1092399E-01
    1       -4.142818   1.000000
    2        0.341273   1.000000
    3        2.966945   1.000000
    4        3.229438   1.000000
    5        6.595392   0.000000
    6        7.741671   0.000000
    7       12.636443   0.000000
    8       12.738797   0.000000
 
  0.4615385E+00  0.3076923E+00  0.0000000E+00  0.1092399E-01
    1       -3.590799   1.000000
    2       -0.427873   1.000000
    3        2.324726   1.000000
    4        3.187449   1.000000
    5        6.790206   0.000000
    6        8.305009   0.000000
    7       12.540489   0.000000
    8       12.653774   0.000000
 
 -0.4615385E+00  0.3076923E+00  0.0000000E+00  0.1092399E-01
    1       -3.050311   1.000000
    2       -1.075720   1.000000
    3        1.756427   1.000000
    4        3.269669   1.000000
    5        6.907552   0.000000
    6        9.485591   0.000000
    7       12.381189   0.000000
    8       12.382437   0.000000
 
 -0.3846154E+00  0.3076923E+00  0.0000000E+00  0.1092399E-01
    1       -2.913231   1.000000
    2       -1.216055   1.000000
    3        1.408690   1.000000
    4        3.470218   1.000000
    5        7.124005   0.000000
    6       10.925092   0.000000
    7       12.049225   0.000000
    8       12.273172   0.000000
 
 -0.3076923E+00  0.3076923E+00  0.0000000E+00  0.5461994E-02
    1       -3.347140   1.000000
    2       -0.752344   1.000000
    3        1.403112   1.000000
    4        3.773070   1.000000
    5        7.464215   0.000000
    6       11.480456   0.000000
    7       11.751772   0.000000
    8       12.480449   0.000000
 
  0.3846154E+00  0.3846154E+00  0.0000000E+00  0.2730997E-02
    1       -3.726018   1.000000
    2       -0.254456   1.000000
    3        3.033088   1.000000
    4        3.033091   1.000000
    5        6.258624   0.000000
    6        7.109409   0.000000
    7       13.745243   0.000000
    8       13.745244   0.000000
 
  0.4615385E+00  0.3846154E+00  0.0000000E+00  0.1092399E-01
    1       -3.198252   1.000000
    2       -0.913754   1.000000
    3        2.636440   1.000000
    4        2.958832   1.000000
    5        6.437480   0.000000
    6        7.101188   0.000000
    7       14.056094   0.000000
    8       14.070563   0.000000
 
 -0.4615385E+00  0.3846154E+00  0.0000000E+00  0.1092399E-01
    1       -2.628270   1.000000
    2       -1.504356   1.000000
    3        1.995596   1.000000
    4        3.010809   1.000000
    5        6.587391   0.000000
    6        7.993878   0.000000
    7       13.843078   0.000000
    8       13.996748   0.000000
 
 -0.3846154E+00  0.3846154E+00  0.0000000E+00  0.5461994E-02
    1       -2.460907   1.000000
    2       -1.628879   1.000000
    3        1.494477   1.000000
    4        3.185510   1.000000
    5        6.788600   0.000000
    6        9.360241   0.000000
    7       13.245631   0.000000
    8       13.794483   0.000000
 
  0.4615385E+00  0.4615385E+00  0.0000000E+00  0.2730997E-02
    1       -2.694345   1.000000
    2       -1.526320   1.000000
    3        2.850006   1.000000
    4        2.850008   1.000000
    5        6.271534   0.000000
    6        6.547862   0.000000
    7       15.146756   0.000000
    8       15.146758   0.000000
 
 -0.4615385E+00  0.4615385E+00  0.0000000E+00  0.5461994E-02
    1       -2.149629   1.000000
    2       -2.070204   1.000000
    3        2.526769   1.000000
    4        2.867717   1.000000
    5        6.422099   0.000000
    6        6.847577   0.000000
    7       15.103643   0.000000
    8       15.284577   0.000000
 
  0.2307692E+00  0.1538462E+00  0.7692308E-01  0.1092399E-01
    1       -5.692291   1.000000
    2        3.155202   1.000000
    3        4.197434   1.000000
    4        5.018165   1.000000
    5        7.965738   0.000000
    6        9.017147   0.000000
    7        9.560869   0.000000
    8       10.552336   0.000000
 
  0.3076923E+00  0.1538462E+00  0.7692308E-01  0.2184797E-01
    1       -5.324304   1.000000
    2        2.009993   1.000000
    3        3.701142   1.000000
    4        4.785221   1.000000
    5        8.203360   0.000000
    6        9.006485   0.000000
    7        9.973113   0.000000
    8       10.589630   0.000000
 
  0.3846154E+00  0.1538462E+00  0.7692308E-01  0.2184797E-01
    1       -4.832324   1.000000
    2        0.787985   1.000000
    3        3.424960   1.000000
    4        4.487350   1.000000
    5        8.229337   0.000000
    6        8.994523   0.000000
    7       10.075188   0.000000
    8       11.033430   0.000000
 
  0.4615385E+00  0.1538462E+00  0.7692308E-01  0.2184797E-01
    1       -4.266912   1.000000
    2       -0.301672   1.000000
    3        3.274740   1.000000
    4        4.234655   1.000000
    5        8.138233   0.000000
    6        8.883367   0.000000
    7       10.003533   0.000000
    8       12.002711   0.000000
 
 -0.4615385E+00  0.1538462E+00  0.7692308E-01  0.2184797E-01
    1       -3.793370   1.000000
    2       -1.045183   1.000000
    3        3.211939   1.000000
    4        4.090310   1.000000
    5        8.077706   0.000000
    6        8.784606   0.000000
    7        9.928404   0.000000
    8       13.215821   0.000000
 
  0.3076923E+00  0.2307692E+00  0.7692308E-01  0.1092399E-01
    1       -5.195043   1.000000
    2        2.050574   1.000000
    3        3.541901   1.000000
    4        4.196840   1.000000
    5        7.451910   0.000000
    6        9.320879   0.000000
    7       10.261164   0.000000
    8       10.872283   0.000000
 
  0.3846154E+00  0.2307692E+00  0.7692308E-01  0.2184797E-01
    1       -4.742473   1.000000
    2        1.058354   1.000000
    3        3.044816   1.000000
    4        3.944583   1.000000
    5        7.749036   0.000000
    6        9.422002   0.000000
    7       10.048249   0.000000
    8       11.253544   0.000000
 
  0.4615385E+00  0.2307692E+00  0.7692308E-01  0.2184797E-01
    1       -4.192360   1.000000
    2        0.029010   1.000000
    3        2.713432   1.000000
    4        3.715536   1.000000
    5        7.877638   0.000000
    6        9.752310   0.000000
    7       10.211114   0.000000
    8       11.274259   0.000000
 
 -0.4615385E+00  0.2307692E+00  0.7692308E-01  0.2184797E-01
    1       -3.653013   1.000000
    2       -0.809681   1.000000
    3        2.474751   1.000000
    4        3.625144   1.000000
    5        7.949613   0.000000
    6        9.486534   0.000000
    7       11.164601   0.000000
    8       11.450084   0.000000
 
 -0.3846154E+00  0.2307692E+00  0.7692308E-01  0.2184797E-01
    1       -3.457866   1.000000
    2       -1.077716   1.000000
    3        2.321490   1.000000
    4        3.697050   1.000000
    5        8.101728   0.000000
    6        9.292646   0.000000
    7       11.080454   0.000000
    8       12.873704   0.000000
 
 -0.3076923E+00  0.2307692E+00  0.7692308E-01  0.2184797E-01
    1       -3.830689   1.000000
    2       -0.545429   1.000000
    3        2.284042   1.000000
    4        3.908957   1.000000
    5        8.352932   0.000000
    6        9.180214   0.000000
    7       11.018414   0.000000
    8       11.864241   0.000000
 
 -0.2307692E+00  0.2307692E+00  0.7692308E-01  0.2184797E-01
    1       -4.395335   1.000000
    2        0.373534   1.000000
    3        2.417878   1.000000
    4        4.218310   1.000000
    5        8.661931   0.000000
    6        9.073708   0.000000
    7       10.694777   0.000000
    8       11.026190   0.000000
 
 -0.1538462E+00  0.2307692E+00  0.7692308E-01  0.1092399E-01
    1       -4.916433   1.000000
    2        1.311900   1.000000
    3        2.845648   1.000000
    4        4.554253   1.000000
    5        8.683452   0.000000
    6        8.960039   0.000000
    7       10.345842   0.000000
    8       10.585246   0.000000
 
  0.3846154E+00  0.3076923E+00  0.7692308E-01  0.1092399E-01
    1       -4.510776   1.000000
    2        0.885714   1.000000
    3        3.027845   1.000000
    4        3.461249   1.000000
    5        7.045373   0.000000
    6        8.348355   0.000000
    7       11.346981   0.000000
    8       12.278715   0.000000
 
  0.4615385E+00  0.3076923E+00  0.7692308E-01  0.2184797E-01
    1       -3.987726   1.000000
    2        0.070551   1.000000
    3        2.501749   1.000000
    4        3.239924   1.000000
    5        7.361499   0.000000
    6        8.654381   0.000000
    7       11.105458   0.000000
    8       12.639000   0.000000
 
 -0.4615385E+00  0.3076923E+00  0.7692308E-01  0.2184797E-01
    1       -3.420686   1.000000
    2       -0.706466   1.000000
    3        2.027353   1.000000
    4        3.173007   1.000000
    5        7.492790   0.000000
    6        9.680823   0.000000
    7       10.829055   0.000000
    8       12.609781   0.000000
 
 -0.3846154E+00  0.3076923E+00  0.7692308E-01  0.2184797E-01
    1       -3.063974   1.000000
    2       -1.141434   1.000000
    3        1.693585   1.000000
    4        3.271388   1.000000
    5        7.660009   0.000000
    6       10.473325   0.000000
    7       11.174929   0.000000
    8       12.472709   0.000000
 
 -0.3076923E+00  0.3076923E+00  0.7692308E-01  0.2184797E-01
    1       -3.310045   1.000000
    2       -0.838699   1.000000
    3        1.570137   1.000000
    4        3.508244   1.000000
    5        7.940023   0.000000
    6       10.298725   0.000000
    7       11.791588   0.000000
    8       12.308375   0.000000
 
 -0.2307692E+00  0.3076923E+00  0.7692308E-01  0.1092399E-01
    1       -3.858232   1.000000
    2       -0.181969   1.000000
    3        1.766342   1.000000
    4        3.846312   1.000000
    5        8.314987   0.000000
    6        9.889634   0.000000
    7       10.871385   0.000000
    8       11.893148   0.000000
 
  0.4615385E+00  0.3846154E+00  0.7692308E-01  0.1092399E-01
    1       -3.653595   1.000000
    2       -0.322049   1.000000
    3        2.693344   1.000000
    4        2.932543   1.000000
    5        6.816936   0.000000
    6        7.556696   0.000000
    7       12.587709   0.000000
    8       13.731789   0.000000
 
 -0.4615385E+00  0.3846154E+00  0.7692308E-01  0.2184797E-01
    1       -3.085324   1.000000
    2       -0.978312   1.000000
    3        2.129608   1.000000
    4        2.823605   1.000000
    5        7.114330   0.000000
    6        8.163641   0.000000
    7       12.315168   0.000000
    8       14.059813   0.000000
 
 -0.3846154E+00  0.3846154E+00  0.7692308E-01  0.2184797E-01
    1       -2.620146   1.000000
    2       -1.448770   1.000000
    3        1.595209   1.000000
    4        2.921213   1.000000
    5        7.280167   0.000000
    6        9.430732   0.000000
    7       12.028138   0.000000
    8       13.399301   0.000000
 
 -0.3076923E+00  0.3846154E+00  0.7692308E-01  0.1092399E-01
    1       -2.785768   1.000000
    2       -1.269563   1.000000
    3        1.349659   1.000000
    4        3.159871   1.000000
    5        7.553670   0.000000
    6       10.875049   0.000000
    7       11.671855   0.000000
    8       12.116577   0.000000
 
 -0.4615385E+00  0.4615385E+00  0.7692308E-01  0.1092399E-01
    1       -2.645372   1.000000
    2       -1.519072   1.000000
    3        2.557410   1.000000
    4        2.633338   1.000000
    5        6.806908   0.000000
    6        7.045510   0.000000
    7       13.909686   0.000000
    8       14.988774   0.000000
 
 -0.3846154E+00  0.4615385E+00  0.7692308E-01  0.1092399E-01
    1       -2.188525   1.000000
    2       -1.928812   1.000000
    3        1.997152   1.000000
    4        2.690946   1.000000
    5        7.030031   0.000000
    6        7.999519   0.000000
    7       13.538663   0.000000
    8       13.742438   0.000000
 
  0.4615385E+00  0.3076923E+00  0.1538462E+00  0.1092399E-01
    1       -4.258412   1.000000
    2        0.402509   1.000000
    3        2.355468   1.000000
    4        3.645413   1.000000
    5        8.314524   0.000000
    6        9.388731   0.000000
    7        9.755689   0.000000
    8       12.115456   0.000000
 
 -0.4615385E+00  0.3076923E+00  0.1538462E+00  0.2184797E-01
    1       -3.695587   1.000000
    2       -0.372944   1.000000
    3        1.980424   1.000000
    4        3.326222   1.000000
    5        8.676321   0.000000
    6        9.378723   0.000000
    7       10.113181   0.000000
    8       12.515532   0.000000
 
 -0.3846154E+00  0.3076923E+00  0.1538462E+00  0.2184797E-01
    1       -3.207400   1.000000
    2       -1.007030   1.000000
    3        1.834828   1.000000
    4        3.134173   1.000000
    5        8.836042   0.000000
    6        9.075753   0.000000
    7       11.391215   0.000000
    8       12.584589   0.000000
 
 -0.4615385E+00  0.3846154E+00  0.1538462E+00  0.1092399E-01
    1       -3.446380   1.000000
    2       -0.536994   1.000000
    3        2.074844   1.000000
    4        2.828953   1.000000
    5        8.093241   0.000000
    6        8.691744   0.000000
    7       10.777653   0.000000
    8       13.689368   0.000000
 
 -0.3846154E+00  0.3846154E+00  0.1538462E+00  0.2184797E-01
    1       -2.895627   1.000000
    2       -1.127440   1.000000
    3        1.733549   1.000000
    4        2.606234   1.000000
    5        8.429656   0.000000
    6        9.625230   0.000000
    7       10.485850   0.000000
    8       13.099955   0.000000
 
 -0.3076923E+00  0.3846154E+00  0.1538462E+00  0.2184797E-01
    1       -2.709058   1.000000
    2       -1.316390   1.000000
    3        1.525171   1.000000
    4        2.660088   1.000000
    5        8.652902   0.000000
    6       10.077441   0.000000
    7       11.141829   0.000000
    8       11.599574   0.000000
 
 -0.2307692E+00  0.3846154E+00  0.1538462E+00  0.1092399E-01
    1       -3.137303   1.000000
    2       -0.880089   1.000000
    3        1.571795   1.000000
    4        2.927666   1.000000
    5        8.974408   0.000000
    6        9.697499   0.000000
    7       10.312191   0.000000
    8       12.870309   0.000000
 
 -0.3846154E+00  0.4615385E+00  0.1538462E+00  0.1092399E-01
    1       -2.516392   1.000000
    2       -1.523992   1.000000
    3        2.038170   1.000000
    4        2.280944   1.000000
    5        8.063739   0.000000
    6        8.255105   0.000000
    7       11.981407   0.000000
    8       13.335792   0.000000
 
 -0.3076923E+00  0.4615385E+00  0.1538462E+00  0.1092399E-01
    1       -2.243617   1.000000
    2       -1.749913   1.000000
    3        1.664318   1.000000
    4        2.326068   1.000000
    5        8.343274   0.000000
    6        9.513000   0.000000
    7       11.621837   0.000000
    8       11.777824   0.000000
 
 -0.3076923E+00  0.4615385E+00  0.2307692E+00  0.1092399E-01
    1       -2.360241   1.000000
    2       -1.596529   1.000000
    3        1.684017   1.000000
    4        2.145930   1.000000
    5        9.649519   0.000000
    6        9.661305   0.000000
    7       10.296448   0.000000
    8       11.431640   0.000000
