 running on    4 total cores
 distrk:  each k-point on    4 cores,    1 groups
 distr:  one band on    1 cores,    4 groups
 vasp.6.2.0 18Jan21 (build Aug 12 2022 13:00:08) complex                        
  
 POSCAR found type information on POSCAR Si
 POSCAR found :  1 types and       2 ions
 scaLAPACK will be used
 LDA part: xc-table for Pade appr. of Perdew
 POSCAR, INCAR and KPOINTS ok, starting setup
 FFT: planning ...
 WAVECAR not read
 entering main loop
       N       E                     dE             d eps       ncg     rms          rms(c)
DAV:   1     0.117112933388E+01    0.11711E+01   -0.25682E+03  1368   0.583E+02
DAV:   2    -0.108810583589E+02   -0.12052E+02   -0.11689E+02  2032   0.661E+01
DAV:   3    -0.110209233005E+02   -0.13986E+00   -0.13986E+00  1720   0.912E+00
DAV:   4    -0.110214199888E+02   -0.49669E-03   -0.49669E-03  2200   0.564E-01
DAV:   5    -0.110214202213E+02   -0.23257E-06   -0.23257E-06  1768   0.115E-02    0.486E+00
DAV:   6    -0.108999048421E+02    0.12152E+00   -0.80023E-02  1640   0.147E+00    0.297E+00
DAV:   7    -0.108443392572E+02    0.55566E-01   -0.15202E-01  1656   0.216E+00    0.186E-01
DAV:   8    -0.108454046412E+02   -0.10654E-02   -0.38843E-03  1616   0.466E-01    0.745E-02
DAV:   9    -0.108455978437E+02   -0.19320E-03   -0.18736E-04  1904   0.106E-01    0.560E-02
DAV:  10    -0.108456234237E+02   -0.25580E-04   -0.29789E-05  1704   0.406E-02    0.856E-03
DAV:  11    -0.108456231909E+02    0.23282E-06   -0.57990E-07  1712   0.531E-03
   1 F= -.10845623E+02 E0= -.10845623E+02  d E =-.108456E+02
 curvature:   0.00 expect dE= 0.000E+00 dE for cont linesearch  0.000E+00
 trial: gam= 0.00000 g(F)=  0.114E-42 g(S)=  0.675E-02 ort = 0.000E+00 (trialstep = 0.100E+01)
 search vector abs. value=  0.675E-02
 bond charge predicted
       N       E                     dE             d eps       ncg     rms          rms(c)
DAV:   1    -0.108494011857E+02   -0.37778E-02   -0.10417E-01  1664   0.181E+00    0.302E-01
DAV:   2    -0.108476356182E+02    0.17656E-02   -0.14751E-03  1824   0.256E-01    0.183E-01
DAV:   3    -0.108467057398E+02    0.92988E-03   -0.19228E-03  1600   0.221E-01    0.606E-02
DAV:   4    -0.108467056372E+02    0.10258E-06   -0.19265E-05  1928   0.391E-02    0.540E-02
DAV:   5    -0.108466994162E+02    0.62210E-05   -0.50987E-06  1528   0.164E-02    0.130E-02
DAV:   6    -0.108466995666E+02   -0.15044E-06   -0.54593E-08   888   0.220E-03
   2 F= -.10846700E+02 E0= -.10846700E+02  d E =-.107638E-02
 trial-energy change:   -0.001076  1 .order   -0.001171   -0.006752    0.004409
 step:   0.5926(harm=  0.6050)  dis= 0.00000  next Energy=   -10.847604 (dE=-0.198E-02)
 bond charge predicted
       N       E                     dE             d eps       ncg     rms          rms(c)
DAV:   1    -0.108480354101E+02   -0.13360E-02   -0.17508E-02  1664   0.747E-01    0.126E-01
DAV:   2    -0.108477442240E+02    0.29119E-03   -0.24431E-04  1832   0.104E-01    0.758E-02
DAV:   3    -0.108475967985E+02    0.14743E-03   -0.32047E-04  1584   0.905E-02    0.251E-02
DAV:   4    -0.108475974365E+02   -0.63798E-06   -0.32513E-06  1856   0.161E-02    0.226E-02
DAV:   5    -0.108475991309E+02   -0.16944E-05   -0.82210E-07  1384   0.669E-03    0.605E-03
DAV:   6    -0.108475990861E+02    0.44735E-07   -0.11196E-08   736   0.974E-04
   3 F= -.10847599E+02 E0= -.10847599E+02  d E =-.197590E-02
 curvature:  -0.30 expect dE=-0.690E-07 dE for cont linesearch -0.690E-07
 trial: gam=-0.00578 g(F)=  0.971E-43 g(S)=  0.228E-06 ort = 0.393E-04 (trialstep = 0.919E+00)
 search vector abs. value=  0.108E-09
 reached required accuracy - stopping structural energy minimisation
