<?xml version="1.0" encoding="ISO-8859-1"?>
<modeling>
 <generator>
  <i name="program" type="string">vasp </i>
  <i name="version" type="string">6.2.0  </i>
  <i name="subversion" type="string">18Jan21 (build Aug 12 2022 13:00:08) complex                          parallel </i>
  <i name="platform" type="string">LinuxIFC </i>
  <i name="date" type="string">2024 11 03 </i>
  <i name="time" type="string">21:56:24 </i>
 </generator>
 <incar>
  <i type="int" name="ISTART">     0</i>
  <i type="string" name="PREC">Accurate      (Accurate strictly avoids</i>
  <i type="logical" name="ADDGRID"> T  </i>
  <i type="int" name="ISPIN">     1</i>
  <i type="int" name="NELM">    90</i>
  <i type="int" name="NELMIN">     6</i>
  <i type="int" name="IBRION">     2</i>
  <i name="EDIFF">      0.00000100</i>
  <i name="EDIFFG">     -0.00200000</i>
  <i type="int" name="NSW">   100</i>
  <i type="int" name="ISIF">     3</i>
  <i type="int" name="ISYM">     2</i>
  <i name="ENCUT">    350.00000000</i>
  <i type="logical" name="LREAL"> F  </i>
  <i type="int" name="ISMEAR">     0</i>
  <i name="SIGMA">      0.05000000</i>
  <i type="logical" name="LWAVE"> F  </i>
  <i type="logical" name="LCHARG"> F  </i>
  <i type="logical" name="LASPH"> T  </i>
 </incar>
 <primitive_cell>
  <structure name="primitive_cell" >
   <crystal>
    <varray name="basis" >
     <v>       3.33357300       0.00000000       1.92463900 </v>
     <v>       1.11119100       3.14292400       1.92463900 </v>
     <v>       0.00000000       0.00000000       3.84927800 </v>
    </varray>
    <i name="volume">     40.32952685 </i>
    <varray name="rec_basis" >
     <v>       0.29997843      -0.10605835       0.00000000 </v>
     <v>       0.00000000       0.31817505       0.00000000 </v>
     <v>      -0.14998922      -0.10605835       0.25978898 </v>
    </varray>
   </crystal>
   <varray name="positions" >
    <v>       0.87500000       0.87500000       0.87500000 </v>
    <v>       0.12500000       0.12500000       0.12500000 </v>
   </varray>
  </structure>
  <varray name="primitive_index" >
   <v type="int" >        1 </v>
   <v type="int" >        2 </v>
  </varray>
 </primitive_cell>
 <kpoints>
  <generation param="Monkhorst-Pack">
   <v type="int" name="divisions">      13       13       13 </v>
   <v name="usershift">      0.00000000       0.00000000       0.00000000 </v>
   <v name="genvec1">      0.07692308       0.00000000       0.00000000 </v>
   <v name="genvec2">      0.00000000       0.07692308       0.00000000 </v>
   <v name="genvec3">      0.00000000       0.00000000       0.07692308 </v>
   <v name="shift">      0.00000000       0.00000000       0.00000000 </v>
  </generation>
  <varray name="kpointlist" >
   <v>       0.00000000       0.00000000       0.00000000 </v>
   <v>       0.07692308       0.00000000       0.00000000 </v>
   <v>       0.15384615       0.00000000       0.00000000 </v>
   <v>       0.23076923      -0.00000000       0.00000000 </v>
   <v>       0.30769231       0.00000000       0.00000000 </v>
   <v>       0.38461538       0.00000000       0.00000000 </v>
   <v>       0.46153846      -0.00000000       0.00000000 </v>
   <v>       0.07692308       0.07692308       0.00000000 </v>
   <v>       0.15384615       0.07692308       0.00000000 </v>
   <v>       0.23076923       0.07692308       0.00000000 </v>
   <v>       0.30769231       0.07692308       0.00000000 </v>
   <v>       0.38461538       0.07692308       0.00000000 </v>
   <v>       0.46153846       0.07692308       0.00000000 </v>
   <v>      -0.46153846       0.07692308       0.00000000 </v>
   <v>      -0.38461538       0.07692308       0.00000000 </v>
   <v>      -0.30769231       0.07692308       0.00000000 </v>
   <v>      -0.23076923       0.07692308       0.00000000 </v>
   <v>      -0.15384615       0.07692308       0.00000000 </v>
   <v>      -0.07692308       0.07692308       0.00000000 </v>
   <v>       0.15384615       0.15384615       0.00000000 </v>
   <v>       0.23076923       0.15384615       0.00000000 </v>
   <v>       0.30769231       0.15384615       0.00000000 </v>
   <v>       0.38461538       0.15384615       0.00000000 </v>
   <v>       0.46153846       0.15384615       0.00000000 </v>
   <v>      -0.46153846       0.15384615       0.00000000 </v>
   <v>      -0.38461538       0.15384615       0.00000000 </v>
   <v>      -0.30769231       0.15384615       0.00000000 </v>
   <v>      -0.23076923       0.15384615       0.00000000 </v>
   <v>      -0.15384615       0.15384615       0.00000000 </v>
   <v>       0.23076923       0.23076923       0.00000000 </v>
   <v>       0.30769231       0.23076923       0.00000000 </v>
   <v>       0.38461538       0.23076923       0.00000000 </v>
   <v>       0.46153846       0.23076923       0.00000000 </v>
   <v>      -0.46153846       0.23076923       0.00000000 </v>
   <v>      -0.38461538       0.23076923       0.00000000 </v>
   <v>      -0.30769231       0.23076923       0.00000000 </v>
   <v>      -0.23076923       0.23076923       0.00000000 </v>
   <v>       0.30769231       0.30769231       0.00000000 </v>
   <v>       0.38461538       0.30769231       0.00000000 </v>
   <v>       0.46153846       0.30769231       0.00000000 </v>
   <v>      -0.46153846       0.30769231       0.00000000 </v>
   <v>      -0.38461538       0.30769231       0.00000000 </v>
   <v>      -0.30769231       0.30769231       0.00000000 </v>
   <v>       0.38461538       0.38461538       0.00000000 </v>
   <v>       0.46153846       0.38461538       0.00000000 </v>
   <v>      -0.46153846       0.38461538       0.00000000 </v>
   <v>      -0.38461538       0.38461538       0.00000000 </v>
   <v>       0.46153846       0.46153846       0.00000000 </v>
   <v>      -0.46153846       0.46153846       0.00000000 </v>
   <v>       0.23076923       0.15384615       0.07692308 </v>
   <v>       0.30769231       0.15384615       0.07692308 </v>
   <v>       0.38461538       0.15384615       0.07692308 </v>
   <v>       0.46153846       0.15384615       0.07692308 </v>
   <v>      -0.46153846       0.15384615       0.07692308 </v>
   <v>       0.30769231       0.23076923       0.07692308 </v>
   <v>       0.38461538       0.23076923       0.07692308 </v>
   <v>       0.46153846       0.23076923       0.07692308 </v>
   <v>      -0.46153846       0.23076923       0.07692308 </v>
   <v>      -0.38461538       0.23076923       0.07692308 </v>
   <v>      -0.30769231       0.23076923       0.07692308 </v>
   <v>      -0.23076923       0.23076923       0.07692308 </v>
   <v>      -0.15384615       0.23076923       0.07692308 </v>
   <v>       0.38461538       0.30769231       0.07692308 </v>
   <v>       0.46153846       0.30769231       0.07692308 </v>
   <v>      -0.46153846       0.30769231       0.07692308 </v>
   <v>      -0.38461538       0.30769231       0.07692308 </v>
   <v>      -0.30769231       0.30769231       0.07692308 </v>
   <v>      -0.23076923       0.30769231       0.07692308 </v>
   <v>       0.46153846       0.38461538       0.07692308 </v>
   <v>      -0.46153846       0.38461538       0.07692308 </v>
   <v>      -0.38461538       0.38461538       0.07692308 </v>
   <v>      -0.30769231       0.38461538       0.07692308 </v>
   <v>      -0.46153846       0.46153846       0.07692308 </v>
   <v>      -0.38461538       0.46153846       0.07692308 </v>
   <v>       0.46153846       0.30769231       0.15384615 </v>
   <v>      -0.46153846       0.30769231       0.15384615 </v>
   <v>      -0.38461538       0.30769231       0.15384615 </v>
   <v>      -0.46153846       0.38461538       0.15384615 </v>
   <v>      -0.38461538       0.38461538       0.15384615 </v>
   <v>      -0.30769231       0.38461538       0.15384615 </v>
   <v>      -0.23076923       0.38461538       0.15384615 </v>
   <v>      -0.38461538       0.46153846       0.15384615 </v>
   <v>      -0.30769231       0.46153846       0.15384615 </v>
   <v>      -0.30769231       0.46153846       0.23076923 </v>
  </varray>
  <varray name="weights" >
   <v>       0.00045517 </v>
   <v>       0.00364133 </v>
   <v>       0.00364133 </v>
   <v>       0.00364133 </v>
   <v>       0.00364133 </v>
   <v>       0.00364133 </v>
   <v>       0.00364133 </v>
   <v>       0.00273100 </v>
   <v>       0.01092399 </v>
   <v>       0.01092399 </v>
   <v>       0.01092399 </v>
   <v>       0.01092399 </v>
   <v>       0.01092399 </v>
   <v>       0.01092399 </v>
   <v>       0.01092399 </v>
   <v>       0.01092399 </v>
   <v>       0.01092399 </v>
   <v>       0.01092399 </v>
   <v>       0.00546199 </v>
   <v>       0.00273100 </v>
   <v>       0.01092399 </v>
   <v>       0.01092399 </v>
   <v>       0.01092399 </v>
   <v>       0.01092399 </v>
   <v>       0.01092399 </v>
   <v>       0.01092399 </v>
   <v>       0.01092399 </v>
   <v>       0.01092399 </v>
   <v>       0.00546199 </v>
   <v>       0.00273100 </v>
   <v>       0.01092399 </v>
   <v>       0.01092399 </v>
   <v>       0.01092399 </v>
   <v>       0.01092399 </v>
   <v>       0.01092399 </v>
   <v>       0.01092399 </v>
   <v>       0.00546199 </v>
   <v>       0.00273100 </v>
   <v>       0.01092399 </v>
   <v>       0.01092399 </v>
   <v>       0.01092399 </v>
   <v>       0.01092399 </v>
   <v>       0.00546199 </v>
   <v>       0.00273100 </v>
   <v>       0.01092399 </v>
   <v>       0.01092399 </v>
   <v>       0.00546199 </v>
   <v>       0.00273100 </v>
   <v>       0.00546199 </v>
   <v>       0.01092399 </v>
   <v>       0.02184797 </v>
   <v>       0.02184797 </v>
   <v>       0.02184797 </v>
   <v>       0.02184797 </v>
   <v>       0.01092399 </v>
   <v>       0.02184797 </v>
   <v>       0.02184797 </v>
   <v>       0.02184797 </v>
   <v>       0.02184797 </v>
   <v>       0.02184797 </v>
   <v>       0.02184797 </v>
   <v>       0.01092399 </v>
   <v>       0.01092399 </v>
   <v>       0.02184797 </v>
   <v>       0.02184797 </v>
   <v>       0.02184797 </v>
   <v>       0.02184797 </v>
   <v>       0.01092399 </v>
   <v>       0.01092399 </v>
   <v>       0.02184797 </v>
   <v>       0.02184797 </v>
   <v>       0.01092399 </v>
   <v>       0.01092399 </v>
   <v>       0.01092399 </v>
   <v>       0.01092399 </v>
   <v>       0.02184797 </v>
   <v>       0.02184797 </v>
   <v>       0.01092399 </v>
   <v>       0.02184797 </v>
   <v>       0.02184797 </v>
   <v>       0.01092399 </v>
   <v>       0.01092399 </v>
   <v>       0.01092399 </v>
   <v>       0.01092399 </v>
  </varray>
 </kpoints>
 <parameters>
  <separator name="general" >
   <i type="string" name="SYSTEM">unknown system</i>
   <i type="logical" name="LCOMPAT"> F  </i>
  </separator>
  <separator name="electronic" >
   <i type="string" name="PREC">accura</i>
   <i name="ENMAX">    350.00000000</i>
   <i name="ENAUG">    322.06900000</i>
   <i name="EDIFF">      0.00000100</i>
   <i type="int" name="IALGO">    38</i>
   <i type="int" name="IWAVPR">    11</i>
   <i type="int" name="NBANDS">     8</i>
   <i type="int" name="NBANDSLOW">    -1</i>
   <i type="int" name="NBANDSHIGH">    -1</i>
   <i name="NELECT">      8.00000000</i>
   <i type="int" name="TURBO">     0</i>
   <i type="int" name="IRESTART">     0</i>
   <i type="int" name="NREBOOT">     0</i>
   <i type="int" name="NMIN">     0</i>
   <i name="EREF">      0.00000000</i>
   <separator name="electronic smearing" >
    <i type="int" name="ISMEAR">     0</i>
    <i name="SIGMA">      0.05000000</i>
    <i name="KSPACING">      0.50000000</i>
    <i type="logical" name="KGAMMA"> T  </i>
    <i type="logical" name="KBLOWUP"> T  </i>
   </separator>
   <separator name="electronic projectors" >
    <i type="logical" name="LREAL"> F  </i>
    <v name="ROPT">      0.00000000</v>
    <i type="int" name="LMAXPAW">  -100</i>
    <i type="int" name="LMAXMIX">     2</i>
    <i type="logical" name="NLSPLINE"> F  </i>
   </separator>
   <separator name="electronic startup" >
    <i type="int" name="ISTART">     0</i>
    <i type="int" name="ICHARG">     2</i>
    <i type="int" name="INIWAV">     1</i>
   </separator>
   <separator name="electronic spin" >
    <i type="int" name="ISPIN">     1</i>
    <i type="logical" name="LNONCOLLINEAR"> F  </i>
    <v name="MAGMOM">      1.00000000      1.00000000</v>
    <i name="NUPDOWN">     -1.00000000</i>
    <i type="logical" name="LSORBIT"> F  </i>
    <v name="SAXIS">      0.00000000      0.00000000      1.00000000</v>
    <i type="logical" name="LSPIRAL"> F  </i>
    <v name="QSPIRAL">      0.00000000      0.00000000      0.00000000</v>
    <i type="logical" name="LZEROZ"> F  </i>
   </separator>
   <separator name="electronic exchange-correlation" >
    <i type="logical" name="LASPH"> T  </i>
    <i type="logical" name="LMETAGGA"> F  </i>
   </separator>
   <separator name="electronic convergence" >
    <i type="int" name="NELM">    90</i>
    <i type="int" name="NELMDL">    -5</i>
    <i type="int" name="NELMIN">     6</i>
    <i name="ENINI">    350.00000000</i>
    <separator name="electronic convergence detail" >
     <i type="logical" name="LDIAG"> T  </i>
     <i type="logical" name="LSUBROT"> F  </i>
     <i name="WEIMIN">      0.00100000</i>
     <i name="EBREAK">      0.00000003</i>
     <i name="DEPER">      0.30000000</i>
     <i type="int" name="NRMM">     4</i>
     <i name="TIME">      0.40000000</i>
    </separator>
   </separator>
   <separator name="electronic mixer" >
    <i name="AMIX">      0.40000000</i>
    <i name="BMIX">      1.00000000</i>
    <i name="AMIN">      0.10000000</i>
    <i name="AMIX_MAG">      1.60000000</i>
    <i name="BMIX_MAG">      1.00000000</i>
    <separator name="electronic mixer details" >
     <i type="int" name="IMIX">     4</i>
     <i type="logical" name="MIXFIRST"> F  </i>
     <i type="int" name="MAXMIX">   -45</i>
     <i name="WC">    100.00000000</i>
     <i type="int" name="INIMIX">     1</i>
     <i type="int" name="MIXPRE">     1</i>
     <i type="int" name="MREMOVE">     5</i>
    </separator>
   </separator>
   <separator name="electronic dipolcorrection" >
    <i type="logical" name="LDIPOL"> F  </i>
    <i type="logical" name="LMONO"> F  </i>
    <i type="int" name="IDIPOL">     0</i>
    <i name="EPSILON">      1.00000000</i>
    <v name="DIPOL">   -100.00000000   -100.00000000   -100.00000000</v>
    <i name="EFIELD">      0.00000000</i>
   </separator>
  </separator>
  <separator name="grids" >
   <i type="int" name="NGX">    24</i>
   <i type="int" name="NGY">    24</i>
   <i type="int" name="NGZ">    24</i>
   <i type="int" name="NGXF">    48</i>
   <i type="int" name="NGYF">    48</i>
   <i type="int" name="NGZF">    48</i>
   <i type="logical" name="ADDGRID"> T  </i>
  </separator>
  <separator name="ionic" >
   <i type="int" name="NSW">   100</i>
   <i type="int" name="IBRION">     2</i>
   <i type="int" name="MDALGO">     0</i>
   <i type="int" name="ISIF">     3</i>
   <i name="PSTRESS">      0.00000000</i>
   <i name="EDIFFG">     -0.00200000</i>
   <i type="int" name="NFREE">     1</i>
   <i name="POTIM">      0.50000000</i>
   <i name="SMASS">     -3.00000000</i>
   <i name="SCALEE">      1.00000000</i>
  </separator>
  <separator name="ionic md" >
   <i name="TEBEG">      0.00010000</i>
   <i name="TEEND">      0.00010000</i>
   <i type="int" name="NBLOCK">     1</i>
   <i type="int" name="KBLOCK">   100</i>
   <i type="int" name="NPACO">   256</i>
   <i name="APACO">     16.00000000</i>
  </separator>
  <separator name="symmetry" >
   <i type="int" name="ISYM">     2</i>
   <i name="SYMPREC">      0.00001000</i>
  </separator>
  <separator name="dos" >
   <i type="int" name="LORBIT">     0</i>
   <v name="RWIGS">     -1.00000000</v>
   <i type="int" name="NEDOS">   301</i>
   <i name="EMIN">     10.00000000</i>
   <i name="EMAX">    -10.00000000</i>
   <i name="EFERMI">      0.00000000</i>
  </separator>
  <separator name="writing" >
   <i type="int" name="NWRITE">     2</i>
   <i type="logical" name="LWAVE"> F  </i>
   <i type="logical" name="LDOWNSAMPLE"> F  </i>
   <i type="logical" name="LCHARG"> F  </i>
   <i type="logical" name="LPARD"> F  </i>
   <i type="logical" name="LVTOT"> F  </i>
   <i type="logical" name="LVHAR"> F  </i>
   <i type="logical" name="LELF"> F  </i>
   <i type="logical" name="LOPTICS"> F  </i>
   <v name="STM">      0.00000000      0.00000000      0.00000000      0.00000000      0.00000000      0.00000000      0.00000000</v>
  </separator>
  <separator name="performance" >
   <i type="int" name="NPAR">     4</i>
   <i type="int" name="NSIM">     4</i>
   <i type="int" name="NBLK">    -1</i>
   <i type="logical" name="LPLANE"> T  </i>
   <i type="logical" name="LSCALAPACK"> T  </i>
   <i type="logical" name="LSCAAWARE"> F  </i>
   <i type="logical" name="LSCALU"> F  </i>
   <i type="logical" name="LASYNC"> F  </i>
   <i type="logical" name="LORBITALREAL"> F  </i>
  </separator>
  <separator name="miscellaneous" >
   <i type="int" name="IDIOT">     3</i>
   <i type="int" name="PHON_NSTRUCT">    -1</i>
   <i type="logical" name="LMUSIC"> F  </i>
   <v name="POMASS">     28.08500000</v>
   <v name="DARWINR">      0.00000000</v>
   <v name="DARWINV">      1.00000000</v>
   <i type="logical" name="LCORR"> T  </i>
  </separator>
  <i type="logical" name="GGA_COMPAT"> T  </i>
  <i type="logical" name="LBERRY"> F  </i>
  <i type="int" name="ICORELEVEL">     0</i>
  <i type="logical" name="LDAU"> F  </i>
  <i type="int" name="I_CONSTRAINED_M">     0</i>
  <separator name="electronic exchange-correlation" >
   <i type="string" name="GGA">--</i>
   <i type="int" name="VOSKOWN">     0</i>
   <i type="logical" name="LHFCALC"> F  </i>
   <i type="string" name="PRECFOCK"></i>
   <i type="logical" name="LSYMGRAD"> F  </i>
   <i type="logical" name="LHFONE"> F  </i>
   <i type="logical" name="LRHFCALC"> F  </i>
   <i type="logical" name="LTHOMAS"> F  </i>
   <i type="logical" name="LMODELHF"> F  </i>
   <i type="logical" name="LFOCKACE"> F  </i>
   <i name="ENCUT4O">     -1.00000000</i>
   <i type="int" name="EXXOEP">     0</i>
   <i type="int" name="FOURORBIT">     0</i>
   <i name="AEXX">      0.00000000</i>
   <i name="HFALPHA">      0.00000000</i>
   <i name="MCALPHA">      0.00000000</i>
   <i name="ALDAX">      1.00000000</i>
   <i name="AGGAX">      1.00000000</i>
   <i name="ALDAC">      1.00000000</i>
   <i name="AGGAC">      1.00000000</i>
   <i type="int" name="NKREDX">     1</i>
   <i type="int" name="NKREDY">     1</i>
   <i type="int" name="NKREDZ">     1</i>
   <i type="logical" name="SHIFTRED"> F  </i>
   <i type="logical" name="ODDONLY"> F  </i>
   <i type="logical" name="EVENONLY"> F  </i>
   <i type="int" name="LMAXFOCK">     0</i>
   <i type="int" name="NMAXFOCKAE">     0</i>
   <i type="logical" name="LFOCKAEDFT"> F  </i>
   <i name="HFSCREEN">      0.00000000</i>
   <i name="HFSCREENC">      0.00000000</i>
   <i type="int" name="NBANDSGWLOW">     0</i>
  </separator>
  <separator name="vdW DFT" >
   <i type="logical" name="LUSE_VDW"> F  </i>
   <i name="Zab_VDW">     -0.84910000</i>
   <i name="PARAM1">      0.12340000</i>
   <i name="PARAM2">      1.00000000</i>
   <i name="PARAM3">      0.00000000</i>
  </separator>
  <separator name="model GW" >
   <i type="int" name="MODEL_GW">     0</i>
   <i name="MODEL_EPS0">     12.09885805</i>
   <i name="MODEL_ALPHA">      1.00000000</i>
  </separator>
  <separator name="linear response parameters" >
   <i type="logical" name="LEPSILON"> F  </i>
   <i type="logical" name="LRPA"> F  </i>
   <i type="logical" name="LNABLA"> F  </i>
   <i type="logical" name="LVEL"> F  </i>
   <i type="int" name="KINTER">     0</i>
   <i name="CSHIFT">      0.10000000</i>
   <i name="OMEGAMAX">     -1.00000000</i>
   <i name="DEG_THRESHOLD">      0.00200000</i>
   <i name="RTIME">     -0.10000000</i>
   <i name="WPLASMAI">      0.00000000</i>
   <v name="DFIELD">      0.00000000      0.00000000      0.00000000</v>
   <v name="WPLASMA">      0.00000000      0.00000000      0.00000000      0.00000000      0.00000000      0.00000000      0.00000000      0.00000000      0.00000000</v>
  </separator>
  <separator name="orbital magnetization" >
   <i type="logical" name="NUCIND"> F  </i>
   <v name="MAGPOS">      0.00000000      0.00000000      0.00000000</v>
   <i type="logical" name="LNICSALL"> T  </i>
   <i type="logical" name="ORBITALMAG"> F  </i>
   <i type="logical" name="LMAGBLOCH"> F  </i>
   <i type="logical" name="LCHIMAG"> F  </i>
   <i type="logical" name="LGAUGE"> T  </i>
   <i type="int" name="MAGATOM">     0</i>
   <v name="MAGDIPOL">      0.00000000      0.00000000      0.00000000</v>
   <v name="AVECCONST">      0.00000000      0.00000000      0.00000000</v>
  </separator>
  <separator name="response functions" >
   <i type="logical" name="LFINITE_TEMPERATURE"> F  </i>
   <i type="logical" name="LADDER"> F  </i>
   <i type="logical" name="LRPAFORCE"> F  </i>
   <i type="logical" name="LFXC"> F  </i>
   <i type="logical" name="LHARTREE"> T  </i>
   <i type="int" name="IBSE">     0</i>
   <v type="int" name="KPOINT">    -1     0     0     0</v>
   <i type="logical" name="LTCTC"> F  </i>
   <i type="logical" name="LTCTE"> F  </i>
   <i type="logical" name="LTETE"> F  </i>
   <i type="logical" name="LTRIPLET"> F  </i>
   <i type="logical" name="LFXCEPS"> F  </i>
   <i type="logical" name="LFXHEG"> F  </i>
   <i type="int" name="NATURALO">     2</i>
   <i type="logical" name="LHOLEGF"> F  </i>
   <i type="logical" name="L2ORDER"> F  </i>
   <i type="logical" name="LDMP1"> F  </i>
   <i type="logical" name="LMP2LT"> F  </i>
   <i type="logical" name="LSMP2LT"> F  </i>
   <i type="logical" name="LGWLF"> F  </i>
   <i name="ENCUTGW">     -2.00000000</i>
   <i name="ENCUTGWSOFT">     -2.00000000</i>
   <i name="ENCUTLF">     -1.00000000</i>
   <i type="logical" name="LESF_SPLINES"> F  </i>
   <i type="int" name="LMAXMP2">    -1</i>
   <i name="SCISSOR">      0.00000000</i>
   <i type="int" name="NOMEGA">     0</i>
   <i type="int" name="NOMEGAR">     0</i>
   <i type="int" name="NBANDSGW">    -1</i>
   <i type="int" name="NBANDSO">    -1</i>
   <i type="int" name="NBANDSV">    -1</i>
   <i type="int" name="NELM">    90</i>
   <i type="int" name="NELMHF">     1</i>
   <i type="int" name="DIM">     3</i>
   <i type="int" name="IESPILON">     4</i>
   <i type="int" name="ANTIRES">     0</i>
   <i name="OMEGAMAX">    -30.00000000</i>
   <i name="OMEGAMIN">    -30.00000000</i>
   <i name="OMEGATL">   -200.00000000</i>
   <i type="int" name="OMEGAGRID">     0</i>
   <i name="CSHIFT">     -0.10000000</i>
   <i type="logical" name="LSELFENERGY"> F  </i>
   <i type="logical" name="LSPECTRAL"> F  </i>
   <i type="logical" name="LSPECTRALGW"> F  </i>
   <i type="logical" name="LSINGLES"> F  </i>
   <i type="logical" name="LFERMIGW"> F  </i>
   <i type="logical" name="ODDONLYGW"> F  </i>
   <i type="logical" name="EVENONLYGW"> F  </i>
   <i type="int" name="NKREDLFX">     1</i>
   <i type="int" name="NKREDLFY">     1</i>
   <i type="int" name="NKREDLFZ">     1</i>
   <i type="int" name="MAXMEM">  2800</i>
   <i type="int" name="TELESCOPE">     0</i>
   <i type="int" name="NTAUPAR">    -1</i>
   <i type="int" name="NOMEGAPAR">    -1</i>
   <i name="DAMP_NEWTON">      0.80000001</i>
   <i name="LAMBDA">      1.00000000</i>
  </separator>
  <separator name="External order field" >
   <i name="OFIELD_KAPPA">      0.00000000</i>
   <v name="OFIELD_K">      0.00000000      0.00000000      0.00000000</v>
   <i name="OFIELD_Q6_NEAR">      0.00000000</i>
   <i name="OFIELD_Q6_FAR">      0.00000000</i>
   <i name="OFIELD_A">      0.00000000</i>
  </separator>
 </parameters>
 <atominfo>
  <atoms>       2 </atoms>
  <types>       1 </types>
  <array name="atoms" >
   <dimension dim="1">ion</dimension>
   <field type="string">element</field>
   <field type="int">atomtype</field>
   <set>
    <rc><c>Si</c><c>   1</c></rc>
    <rc><c>Si</c><c>   1</c></rc>
   </set>
  </array>
  <array name="atomtypes" >
   <dimension dim="1">type</dimension>
   <field type="int">atomspertype</field>
   <field type="string">element</field>
   <field>mass</field>
   <field>valence</field>
   <field type="string">pseudopotential</field>
   <set>
    <rc><c>   2</c><c>Si</c><c>     28.08500000</c><c>      4.00000000</c><c>  PAW_PBE Si 05Jan2001                  </c></rc>
   </set>
  </array>
 </atominfo>
 <structure name="initialpos" >
  <crystal>
   <varray name="basis" >
    <v>       3.33357300       0.00000000       1.92463900 </v>
    <v>       1.11119100       3.14292400       1.92463900 </v>
    <v>       0.00000000       0.00000000       3.84927800 </v>
   </varray>
   <i name="volume">     40.32952685 </i>
   <varray name="rec_basis" >
    <v>       0.29997843      -0.10605835       0.00000000 </v>
    <v>       0.00000000       0.31817505       0.00000000 </v>
    <v>      -0.14998922      -0.10605835       0.25978898 </v>
   </varray>
  </crystal>
  <varray name="positions" >
   <v>       0.87500000       0.87500000       0.87500000 </v>
   <v>       0.12500000       0.12500000       0.12500000 </v>
  </varray>
 </structure>
 <calculation>
  <scstep>
   <time name="dav">    0.68    0.69</time>
   <time name="total">    0.89    0.90</time>
   <energy>
    <i name="alphaZ">      3.33880741 </i>
    <i name="ewald">   -227.98820643 </i>
    <i name="hartreedc">    -11.11484531 </i>
    <i name="XCdc">    -18.63153637 </i>
    <i name="pawpsdc">    176.24759923 </i>
    <i name="pawaedc">   -141.06103558 </i>
    <i name="eentropy">     -0.00051299 </i>
    <i name="bandstr">     14.24960524 </i>
    <i name="atom">    206.13125414 </i>
    <i name="e_fr_energy">      1.17112933 </i>
    <i name="e_wo_entrp">      1.17164232 </i>
    <i name="e_0_energy">      1.17138583 </i>
   </energy>
  </scstep>
  <scstep>
   <time name="dav">    0.96    0.97</time>
   <time name="total">    0.96    0.97</time>
   <energy>
    <i name="e_fr_energy">    -10.88105836 </i>
    <i name="e_wo_entrp">    -10.88105836 </i>
    <i name="e_0_energy">    -10.88105836 </i>
   </energy>
  </scstep>
  <scstep>
   <time name="dav">    0.83    0.84</time>
   <time name="total">    0.83    0.84</time>
   <energy>
    <i name="e_fr_energy">    -11.02092330 </i>
    <i name="e_wo_entrp">    -11.02092330 </i>
    <i name="e_0_energy">    -11.02092330 </i>
   </energy>
  </scstep>
  <scstep>
   <time name="dav">    1.03    1.04</time>
   <time name="total">    1.03    1.04</time>
   <energy>
    <i name="e_fr_energy">    -11.02141999 </i>
    <i name="e_wo_entrp">    -11.02141999 </i>
    <i name="e_0_energy">    -11.02141999 </i>
   </energy>
  </scstep>
  <scstep>
   <time name="dav">    0.85    0.87</time>
   <time name="total">    0.92    0.94</time>
   <energy>
    <i name="e_fr_energy">    -11.02142022 </i>
    <i name="e_wo_entrp">    -11.02142022 </i>
    <i name="e_0_energy">    -11.02142022 </i>
   </energy>
  </scstep>
  <scstep>
   <time name="dav">    0.80    0.80</time>
   <time name="total">    1.07    1.08</time>
   <energy>
    <i name="e_fr_energy">    -10.89990484 </i>
    <i name="e_wo_entrp">    -10.89990484 </i>
    <i name="e_0_energy">    -10.89990484 </i>
   </energy>
  </scstep>
  <scstep>
   <time name="dav">    0.81    0.81</time>
   <time name="total">    1.07    1.09</time>
   <energy>
    <i name="e_fr_energy">    -10.84433926 </i>
    <i name="e_wo_entrp">    -10.84433926 </i>
    <i name="e_0_energy">    -10.84433926 </i>
   </energy>
  </scstep>
  <scstep>
   <time name="dav">    0.80    0.81</time>
   <time name="total">    1.08    1.09</time>
   <energy>
    <i name="e_fr_energy">    -10.84540464 </i>
    <i name="e_wo_entrp">    -10.84540464 </i>
    <i name="e_0_energy">    -10.84540464 </i>
   </energy>
  </scstep>
  <scstep>
   <time name="dav">    0.96    0.97</time>
   <time name="total">    1.25    1.27</time>
   <energy>
    <i name="e_fr_energy">    -10.84559784 </i>
    <i name="e_wo_entrp">    -10.84559784 </i>
    <i name="e_0_energy">    -10.84559784 </i>
   </energy>
  </scstep>
  <scstep>
   <time name="dav">    0.83    0.83</time>
   <time name="total">    1.10    1.12</time>
   <energy>
    <i name="e_fr_energy">    -10.84562342 </i>
    <i name="e_wo_entrp">    -10.84562342 </i>
    <i name="e_0_energy">    -10.84562342 </i>
   </energy>
  </scstep>
  <scstep>
   <time name="dav">    0.84    0.84</time>
   <time name="total">    1.05    1.07</time>
   <energy>
    <i name="alphaZ">      3.33880741 </i>
    <i name="ewald">   -227.98820643 </i>
    <i name="hartreedc">    -15.00476053 </i>
    <i name="XCdc">    -17.99566538 </i>
    <i name="pawpsdc">    864.86085336 </i>
    <i name="pawaedc">   -829.89240590 </i>
    <i name="eentropy">     -0.00000000 </i>
    <i name="bandstr">      5.70450014 </i>
    <i name="atom">    206.13125414 </i>
    <i name="e_fr_energy">    -10.84562319 </i>
    <i name="e_wo_entrp">    -10.84562319 </i>
    <i name="e_0_energy">    -10.84562319 </i>
   </energy>
  </scstep>
  <structure>
   <crystal>
    <varray name="basis" >
     <v>       3.33357300       0.00000000       1.92463900 </v>
     <v>       1.11119100       3.14292400       1.92463900 </v>
     <v>       0.00000000       0.00000000       3.84927800 </v>
    </varray>
    <i name="volume">     40.32952685 </i>
    <varray name="rec_basis" >
     <v>       0.29997843      -0.10605835       0.00000000 </v>
     <v>       0.00000000       0.31817505       0.00000000 </v>
     <v>      -0.14998922      -0.10605835       0.25978898 </v>
    </varray>
   </crystal>
   <varray name="positions" >
    <v>       0.87500000       0.87500000       0.87500000 </v>
    <v>       0.12500000       0.12500000       0.12500000 </v>
   </varray>
  </structure>
  <varray name="forces" >
   <v>       0.00000000      -0.00000000       0.00000000 </v>
   <v>      -0.00000000       0.00000000      -0.00000000 </v>
  </varray>
  <varray name="stress" >
   <v>      12.13515145      -0.00000000      -0.00000000 </v>
   <v>       0.00000000      12.13516099       0.00000000 </v>
   <v>       0.00000000       0.00000000      12.13514806 </v>
  </varray>
  <energy>
   <i name="e_fr_energy">    -10.84562319 </i>
   <i name="e_wo_entrp">    -10.84562319 </i>
   <i name="e_0_energy">    -10.84562319 </i>
  </energy>
  <time name="totalsc">   12.77   13.02</time>
 </calculation>
 <calculation>
  <scstep>
   <time name="dav">    0.81    0.82</time>
   <time name="total">    1.08    1.09</time>
   <energy>
    <i name="alphaZ">      3.26607919 </i>
    <i name="ewald">   -226.32063987 </i>
    <i name="hartreedc">    -14.89660229 </i>
    <i name="XCdc">    -18.10328030 </i>
    <i name="pawpsdc">    864.78073425 </i>
    <i name="pawaedc">   -829.81230517 </i>
    <i name="eentropy">     -0.00000000 </i>
    <i name="bandstr">      4.10535887 </i>
    <i name="atom">    206.13125414 </i>
    <i name="e_fr_energy">    -10.84940119 </i>
    <i name="e_wo_entrp">    -10.84940119 </i>
    <i name="e_0_energy">    -10.84940119 </i>
   </energy>
  </scstep>
  <scstep>
   <time name="dav">    0.88    0.88</time>
   <time name="total">    1.15    1.17</time>
   <energy>
    <i name="e_fr_energy">    -10.84763562 </i>
    <i name="e_wo_entrp">    -10.84763562 </i>
    <i name="e_0_energy">    -10.84763562 </i>
   </energy>
  </scstep>
  <scstep>
   <time name="dav">    0.79    0.79</time>
   <time name="total">    1.06    1.08</time>
   <energy>
    <i name="e_fr_energy">    -10.84670574 </i>
    <i name="e_wo_entrp">    -10.84670574 </i>
    <i name="e_0_energy">    -10.84670574 </i>
   </energy>
  </scstep>
  <scstep>
   <time name="dav">    0.92    0.93</time>
   <time name="total">    1.19    1.21</time>
   <energy>
    <i name="e_fr_energy">    -10.84670564 </i>
    <i name="e_wo_entrp">    -10.84670564 </i>
    <i name="e_0_energy">    -10.84670564 </i>
   </energy>
  </scstep>
  <scstep>
   <time name="dav">    0.76    0.76</time>
   <time name="total">    1.03    1.05</time>
   <energy>
    <i name="e_fr_energy">    -10.84669942 </i>
    <i name="e_wo_entrp">    -10.84669942 </i>
    <i name="e_0_energy">    -10.84669942 </i>
   </energy>
  </scstep>
  <scstep>
   <time name="dav">    0.53    0.53</time>
   <time name="total">    0.73    0.75</time>
   <energy>
    <i name="alphaZ">      3.26607919 </i>
    <i name="ewald">   -226.32063987 </i>
    <i name="hartreedc">    -15.26907364 </i>
    <i name="XCdc">    -18.09603082 </i>
    <i name="pawpsdc">    826.77769129 </i>
    <i name="pawaedc">   -791.79029492 </i>
    <i name="eentropy">     -0.00000000 </i>
    <i name="bandstr">      4.45431507 </i>
    <i name="atom">    206.13125414 </i>
    <i name="e_fr_energy">    -10.84669957 </i>
    <i name="e_wo_entrp">    -10.84669957 </i>
    <i name="e_0_energy">    -10.84669957 </i>
   </energy>
  </scstep>
  <structure>
   <crystal>
    <varray name="basis" >
     <v>       3.35813529      -0.00000000       1.93882004 </v>
     <v>       1.11937843       3.16608158       1.93882004 </v>
     <v>       0.00000000       0.00000000       3.87764008 </v>
    </varray>
    <i name="volume">     41.22757458 </i>
    <varray name="rec_basis" >
     <v>       0.29778431      -0.10528261      -0.00000000 </v>
     <v>       0.00000000       0.31584783      -0.00000000 </v>
     <v>      -0.14889215      -0.10528261       0.25788881 </v>
    </varray>
   </crystal>
   <varray name="positions" >
    <v>       0.87500000       0.87500000       0.87500000 </v>
    <v>       0.12500000       0.12500000       0.12500000 </v>
   </varray>
  </structure>
  <varray name="forces" >
   <v>      -0.00000000       0.00000000       0.00000000 </v>
   <v>       0.00000000      -0.00000000      -0.00000000 </v>
  </varray>
  <varray name="stress" >
   <v>      -7.75170433       0.00000000       0.00000000 </v>
   <v>      -0.00000000      -7.75171051       0.00000000 </v>
   <v>       0.00000000      -0.00000000      -7.75170214 </v>
  </varray>
  <energy>
   <i name="e_fr_energy">    -10.84669957 </i>
   <i name="e_wo_entrp">    -10.84669957 </i>
   <i name="e_0_energy">    -10.84669957 </i>
  </energy>
  <time name="totalsc">    7.74    7.94</time>
 </calculation>
 <calculation>
  <scstep>
   <time name="dav">    0.81    0.81</time>
   <time name="total">    1.08    1.08</time>
   <energy>
    <i name="alphaZ">      3.29544991 </i>
    <i name="ewald">   -226.99702428 </i>
    <i name="hartreedc">    -15.31543318 </i>
    <i name="XCdc">    -18.05254030 </i>
    <i name="pawpsdc">    825.05187488 </i>
    <i name="pawaedc">   -790.06459233 </i>
    <i name="eentropy">     -0.00000000 </i>
    <i name="bandstr">      5.10297575 </i>
    <i name="atom">    206.13125414 </i>
    <i name="e_fr_energy">    -10.84803541 </i>
    <i name="e_wo_entrp">    -10.84803541 </i>
    <i name="e_0_energy">    -10.84803541 </i>
   </energy>
  </scstep>
  <scstep>
   <time name="dav">    0.87    0.88</time>
   <time name="total">    1.14    1.16</time>
   <energy>
    <i name="e_fr_energy">    -10.84774422 </i>
    <i name="e_wo_entrp">    -10.84774422 </i>
    <i name="e_0_energy">    -10.84774422 </i>
   </energy>
  </scstep>
  <scstep>
   <time name="dav">    0.77    0.77</time>
   <time name="total">    1.04    1.06</time>
   <energy>
    <i name="e_fr_energy">    -10.84759680 </i>
    <i name="e_wo_entrp">    -10.84759680 </i>
    <i name="e_0_energy">    -10.84759680 </i>
   </energy>
  </scstep>
  <scstep>
   <time name="dav">    0.89    0.89</time>
   <time name="total">    1.16    1.18</time>
   <energy>
    <i name="e_fr_energy">    -10.84759744 </i>
    <i name="e_wo_entrp">    -10.84759744 </i>
    <i name="e_0_energy">    -10.84759744 </i>
   </energy>
  </scstep>
  <scstep>
   <time name="dav">    0.69    0.69</time>
   <time name="total">    0.96    0.98</time>
   <energy>
    <i name="e_fr_energy">    -10.84759913 </i>
    <i name="e_wo_entrp">    -10.84759913 </i>
    <i name="e_0_energy">    -10.84759913 </i>
   </energy>
  </scstep>
  <scstep>
   <time name="dav">    0.46    0.46</time>
   <time name="total">    0.66    0.67</time>
   <energy>
    <i name="alphaZ">      3.29544991 </i>
    <i name="ewald">   -226.99702428 </i>
    <i name="hartreedc">    -15.16252325 </i>
    <i name="XCdc">    -18.05531131 </i>
    <i name="pawpsdc">    840.73540649 </i>
    <i name="pawaedc">   -805.75570979 </i>
    <i name="eentropy">     -0.00000000 </i>
    <i name="bandstr">      4.96085900 </i>
    <i name="atom">    206.13125414 </i>
    <i name="e_fr_energy">    -10.84759909 </i>
    <i name="e_wo_entrp">    -10.84759909 </i>
    <i name="e_0_energy">    -10.84759909 </i>
   </energy>
  </scstep>
  <structure>
   <crystal>
    <varray name="basis" >
     <v>       3.34812904      -0.00000000       1.93304293 </v>
     <v>       1.11604301       3.15664758       1.93304293 </v>
     <v>       0.00000000       0.00000000       3.86608586 </v>
    </varray>
    <i name="volume">     40.86013346 </i>
    <varray name="rec_basis" >
     <v>       0.29867427      -0.10559726      -0.00000000 </v>
     <v>       0.00000000       0.31679178      -0.00000000 </v>
     <v>      -0.14933714      -0.10559726       0.25865954 </v>
    </varray>
   </crystal>
   <varray name="positions" >
    <v>       0.87500000       0.87500000       0.87500000 </v>
    <v>       0.12500000       0.12500000       0.12500000 </v>
   </varray>
  </structure>
  <varray name="forces" >
   <v>      -0.00000000       0.00000000       0.00000000 </v>
   <v>       0.00000000      -0.00000000      -0.00000000 </v>
  </varray>
  <varray name="stress" >
   <v>       0.06965970       0.00000000      -0.00000000 </v>
   <v>       0.00000000       0.06965976       0.00000000 </v>
   <v>       0.00000000      -0.00000000       0.06965968 </v>
  </varray>
  <energy>
   <i name="e_fr_energy">    -10.84759909 </i>
   <i name="e_wo_entrp">    -10.84759909 </i>
   <i name="e_0_energy">    -10.84759909 </i>
  </energy>
  <time name="totalsc">    7.45    7.64</time>
  <eigenvalues>
   <array>
    <dimension dim="1">band</dimension>
    <dimension dim="2">kpoint</dimension>
    <dimension dim="3">spin</dimension>
    <field>eigene</field>
    <field>occ</field>
    <set>
     <set comment="spin 1">
      <set comment="kpoint 1">
       <r>   -6.1966    1.0000 </r>
       <r>    5.6237    1.0000 </r>
       <r>    5.6237    1.0000 </r>
       <r>    5.6237    1.0000 </r>
       <r>    8.1814    0.0000 </r>
       <r>    8.1814    0.0000 </r>
       <r>    8.1814    0.0000 </r>
       <r>    8.7643    0.0000 </r>
      </set>
      <set comment="kpoint 2">
       <r>   -6.1203    1.0000 </r>
       <r>    4.8706    1.0000 </r>
       <r>    5.5023    1.0000 </r>
       <r>    5.5023    1.0000 </r>
       <r>    8.2028    0.0000 </r>
       <r>    8.3601    0.0000 </r>
       <r>    8.3601    0.0000 </r>
       <r>    9.3695    0.0000 </r>
      </set>
      <set comment="kpoint 3">
       <r>   -5.8937    1.0000 </r>
       <r>    3.4987    1.0000 </r>
       <r>    5.2319    1.0000 </r>
       <r>    5.2319    1.0000 </r>
       <r>    7.9626    0.0000 </r>
       <r>    8.7519    0.0000 </r>
       <r>    8.7519    0.0000 </r>
       <r>   10.6766    0.0000 </r>
      </set>
      <set comment="kpoint 4">
       <r>   -5.5241    1.0000 </r>
       <r>    2.0789    1.0000 </r>
       <r>    4.9437    1.0000 </r>
       <r>    4.9437    1.0000 </r>
       <r>    7.6584    0.0000 </r>
       <r>    9.0737    0.0000 </r>
       <r>    9.0737    0.0000 </r>
       <r>   12.0516    0.0000 </r>
      </set>
      <set comment="kpoint 5">
       <r>   -5.0306    1.0000 </r>
       <r>    0.7559    1.0000 </r>
       <r>    4.7042    1.0000 </r>
       <r>    4.7042    1.0000 </r>
       <r>    7.3917    0.0000 </r>
       <r>    9.1483    0.0000 </r>
       <r>    9.1483    0.0000 </r>
       <r>   13.2158    0.0000 </r>
      </set>
      <set comment="kpoint 6">
       <r>   -4.4651    1.0000 </r>
       <r>   -0.3767    1.0000 </r>
       <r>    4.5385    1.0000 </r>
       <r>    4.5385    1.0000 </r>
       <r>    7.2025    0.0000 </r>
       <r>    9.0661    0.0000 </r>
       <r>    9.0661    0.0000 </r>
       <r>   13.4535    0.0000 </r>
      </set>
      <set comment="kpoint 7">
       <r>   -3.9951    1.0000 </r>
       <r>   -1.1339    1.0000 </r>
       <r>    4.4546    1.0000 </r>
       <r>    4.4546    1.0000 </r>
       <r>    7.1056    0.0000 </r>
       <r>    8.9867    0.0000 </r>
       <r>    8.9867    0.0000 </r>
       <r>   13.3456    0.0000 </r>
      </set>
      <set comment="kpoint 8">
       <r>   -6.0948    1.0000 </r>
       <r>    5.0045    1.0000 </r>
       <r>    5.2575    1.0000 </r>
       <r>    5.2575    1.0000 </r>
       <r>    7.9491    0.0000 </r>
       <r>    8.6736    0.0000 </r>
       <r>    8.6736    0.0000 </r>
       <r>    9.3462    0.0000 </r>
      </set>
      <set comment="kpoint 9">
       <r>   -5.9179    1.0000 </r>
       <r>    3.8998    1.0000 </r>
       <r>    4.9316    1.0000 </r>
       <r>    5.1090    1.0000 </r>
       <r>    7.9575    0.0000 </r>
       <r>    8.7240    0.0000 </r>
       <r>    9.1525    0.0000 </r>
       <r>   10.2676    0.0000 </r>
      </set>
      <set comment="kpoint 10">
       <r>   -5.5950    1.0000 </r>
       <r>    2.5288    1.0000 </r>
       <r>    4.6343    1.0000 </r>
       <r>    4.8306    1.0000 </r>
       <r>    8.0488    0.0000 </r>
       <r>    8.7272    0.0000 </r>
       <r>    9.5487    0.0000 </r>
       <r>   10.9940    0.0000 </r>
      </set>
      <set comment="kpoint 11">
       <r>   -5.1398    1.0000 </r>
       <r>    1.1914    1.0000 </r>
       <r>    4.4148    1.0000 </r>
       <r>    4.5102    1.0000 </r>
       <r>    7.8905    0.0000 </r>
       <r>    8.8793    0.0000 </r>
       <r>    9.6605    0.0000 </r>
       <r>   11.4697    0.0000 </r>
      </set>
      <set comment="kpoint 12">
       <r>   -4.5885    1.0000 </r>
       <r>   -0.0029    1.0000 </r>
       <r>    4.2270    1.0000 </r>
       <r>    4.2921    1.0000 </r>
       <r>    7.7051    0.0000 </r>
       <r>    8.8953    0.0000 </r>
       <r>    9.5343    0.0000 </r>
       <r>   12.3139    0.0000 </r>
      </set>
      <set comment="kpoint 13">
       <r>   -4.0532    1.0000 </r>
       <r>   -0.9129    1.0000 </r>
       <r>    4.0133    1.0000 </r>
       <r>    4.2699    1.0000 </r>
       <r>    7.5866    0.0000 </r>
       <r>    8.8781    0.0000 </r>
       <r>    9.3490    0.0000 </r>
       <r>   13.2630    0.0000 </r>
      </set>
      <set comment="kpoint 14">
       <r>   -3.8574    1.0000 </r>
       <r>   -1.2026    1.0000 </r>
       <r>    3.8855    1.0000 </r>
       <r>    4.3447    1.0000 </r>
       <r>    7.5572    0.0000 </r>
       <r>    8.9344    0.0000 </r>
       <r>    9.2145    0.0000 </r>
       <r>   13.5841    0.0000 </r>
      </set>
      <set comment="kpoint 15">
       <r>   -4.2167    1.0000 </r>
       <r>   -0.6541    1.0000 </r>
       <r>    3.8544    1.0000 </r>
       <r>    4.5075    1.0000 </r>
       <r>    7.6211    0.0000 </r>
       <r>    9.0839    0.0000 </r>
       <r>    9.1594    0.0000 </r>
       <r>   13.4733    0.0000 </r>
      </set>
      <set comment="kpoint 16">
       <r>   -4.7798    1.0000 </r>
       <r>    0.3754    1.0000 </r>
       <r>    3.9279    1.0000 </r>
       <r>    4.7444    1.0000 </r>
       <r>    7.7744    0.0000 </r>
       <r>    9.1378    0.0000 </r>
       <r>    9.2718    0.0000 </r>
       <r>   12.7618    0.0000 </r>
      </set>
      <set comment="kpoint 17">
       <r>   -5.3056    1.0000 </r>
       <r>    1.6260    1.0000 </r>
       <r>    4.1117    1.0000 </r>
       <r>    5.0323    1.0000 </r>
       <r>    8.0039    0.0000 </r>
       <r>    9.0174    0.0000 </r>
       <r>    9.3328    0.0000 </r>
       <r>   11.8855    0.0000 </r>
      </set>
      <set comment="kpoint 18">
       <r>   -5.7188    1.0000 </r>
       <r>    2.9721    1.0000 </r>
       <r>    4.4132    1.0000 </r>
       <r>    5.3248    1.0000 </r>
       <r>    8.2747    0.0000 </r>
       <r>    8.7060    0.0000 </r>
       <r>    9.0426    0.0000 </r>
       <r>   11.0975    0.0000 </r>
      </set>
      <set comment="kpoint 19">
       <r>   -5.9938    1.0000 </r>
       <r>    4.2024    1.0000 </r>
       <r>    4.8882    1.0000 </r>
       <r>    5.5250    1.0000 </r>
       <r>    8.3911    0.0000 </r>
       <r>    8.4724    0.0000 </r>
       <r>    8.5231    0.0000 </r>
       <r>   10.1234    0.0000 </r>
      </set>
      <set comment="kpoint 20">
       <r>   -5.7909    1.0000 </r>
       <r>    3.7896    1.0000 </r>
       <r>    4.5731    1.0000 </r>
       <r>    4.5731    1.0000 </r>
       <r>    7.4324    0.0000 </r>
       <r>    9.7284    0.0000 </r>
       <r>    9.7284    0.0000 </r>
       <r>    9.9059    0.0000 </r>
      </set>
      <set comment="kpoint 21">
       <r>   -5.5160    1.0000 </r>
       <r>    2.7932    1.0000 </r>
       <r>    4.2571    1.0000 </r>
       <r>    4.2788    1.0000 </r>
       <r>    7.4272    0.0000 </r>
       <r>    9.5411    0.0000 </r>
       <r>   10.1950    0.0000 </r>
       <r>   10.2561    0.0000 </r>
      </set>
      <set comment="kpoint 22">
       <r>   -5.1033    1.0000 </r>
       <r>    1.5751    1.0000 </r>
       <r>    3.8952    1.0000 </r>
       <r>    4.0301    1.0000 </r>
       <r>    7.6537    0.0000 </r>
       <r>    9.5585    0.0000 </r>
       <r>   10.1222    0.0000 </r>
       <r>   10.4956    0.0000 </r>
      </set>
      <set comment="kpoint 23">
       <r>   -4.5779    1.0000 </r>
       <r>    0.3967    1.0000 </r>
       <r>    3.4999    1.0000 </r>
       <r>    3.9117    1.0000 </r>
       <r>    7.7158    0.0000 </r>
       <r>    9.6454    0.0000 </r>
       <r>   10.4087    0.0000 </r>
       <r>   10.5331    0.0000 </r>
      </set>
      <set comment="kpoint 24">
       <r>   -4.0138    1.0000 </r>
       <r>   -0.5946    1.0000 </r>
       <r>    3.1676    1.0000 </r>
       <r>    3.9073    1.0000 </r>
       <r>    7.7068    0.0000 </r>
       <r>    9.5292    0.0000 </r>
       <r>   10.1805    0.0000 </r>
       <r>   11.6349    0.0000 </r>
      </set>
      <set comment="kpoint 25">
       <r>   -3.6545    1.0000 </r>
       <r>   -1.1257    1.0000 </r>
       <r>    2.9312    1.0000 </r>
       <r>    4.0141    1.0000 </r>
       <r>    7.7643    0.0000 </r>
       <r>    9.4650    0.0000 </r>
       <r>    9.9580    0.0000 </r>
       <r>   12.9765    0.0000 </r>
      </set>
      <set comment="kpoint 26">
       <r>   -3.8585    1.0000 </r>
       <r>   -0.8292    1.0000 </r>
       <r>    2.8111    1.0000 </r>
       <r>    4.2220    1.0000 </r>
       <r>    7.9214    0.0000 </r>
       <r>    9.4942    0.0000 </r>
       <r>    9.7937    0.0000 </r>
       <r>   13.6052    0.0000 </r>
      </set>
      <set comment="kpoint 27">
       <r>   -4.3970    1.0000 </r>
       <r>    0.0566    1.0000 </r>
       <r>    2.8268    1.0000 </r>
       <r>    4.5115    1.0000 </r>
       <r>    8.1611    0.0000 </r>
       <r>    9.5989    0.0000 </r>
       <r>    9.6574    0.0000 </r>
       <r>   12.4683    0.0000 </r>
      </set>
      <set comment="kpoint 28">
       <r>   -4.9464    1.0000 </r>
       <r>    1.1642    1.0000 </r>
       <r>    3.0157    1.0000 </r>
       <r>    4.8467    1.0000 </r>
       <r>    8.4349    0.0000 </r>
       <r>    9.4204    0.0000 </r>
       <r>    9.6308    0.0000 </r>
       <r>   11.5265    0.0000 </r>
      </set>
      <set comment="kpoint 29">
       <r>   -5.3986    1.0000 </r>
       <r>    2.2311    1.0000 </r>
       <r>    3.4979    1.0000 </r>
       <r>    5.1585    1.0000 </r>
       <r>    8.6192    0.0000 </r>
       <r>    9.0183    0.0000 </r>
       <r>    9.2791    0.0000 </r>
       <r>   11.1952    0.0000 </r>
      </set>
      <set comment="kpoint 30">
       <r>   -5.2890    1.0000 </r>
       <r>    2.4460    1.0000 </r>
       <r>    3.9185    1.0000 </r>
       <r>    3.9185    1.0000 </r>
       <r>    6.8945    0.0000 </r>
       <r>    9.0437    0.0000 </r>
       <r>   10.9866    0.0000 </r>
       <r>   10.9866    0.0000 </r>
      </set>
      <set comment="kpoint 31">
       <r>   -4.9208    1.0000 </r>
       <r>    1.5966    1.0000 </r>
       <r>    3.5204    1.0000 </r>
       <r>    3.6699    1.0000 </r>
       <r>    6.9385    0.0000 </r>
       <r>    8.6755    0.0000 </r>
       <r>   11.2560    0.0000 </r>
       <r>   11.4694    0.0000 </r>
      </set>
      <set comment="kpoint 32">
       <r>   -4.4291    1.0000 </r>
       <r>    0.6080    1.0000 </r>
       <r>    2.9834    1.0000 </r>
       <r>    3.5334    1.0000 </r>
       <r>    7.1665    0.0000 </r>
       <r>    8.9309    0.0000 </r>
       <r>   11.1335    0.0000 </r>
       <r>   11.5263    0.0000 </r>
      </set>
      <set comment="kpoint 33">
       <r>   -3.8625    1.0000 </r>
       <r>   -0.3352    1.0000 </r>
       <r>    2.4867    1.0000 </r>
       <r>    3.5173    1.0000 </r>
       <r>    7.2457    0.0000 </r>
       <r>    9.8691    0.0000 </r>
       <r>   10.9592    0.0000 </r>
       <r>   11.3198    0.0000 </r>
      </set>
      <set comment="kpoint 34">
       <r>   -3.3885    1.0000 </r>
       <r>   -1.0018    1.0000 </r>
       <r>    2.1132    1.0000 </r>
       <r>    3.6210    1.0000 </r>
       <r>    7.3462    0.0000 </r>
       <r>   10.7433    0.0000 </r>
       <r>   11.0541    0.0000 </r>
       <r>   11.2647    0.0000 </r>
      </set>
      <set comment="kpoint 35">
       <r>   -3.4128    1.0000 </r>
       <r>   -0.9629    1.0000 </r>
       <r>    1.8991    1.0000 </r>
       <r>    3.8362    1.0000 </r>
       <r>    7.5580    0.0000 </r>
       <r>   10.6978    0.0000 </r>
       <r>   10.8088    0.0000 </r>
       <r>   12.7389    0.0000 </r>
      </set>
      <set comment="kpoint 36">
       <r>   -3.9025    1.0000 </r>
       <r>   -0.2756    1.0000 </r>
       <r>    1.8917    1.0000 </r>
       <r>    4.1439    1.0000 </r>
       <r>    7.8791    0.0000 </r>
       <r>   10.5378    0.0000 </r>
       <r>   10.6648    0.0000 </r>
       <r>   12.3222    0.0000 </r>
      </set>
      <set comment="kpoint 37">
       <r>   -4.4638    1.0000 </r>
       <r>    0.5449    1.0000 </r>
       <r>    2.2120    1.0000 </r>
       <r>    4.5062    1.0000 </r>
       <r>    8.2458    0.0000 </r>
       <r>   10.0544    0.0000 </r>
       <r>   10.3801    0.0000 </r>
       <r>   11.4798    0.0000 </r>
      </set>
      <set comment="kpoint 38">
       <r>   -4.5967    1.0000 </r>
       <r>    1.0830    1.0000 </r>
       <r>    3.3940    1.0000 </r>
       <r>    3.3940    1.0000 </r>
       <r>    6.4799    0.0000 </r>
       <r>    7.9610    0.0000 </r>
       <r>   12.3385    0.0000 </r>
       <r>   12.3385    0.0000 </r>
      </set>
      <set comment="kpoint 39">
       <r>   -4.1428    1.0000 </r>
       <r>    0.3413    1.0000 </r>
       <r>    2.9669    1.0000 </r>
       <r>    3.2294    1.0000 </r>
       <r>    6.5954    0.0000 </r>
       <r>    7.7417    0.0000 </r>
       <r>   12.6364    0.0000 </r>
       <r>   12.7388    0.0000 </r>
      </set>
      <set comment="kpoint 40">
       <r>   -3.5908    1.0000 </r>
       <r>   -0.4279    1.0000 </r>
       <r>    2.3247    1.0000 </r>
       <r>    3.1874    1.0000 </r>
       <r>    6.7902    0.0000 </r>
       <r>    8.3050    0.0000 </r>
       <r>   12.5405    0.0000 </r>
       <r>   12.6538    0.0000 </r>
      </set>
      <set comment="kpoint 41">
       <r>   -3.0503    1.0000 </r>
       <r>   -1.0757    1.0000 </r>
       <r>    1.7564    1.0000 </r>
       <r>    3.2697    1.0000 </r>
       <r>    6.9076    0.0000 </r>
       <r>    9.4856    0.0000 </r>
       <r>   12.3812    0.0000 </r>
       <r>   12.3824    0.0000 </r>
      </set>
      <set comment="kpoint 42">
       <r>   -2.9132    1.0000 </r>
       <r>   -1.2161    1.0000 </r>
       <r>    1.4087    1.0000 </r>
       <r>    3.4702    1.0000 </r>
       <r>    7.1240    0.0000 </r>
       <r>   10.9251    0.0000 </r>
       <r>   12.0492    0.0000 </r>
       <r>   12.2732    0.0000 </r>
      </set>
      <set comment="kpoint 43">
       <r>   -3.3471    1.0000 </r>
       <r>   -0.7523    1.0000 </r>
       <r>    1.4031    1.0000 </r>
       <r>    3.7731    1.0000 </r>
       <r>    7.4642    0.0000 </r>
       <r>   11.4805    0.0000 </r>
       <r>   11.7518    0.0000 </r>
       <r>   12.4804    0.0000 </r>
      </set>
      <set comment="kpoint 44">
       <r>   -3.7260    1.0000 </r>
       <r>   -0.2545    1.0000 </r>
       <r>    3.0331    1.0000 </r>
       <r>    3.0331    1.0000 </r>
       <r>    6.2586    0.0000 </r>
       <r>    7.1094    0.0000 </r>
       <r>   13.7452    0.0000 </r>
       <r>   13.7452    0.0000 </r>
      </set>
      <set comment="kpoint 45">
       <r>   -3.1983    1.0000 </r>
       <r>   -0.9138    1.0000 </r>
       <r>    2.6364    1.0000 </r>
       <r>    2.9588    1.0000 </r>
       <r>    6.4375    0.0000 </r>
       <r>    7.1012    0.0000 </r>
       <r>   14.0561    0.0000 </r>
       <r>   14.0706    0.0000 </r>
      </set>
      <set comment="kpoint 46">
       <r>   -2.6283    1.0000 </r>
       <r>   -1.5044    1.0000 </r>
       <r>    1.9956    1.0000 </r>
       <r>    3.0108    1.0000 </r>
       <r>    6.5874    0.0000 </r>
       <r>    7.9939    0.0000 </r>
       <r>   13.8431    0.0000 </r>
       <r>   13.9967    0.0000 </r>
      </set>
      <set comment="kpoint 47">
       <r>   -2.4609    1.0000 </r>
       <r>   -1.6289    1.0000 </r>
       <r>    1.4945    1.0000 </r>
       <r>    3.1855    1.0000 </r>
       <r>    6.7886    0.0000 </r>
       <r>    9.3602    0.0000 </r>
       <r>   13.2456    0.0000 </r>
       <r>   13.7945    0.0000 </r>
      </set>
      <set comment="kpoint 48">
       <r>   -2.6943    1.0000 </r>
       <r>   -1.5263    1.0000 </r>
       <r>    2.8500    1.0000 </r>
       <r>    2.8500    1.0000 </r>
       <r>    6.2715    0.0000 </r>
       <r>    6.5479    0.0000 </r>
       <r>   15.1468    0.0000 </r>
       <r>   15.1468    0.0000 </r>
      </set>
      <set comment="kpoint 49">
       <r>   -2.1496    1.0000 </r>
       <r>   -2.0702    1.0000 </r>
       <r>    2.5268    1.0000 </r>
       <r>    2.8677    1.0000 </r>
       <r>    6.4221    0.0000 </r>
       <r>    6.8476    0.0000 </r>
       <r>   15.1036    0.0000 </r>
       <r>   15.2846    0.0000 </r>
      </set>
      <set comment="kpoint 50">
       <r>   -5.6923    1.0000 </r>
       <r>    3.1552    1.0000 </r>
       <r>    4.1974    1.0000 </r>
       <r>    5.0182    1.0000 </r>
       <r>    7.9657    0.0000 </r>
       <r>    9.0171    0.0000 </r>
       <r>    9.5609    0.0000 </r>
       <r>   10.5523    0.0000 </r>
      </set>
      <set comment="kpoint 51">
       <r>   -5.3243    1.0000 </r>
       <r>    2.0100    1.0000 </r>
       <r>    3.7011    1.0000 </r>
       <r>    4.7852    1.0000 </r>
       <r>    8.2034    0.0000 </r>
       <r>    9.0065    0.0000 </r>
       <r>    9.9731    0.0000 </r>
       <r>   10.5896    0.0000 </r>
      </set>
      <set comment="kpoint 52">
       <r>   -4.8323    1.0000 </r>
       <r>    0.7880    1.0000 </r>
       <r>    3.4250    1.0000 </r>
       <r>    4.4874    1.0000 </r>
       <r>    8.2293    0.0000 </r>
       <r>    8.9945    0.0000 </r>
       <r>   10.0752    0.0000 </r>
       <r>   11.0334    0.0000 </r>
      </set>
      <set comment="kpoint 53">
       <r>   -4.2669    1.0000 </r>
       <r>   -0.3017    1.0000 </r>
       <r>    3.2747    1.0000 </r>
       <r>    4.2347    1.0000 </r>
       <r>    8.1382    0.0000 </r>
       <r>    8.8834    0.0000 </r>
       <r>   10.0035    0.0000 </r>
       <r>   12.0027    0.0000 </r>
      </set>
      <set comment="kpoint 54">
       <r>   -3.7934    1.0000 </r>
       <r>   -1.0452    1.0000 </r>
       <r>    3.2119    1.0000 </r>
       <r>    4.0903    1.0000 </r>
       <r>    8.0777    0.0000 </r>
       <r>    8.7846    0.0000 </r>
       <r>    9.9284    0.0000 </r>
       <r>   13.2158    0.0000 </r>
      </set>
      <set comment="kpoint 55">
       <r>   -5.1950    1.0000 </r>
       <r>    2.0506    1.0000 </r>
       <r>    3.5419    1.0000 </r>
       <r>    4.1968    1.0000 </r>
       <r>    7.4519    0.0000 </r>
       <r>    9.3209    0.0000 </r>
       <r>   10.2612    0.0000 </r>
       <r>   10.8723    0.0000 </r>
      </set>
      <set comment="kpoint 56">
       <r>   -4.7425    1.0000 </r>
       <r>    1.0584    1.0000 </r>
       <r>    3.0448    1.0000 </r>
       <r>    3.9446    1.0000 </r>
       <r>    7.7490    0.0000 </r>
       <r>    9.4220    0.0000 </r>
       <r>   10.0482    0.0000 </r>
       <r>   11.2535    0.0000 </r>
      </set>
      <set comment="kpoint 57">
       <r>   -4.1924    1.0000 </r>
       <r>    0.0290    1.0000 </r>
       <r>    2.7134    1.0000 </r>
       <r>    3.7155    1.0000 </r>
       <r>    7.8776    0.0000 </r>
       <r>    9.7523    0.0000 </r>
       <r>   10.2111    0.0000 </r>
       <r>   11.2743    0.0000 </r>
      </set>
      <set comment="kpoint 58">
       <r>   -3.6530    1.0000 </r>
       <r>   -0.8097    1.0000 </r>
       <r>    2.4748    1.0000 </r>
       <r>    3.6251    1.0000 </r>
       <r>    7.9496    0.0000 </r>
       <r>    9.4865    0.0000 </r>
       <r>   11.1646    0.0000 </r>
       <r>   11.4501    0.0000 </r>
      </set>
      <set comment="kpoint 59">
       <r>   -3.4579    1.0000 </r>
       <r>   -1.0777    1.0000 </r>
       <r>    2.3215    1.0000 </r>
       <r>    3.6970    1.0000 </r>
       <r>    8.1017    0.0000 </r>
       <r>    9.2926    0.0000 </r>
       <r>   11.0805    0.0000 </r>
       <r>   12.8737    0.0000 </r>
      </set>
      <set comment="kpoint 60">
       <r>   -3.8307    1.0000 </r>
       <r>   -0.5454    1.0000 </r>
       <r>    2.2840    1.0000 </r>
       <r>    3.9090    1.0000 </r>
       <r>    8.3529    0.0000 </r>
       <r>    9.1802    0.0000 </r>
       <r>   11.0184    0.0000 </r>
       <r>   11.8642    0.0000 </r>
      </set>
      <set comment="kpoint 61">
       <r>   -4.3953    1.0000 </r>
       <r>    0.3735    1.0000 </r>
       <r>    2.4179    1.0000 </r>
       <r>    4.2183    1.0000 </r>
       <r>    8.6619    0.0000 </r>
       <r>    9.0737    0.0000 </r>
       <r>   10.6948    0.0000 </r>
       <r>   11.0262    0.0000 </r>
      </set>
      <set comment="kpoint 62">
       <r>   -4.9164    1.0000 </r>
       <r>    1.3119    1.0000 </r>
       <r>    2.8456    1.0000 </r>
       <r>    4.5543    1.0000 </r>
       <r>    8.6835    0.0000 </r>
       <r>    8.9600    0.0000 </r>
       <r>   10.3458    0.0000 </r>
       <r>   10.5852    0.0000 </r>
      </set>
      <set comment="kpoint 63">
       <r>   -4.5108    1.0000 </r>
       <r>    0.8857    1.0000 </r>
       <r>    3.0278    1.0000 </r>
       <r>    3.4612    1.0000 </r>
       <r>    7.0454    0.0000 </r>
       <r>    8.3484    0.0000 </r>
       <r>   11.3470    0.0000 </r>
       <r>   12.2787    0.0000 </r>
      </set>
      <set comment="kpoint 64">
       <r>   -3.9877    1.0000 </r>
       <r>    0.0706    1.0000 </r>
       <r>    2.5017    1.0000 </r>
       <r>    3.2399    1.0000 </r>
       <r>    7.3615    0.0000 </r>
       <r>    8.6544    0.0000 </r>
       <r>   11.1055    0.0000 </r>
       <r>   12.6390    0.0000 </r>
      </set>
      <set comment="kpoint 65">
       <r>   -3.4207    1.0000 </r>
       <r>   -0.7065    1.0000 </r>
       <r>    2.0274    1.0000 </r>
       <r>    3.1730    1.0000 </r>
       <r>    7.4928    0.0000 </r>
       <r>    9.6808    0.0000 </r>
       <r>   10.8291    0.0000 </r>
       <r>   12.6098    0.0000 </r>
      </set>
      <set comment="kpoint 66">
       <r>   -3.0640    1.0000 </r>
       <r>   -1.1414    1.0000 </r>
       <r>    1.6936    1.0000 </r>
       <r>    3.2714    1.0000 </r>
       <r>    7.6600    0.0000 </r>
       <r>   10.4733    0.0000 </r>
       <r>   11.1749    0.0000 </r>
       <r>   12.4727    0.0000 </r>
      </set>
      <set comment="kpoint 67">
       <r>   -3.3100    1.0000 </r>
       <r>   -0.8387    1.0000 </r>
       <r>    1.5701    1.0000 </r>
       <r>    3.5082    1.0000 </r>
       <r>    7.9400    0.0000 </r>
       <r>   10.2987    0.0000 </r>
       <r>   11.7916    0.0000 </r>
       <r>   12.3084    0.0000 </r>
      </set>
      <set comment="kpoint 68">
       <r>   -3.8582    1.0000 </r>
       <r>   -0.1820    1.0000 </r>
       <r>    1.7663    1.0000 </r>
       <r>    3.8463    1.0000 </r>
       <r>    8.3150    0.0000 </r>
       <r>    9.8896    0.0000 </r>
       <r>   10.8714    0.0000 </r>
       <r>   11.8931    0.0000 </r>
      </set>
      <set comment="kpoint 69">
       <r>   -3.6536    1.0000 </r>
       <r>   -0.3220    1.0000 </r>
       <r>    2.6933    1.0000 </r>
       <r>    2.9325    1.0000 </r>
       <r>    6.8169    0.0000 </r>
       <r>    7.5567    0.0000 </r>
       <r>   12.5877    0.0000 </r>
       <r>   13.7318    0.0000 </r>
      </set>
      <set comment="kpoint 70">
       <r>   -3.0853    1.0000 </r>
       <r>   -0.9783    1.0000 </r>
       <r>    2.1296    1.0000 </r>
       <r>    2.8236    1.0000 </r>
       <r>    7.1143    0.0000 </r>
       <r>    8.1636    0.0000 </r>
       <r>   12.3152    0.0000 </r>
       <r>   14.0598    0.0000 </r>
      </set>
      <set comment="kpoint 71">
       <r>   -2.6201    1.0000 </r>
       <r>   -1.4488    1.0000 </r>
       <r>    1.5952    1.0000 </r>
       <r>    2.9212    1.0000 </r>
       <r>    7.2802    0.0000 </r>
       <r>    9.4307    0.0000 </r>
       <r>   12.0281    0.0000 </r>
       <r>   13.3993    0.0000 </r>
      </set>
      <set comment="kpoint 72">
       <r>   -2.7858    1.0000 </r>
       <r>   -1.2696    1.0000 </r>
       <r>    1.3497    1.0000 </r>
       <r>    3.1599    1.0000 </r>
       <r>    7.5537    0.0000 </r>
       <r>   10.8750    0.0000 </r>
       <r>   11.6719    0.0000 </r>
       <r>   12.1166    0.0000 </r>
      </set>
      <set comment="kpoint 73">
       <r>   -2.6454    1.0000 </r>
       <r>   -1.5191    1.0000 </r>
       <r>    2.5574    1.0000 </r>
       <r>    2.6333    1.0000 </r>
       <r>    6.8069    0.0000 </r>
       <r>    7.0455    0.0000 </r>
       <r>   13.9097    0.0000 </r>
       <r>   14.9888    0.0000 </r>
      </set>
      <set comment="kpoint 74">
       <r>   -2.1885    1.0000 </r>
       <r>   -1.9288    1.0000 </r>
       <r>    1.9972    1.0000 </r>
       <r>    2.6909    1.0000 </r>
       <r>    7.0300    0.0000 </r>
       <r>    7.9995    0.0000 </r>
       <r>   13.5387    0.0000 </r>
       <r>   13.7424    0.0000 </r>
      </set>
      <set comment="kpoint 75">
       <r>   -4.2584    1.0000 </r>
       <r>    0.4025    1.0000 </r>
       <r>    2.3555    1.0000 </r>
       <r>    3.6454    1.0000 </r>
       <r>    8.3145    0.0000 </r>
       <r>    9.3887    0.0000 </r>
       <r>    9.7557    0.0000 </r>
       <r>   12.1155    0.0000 </r>
      </set>
      <set comment="kpoint 76">
       <r>   -3.6956    1.0000 </r>
       <r>   -0.3729    1.0000 </r>
       <r>    1.9804    1.0000 </r>
       <r>    3.3262    1.0000 </r>
       <r>    8.6763    0.0000 </r>
       <r>    9.3787    0.0000 </r>
       <r>   10.1132    0.0000 </r>
       <r>   12.5155    0.0000 </r>
      </set>
      <set comment="kpoint 77">
       <r>   -3.2074    1.0000 </r>
       <r>   -1.0070    1.0000 </r>
       <r>    1.8348    1.0000 </r>
       <r>    3.1342    1.0000 </r>
       <r>    8.8360    0.0000 </r>
       <r>    9.0758    0.0000 </r>
       <r>   11.3912    0.0000 </r>
       <r>   12.5846    0.0000 </r>
      </set>
      <set comment="kpoint 78">
       <r>   -3.4464    1.0000 </r>
       <r>   -0.5370    1.0000 </r>
       <r>    2.0748    1.0000 </r>
       <r>    2.8290    1.0000 </r>
       <r>    8.0932    0.0000 </r>
       <r>    8.6917    0.0000 </r>
       <r>   10.7777    0.0000 </r>
       <r>   13.6894    0.0000 </r>
      </set>
      <set comment="kpoint 79">
       <r>   -2.8956    1.0000 </r>
       <r>   -1.1274    1.0000 </r>
       <r>    1.7335    1.0000 </r>
       <r>    2.6062    1.0000 </r>
       <r>    8.4297    0.0000 </r>
       <r>    9.6252    0.0000 </r>
       <r>   10.4858    0.0000 </r>
       <r>   13.1000    0.0000 </r>
      </set>
      <set comment="kpoint 80">
       <r>   -2.7091    1.0000 </r>
       <r>   -1.3164    1.0000 </r>
       <r>    1.5252    1.0000 </r>
       <r>    2.6601    1.0000 </r>
       <r>    8.6529    0.0000 </r>
       <r>   10.0774    0.0000 </r>
       <r>   11.1418    0.0000 </r>
       <r>   11.5996    0.0000 </r>
      </set>
      <set comment="kpoint 81">
       <r>   -3.1373    1.0000 </r>
       <r>   -0.8801    1.0000 </r>
       <r>    1.5718    1.0000 </r>
       <r>    2.9277    1.0000 </r>
       <r>    8.9744    0.0000 </r>
       <r>    9.6975    0.0000 </r>
       <r>   10.3122    0.0000 </r>
       <r>   12.8703    0.0000 </r>
      </set>
      <set comment="kpoint 82">
       <r>   -2.5164    1.0000 </r>
       <r>   -1.5240    1.0000 </r>
       <r>    2.0382    1.0000 </r>
       <r>    2.2809    1.0000 </r>
       <r>    8.0637    0.0000 </r>
       <r>    8.2551    0.0000 </r>
       <r>   11.9814    0.0000 </r>
       <r>   13.3358    0.0000 </r>
      </set>
      <set comment="kpoint 83">
       <r>   -2.2436    1.0000 </r>
       <r>   -1.7499    1.0000 </r>
       <r>    1.6643    1.0000 </r>
       <r>    2.3261    1.0000 </r>
       <r>    8.3433    0.0000 </r>
       <r>    9.5130    0.0000 </r>
       <r>   11.6218    0.0000 </r>
       <r>   11.7778    0.0000 </r>
      </set>
      <set comment="kpoint 84">
       <r>   -2.3602    1.0000 </r>
       <r>   -1.5965    1.0000 </r>
       <r>    1.6840    1.0000 </r>
       <r>    2.1459    1.0000 </r>
       <r>    9.6495    0.0000 </r>
       <r>    9.6613    0.0000 </r>
       <r>   10.2964    0.0000 </r>
       <r>   11.4316    0.0000 </r>
      </set>
     </set>
    </set>
   </array>
  </eigenvalues>
  <separator name="orbital magnetization" >
   <v name="MAGDIPOLOUT">      0.00000000      0.00000000      0.00000000</v>
  </separator>
  <dos>
   <i name="efermi">      5.88422718 </i>
   <total>
    <array>
     <dimension dim="1">gridpoints</dimension>
     <dimension dim="2">spin</dimension>
     <field>energy</field>
     <field>total</field>
     <field>integrated</field>
     <set>
      <set comment="spin 1">
       <r>    -7.2706     0.0000     0.0000 </r>
       <r>    -7.1919     0.0000     0.0000 </r>
       <r>    -7.1131     0.0000     0.0000 </r>
       <r>    -7.0343     0.0000     0.0000 </r>
       <r>    -6.9556     0.0000     0.0000 </r>
       <r>    -6.8768     0.0000     0.0000 </r>
       <r>    -6.7980     0.0000     0.0000 </r>
       <r>    -6.7193     0.0000     0.0000 </r>
       <r>    -6.6405     0.0000     0.0000 </r>
       <r>    -6.5617     0.0000     0.0000 </r>
       <r>    -6.4830     0.0000     0.0000 </r>
       <r>    -6.4042     0.0000     0.0000 </r>
       <r>    -6.3255     0.0000     0.0000 </r>
       <r>    -6.2467     0.0009     0.0001 </r>
       <r>    -6.1679     0.0178     0.0015 </r>
       <r>    -6.0892     0.1074     0.0099 </r>
       <r>    -6.0104     0.0922     0.0172 </r>
       <r>    -5.9316     0.1983     0.0328 </r>
       <r>    -5.8529     0.2475     0.0523 </r>
       <r>    -5.7741     0.0843     0.0589 </r>
       <r>    -5.6953     0.3395     0.0857 </r>
       <r>    -5.6166     0.2892     0.1085 </r>
       <r>    -5.5378     0.2985     0.1320 </r>
       <r>    -5.4590     0.2658     0.1529 </r>
       <r>    -5.3803     0.1452     0.1644 </r>
       <r>    -5.3015     0.5924     0.2110 </r>
       <r>    -5.2228     0.3713     0.2403 </r>
       <r>    -5.1440     0.3602     0.2686 </r>
       <r>    -5.0652     0.3864     0.2991 </r>
       <r>    -4.9865     0.1624     0.3118 </r>
       <r>    -4.9077     0.5521     0.3553 </r>
       <r>    -4.8289     0.5610     0.3995 </r>
       <r>    -4.7502     0.6783     0.4529 </r>
       <r>    -4.6714     0.3789     0.4828 </r>
       <r>    -4.5926     0.2680     0.5039 </r>
       <r>    -4.5139     0.4987     0.5432 </r>
       <r>    -4.4351     0.5529     0.5867 </r>
       <r>    -4.3563     0.8187     0.6512 </r>
       <r>    -4.2776     0.4204     0.6843 </r>
       <r>    -4.1988     0.9408     0.7584 </r>
       <r>    -4.1201     0.6162     0.8070 </r>
       <r>    -4.0413     0.3559     0.8350 </r>
       <r>    -3.9625     0.7659     0.8953 </r>
       <r>    -3.8838     0.6597     0.9473 </r>
       <r>    -3.8050     1.4447     1.0611 </r>
       <r>    -3.7262     0.6946     1.1158 </r>
       <r>    -3.6475     1.0737     1.2004 </r>
       <r>    -3.5687     0.7082     1.2561 </r>
       <r>    -3.4899     0.2316     1.2744 </r>
       <r>    -3.4112     1.1451     1.3646 </r>
       <r>    -3.3324     0.8629     1.4325 </r>
       <r>    -3.2536     0.5160     1.4732 </r>
       <r>    -3.1749     0.6679     1.5258 </r>
       <r>    -3.0961     0.7074     1.5815 </r>
       <r>    -3.0174     0.9678     1.6577 </r>
       <r>    -2.9386     0.2428     1.6769 </r>
       <r>    -2.8598     0.6052     1.7245 </r>
       <r>    -2.7811     0.2646     1.7454 </r>
       <r>    -2.7023     0.4832     1.7834 </r>
       <r>    -2.6235     0.8602     1.8512 </r>
       <r>    -2.5448     0.5500     1.8945 </r>
       <r>    -2.4660     0.2703     1.9158 </r>
       <r>    -2.3872     0.1574     1.9282 </r>
       <r>    -2.3085     0.2077     1.9446 </r>
       <r>    -2.2297     0.2271     1.9624 </r>
       <r>    -2.1510     0.3659     1.9913 </r>
       <r>    -2.0722     0.1751     2.0051 </r>
       <r>    -1.9934     0.0819     2.0115 </r>
       <r>    -1.9147     0.1745     2.0252 </r>
       <r>    -1.8359     0.0964     2.0328 </r>
       <r>    -1.7571     0.1154     2.0419 </r>
       <r>    -1.6784     0.1692     2.0553 </r>
       <r>    -1.5996     0.2414     2.0743 </r>
       <r>    -1.5208     0.5831     2.1202 </r>
       <r>    -1.4421     0.7858     2.1821 </r>
       <r>    -1.3633     0.3019     2.2059 </r>
       <r>    -1.2845     0.5082     2.2459 </r>
       <r>    -1.2058     0.5966     2.2929 </r>
       <r>    -1.1270     1.1327     2.3821 </r>
       <r>    -1.0483     1.5937     2.5076 </r>
       <r>    -0.9695     1.5494     2.6297 </r>
       <r>    -0.8907     1.0514     2.7125 </r>
       <r>    -0.8120     1.1522     2.8032 </r>
       <r>    -0.7332     0.7205     2.8600 </r>
       <r>    -0.6544     0.5888     2.9064 </r>
       <r>    -0.5757     0.5043     2.9461 </r>
       <r>    -0.4969     0.6950     3.0008 </r>
       <r>    -0.4181     0.3157     3.0257 </r>
       <r>    -0.3394     0.8773     3.0948 </r>
       <r>    -0.2606     1.0504     3.1775 </r>
       <r>    -0.1818     0.3503     3.2051 </r>
       <r>    -0.1031     0.1382     3.2160 </r>
       <r>    -0.0243     0.1201     3.2254 </r>
       <r>     0.0544     0.8813     3.2949 </r>
       <r>     0.1332     0.6395     3.3452 </r>
       <r>     0.2120     0.0263     3.3473 </r>
       <r>     0.2907     0.0294     3.3496 </r>
       <r>     0.3695     0.6716     3.4025 </r>
       <r>     0.4483     0.9012     3.4735 </r>
       <r>     0.5270     0.1076     3.4820 </r>
       <r>     0.6058     0.2191     3.4992 </r>
       <r>     0.6846     0.1503     3.5111 </r>
       <r>     0.7633     0.1899     3.5260 </r>
       <r>     0.8421     0.4531     3.5617 </r>
       <r>     0.9209     0.2384     3.5805 </r>
       <r>     0.9996     0.0717     3.5861 </r>
       <r>     1.0784     0.4025     3.6178 </r>
       <r>     1.1571     0.3544     3.6457 </r>
       <r>     1.2359     0.3645     3.6745 </r>
       <r>     1.3147     0.2242     3.6921 </r>
       <r>     1.3934     0.4751     3.7295 </r>
       <r>     1.4722     0.3649     3.7583 </r>
       <r>     1.5510     0.8930     3.8286 </r>
       <r>     1.6297     1.7159     3.9638 </r>
       <r>     1.7085     1.2341     4.0610 </r>
       <r>     1.7873     1.1072     4.1482 </r>
       <r>     1.8660     0.6811     4.2018 </r>
       <r>     1.9448     0.6526     4.2532 </r>
       <r>     2.0236     1.6171     4.3806 </r>
       <r>     2.1023     1.5517     4.5028 </r>
       <r>     2.1811     0.9246     4.5756 </r>
       <r>     2.2598     0.5444     4.6185 </r>
       <r>     2.3386     1.4041     4.7291 </r>
       <r>     2.4174     0.9160     4.8013 </r>
       <r>     2.4961     1.1990     4.8957 </r>
       <r>     2.5749     1.1867     4.9892 </r>
       <r>     2.6537     1.2375     5.0866 </r>
       <r>     2.7324     1.3138     5.1901 </r>
       <r>     2.8112     1.0084     5.2695 </r>
       <r>     2.8900     1.5358     5.3905 </r>
       <r>     2.9687     1.7426     5.5278 </r>
       <r>     3.0475     1.6857     5.6605 </r>
       <r>     3.1262     0.9295     5.7337 </r>
       <r>     3.2050     2.0256     5.8933 </r>
       <r>     3.2838     2.1272     6.0608 </r>
       <r>     3.3625     1.0562     6.1440 </r>
       <r>     3.4413     0.7343     6.2019 </r>
       <r>     3.5201     1.6967     6.3355 </r>
       <r>     3.5988     1.2345     6.4327 </r>
       <r>     3.6776     1.3485     6.5390 </r>
       <r>     3.7564     1.4340     6.6519 </r>
       <r>     3.8351     0.6506     6.7031 </r>
       <r>     3.9139     1.9075     6.8534 </r>
       <r>     3.9927     1.5849     6.9782 </r>
       <r>     4.0714     0.8532     7.0454 </r>
       <r>     4.1502     0.8746     7.1143 </r>
       <r>     4.2289     1.6652     7.2455 </r>
       <r>     4.3077     1.7065     7.3799 </r>
       <r>     4.3865     0.5577     7.4238 </r>
       <r>     4.4652     0.7919     7.4862 </r>
       <r>     4.5440     1.4317     7.5989 </r>
       <r>     4.6228     0.6344     7.6489 </r>
       <r>     4.7015     0.3078     7.6732 </r>
       <r>     4.7803     0.5784     7.7187 </r>
       <r>     4.8591     0.7787     7.7801 </r>
       <r>     4.9378     0.5597     7.8241 </r>
       <r>     5.0166     0.4973     7.8633 </r>
       <r>     5.0954     0.4474     7.8985 </r>
       <r>     5.1741     0.2847     7.9210 </r>
       <r>     5.2529     0.2454     7.9403 </r>
       <r>     5.3316     0.2794     7.9623 </r>
       <r>     5.4104     0.1191     7.9717 </r>
       <r>     5.4892     0.0885     7.9787 </r>
       <r>     5.5679     0.2169     7.9957 </r>
       <r>     5.6467     0.0451     7.9993 </r>
       <r>     5.7255     0.0089     8.0000 </r>
       <r>     5.8042     0.0001     8.0000 </r>
       <r>     5.8830     0.0000     8.0000 </r>
       <r>     5.9618     0.0000     8.0000 </r>
       <r>     6.0405     0.0000     8.0000 </r>
       <r>     6.1193     0.0000     8.0000 </r>
       <r>     6.1981     0.0043     8.0003 </r>
       <r>     6.2768     0.0828     8.0069 </r>
       <r>     6.3556     0.0578     8.0114 </r>
       <r>     6.4343     0.2177     8.0286 </r>
       <r>     6.5131     0.2633     8.0493 </r>
       <r>     6.5919     0.3405     8.0761 </r>
       <r>     6.6706     0.2748     8.0978 </r>
       <r>     6.7494     0.0826     8.1043 </r>
       <r>     6.8282     0.7039     8.1597 </r>
       <r>     6.9069     0.5538     8.2033 </r>
       <r>     6.9857     0.4256     8.2369 </r>
       <r>     7.0645     0.7143     8.2931 </r>
       <r>     7.1432     1.1842     8.3864 </r>
       <r>     7.2220     0.6025     8.4338 </r>
       <r>     7.3008     0.6589     8.4857 </r>
       <r>     7.3795     0.8041     8.5491 </r>
       <r>     7.4583     0.8272     8.6142 </r>
       <r>     7.5370     1.0169     8.6943 </r>
       <r>     7.6158     1.2273     8.7910 </r>
       <r>     7.6946     1.2840     8.8921 </r>
       <r>     7.7733     1.5415     9.0135 </r>
       <r>     7.8521     0.7064     9.0692 </r>
       <r>     7.9309     1.5173     9.1887 </r>
       <r>     8.0096     2.0089     9.3469 </r>
       <r>     8.0884     1.5192     9.4666 </r>
       <r>     8.1672     1.7813     9.6069 </r>
       <r>     8.2459     1.6227     9.7347 </r>
       <r>     8.3247     1.4955     9.8525 </r>
       <r>     8.4035     1.4933     9.9701 </r>
       <r>     8.4822     0.8334    10.0357 </r>
       <r>     8.5610     0.2326    10.0541 </r>
       <r>     8.6397     0.8516    10.1211 </r>
       <r>     8.7185     2.6604    10.3307 </r>
       <r>     8.7973     1.2592    10.4299 </r>
       <r>     8.8760     1.2363    10.5272 </r>
       <r>     8.9548     1.6051    10.6537 </r>
       <r>     9.0336     2.2382    10.8300 </r>
       <r>     9.1123     2.1084    10.9960 </r>
       <r>     9.1911     1.4099    11.1071 </r>
       <r>     9.2699     0.8908    11.1772 </r>
       <r>     9.3486     1.4052    11.2879 </r>
       <r>     9.4274     1.9012    11.4377 </r>
       <r>     9.5061     2.0255    11.5972 </r>
       <r>     9.5849     1.9507    11.7508 </r>
       <r>     9.6637     2.0515    11.9124 </r>
       <r>     9.7424     1.6611    12.0433 </r>
       <r>     9.8212     0.8326    12.1088 </r>
       <r>     9.9000     0.6185    12.1576 </r>
       <r>     9.9787     1.2313    12.2545 </r>
       <r>    10.0575     1.5113    12.3736 </r>
       <r>    10.1363     1.7393    12.5106 </r>
       <r>    10.2150     1.1077    12.5978 </r>
       <r>    10.2938     1.4468    12.7118 </r>
       <r>    10.3726     1.0767    12.7966 </r>
       <r>    10.4513     0.6429    12.8472 </r>
       <r>    10.5301     1.3730    12.9554 </r>
       <r>    10.6088     1.2046    13.0502 </r>
       <r>    10.6876     0.8534    13.1175 </r>
       <r>    10.7664     0.9275    13.1905 </r>
       <r>    10.8451     0.9957    13.2689 </r>
       <r>    10.9239     1.0096    13.3485 </r>
       <r>    11.0027     1.1082    13.4357 </r>
       <r>    11.0814     2.0714    13.5989 </r>
       <r>    11.1602     2.0044    13.7568 </r>
       <r>    11.2390     1.4513    13.8711 </r>
       <r>    11.3177     1.3681    13.9788 </r>
       <r>    11.3965     0.8423    14.0452 </r>
       <r>    11.4753     1.3202    14.1492 </r>
       <r>    11.5540     1.0108    14.2288 </r>
       <r>    11.6328     0.8650    14.2969 </r>
       <r>    11.7115     0.5778    14.3424 </r>
       <r>    11.7903     0.5872    14.3887 </r>
       <r>    11.8691     0.8498    14.4556 </r>
       <r>    11.9478     0.7086    14.5114 </r>
       <r>    12.0266     0.9759    14.5883 </r>
       <r>    12.1054     0.9066    14.6597 </r>
       <r>    12.1841     0.3615    14.6882 </r>
       <r>    12.2629     0.3397    14.7149 </r>
       <r>    12.3417     1.6568    14.8454 </r>
       <r>    12.4204     0.9194    14.9178 </r>
       <r>    12.4992     0.9780    14.9949 </r>
       <r>    12.5780     1.2588    15.0940 </r>
       <r>    12.6567     1.6286    15.2223 </r>
       <r>    12.7355     0.7570    15.2819 </r>
       <r>    12.8142     0.5310    15.3237 </r>
       <r>    12.8930     0.5871    15.3700 </r>
       <r>    12.9718     0.3539    15.3979 </r>
       <r>    13.0505     0.1955    15.4133 </r>
       <r>    13.1293     0.4068    15.4453 </r>
       <r>    13.2081     0.4115    15.4777 </r>
       <r>    13.2868     0.6870    15.5318 </r>
       <r>    13.3656     0.4556    15.5677 </r>
       <r>    13.4444     0.5803    15.6134 </r>
       <r>    13.5231     0.4131    15.6459 </r>
       <r>    13.6019     0.5077    15.6859 </r>
       <r>    13.6807     0.3854    15.7163 </r>
       <r>    13.7594     0.6507    15.7675 </r>
       <r>    13.8382     0.4285    15.8013 </r>
       <r>    13.9169     0.3244    15.8269 </r>
       <r>    13.9957     0.2875    15.8495 </r>
       <r>    14.0745     0.8151    15.9137 </r>
       <r>    14.1532     0.3964    15.9449 </r>
       <r>    14.2320     0.0058    15.9454 </r>
       <r>    14.3108     0.0000    15.9454 </r>
       <r>    14.3895     0.0000    15.9454 </r>
       <r>    14.4683     0.0000    15.9454 </r>
       <r>    14.5471     0.0000    15.9454 </r>
       <r>    14.6258     0.0000    15.9454 </r>
       <r>    14.7046     0.0000    15.9454 </r>
       <r>    14.7834     0.0000    15.9454 </r>
       <r>    14.8621     0.0000    15.9454 </r>
       <r>    14.9409     0.0243    15.9473 </r>
       <r>    15.0196     0.2012    15.9631 </r>
       <r>    15.0984     0.1246    15.9730 </r>
       <r>    15.1772     0.1751    15.9868 </r>
       <r>    15.2559     0.0583    15.9913 </r>
       <r>    15.3347     0.0990    15.9991 </r>
       <r>    15.4135     0.0108    16.0000 </r>
       <r>    15.4922     0.0000    16.0000 </r>
       <r>    15.5710     0.0000    16.0000 </r>
       <r>    15.6498     0.0000    16.0000 </r>
       <r>    15.7285     0.0000    16.0000 </r>
       <r>    15.8073     0.0000    16.0000 </r>
       <r>    15.8860     0.0000    16.0000 </r>
       <r>    15.9648     0.0000    16.0000 </r>
       <r>    16.0436     0.0000    16.0000 </r>
       <r>    16.1223     0.0000    16.0000 </r>
       <r>    16.2011     0.0000    16.0000 </r>
       <r>    16.2799     0.0000    16.0000 </r>
       <r>    16.3586     0.0000    16.0000 </r>
      </set>
     </set>
    </array>
   </total>
  </dos>
 </calculation>
 <structure name="finalpos" >
  <crystal>
   <varray name="basis" >
    <v>       3.34812904      -0.00000000       1.93304293 </v>
    <v>       1.11604301       3.15664758       1.93304293 </v>
    <v>       0.00000000       0.00000000       3.86608586 </v>
   </varray>
   <i name="volume">     40.86013346 </i>
   <varray name="rec_basis" >
    <v>       0.29867427      -0.10559726      -0.00000000 </v>
    <v>       0.00000000       0.31679178      -0.00000000 </v>
    <v>      -0.14933714      -0.10559726       0.25865954 </v>
   </varray>
  </crystal>
  <varray name="positions" >
   <v>       0.87500000       0.87500000       0.87500000 </v>
   <v>       0.12500000       0.12500000       0.12500000 </v>
  </varray>
 </structure>
</modeling>
