   2   2   0   0
  0.2016476E+02  0.3849278E-09  0.3849279E-09  0.3849278E-09  0.5000000E-15
  1.000000000000000E-004
  CAR 
 unknown system                          
     16.41506420     -7.27504657  301      5.83594911      1.00000000
     -7.275  0.0000E+00  0.0000E+00
     -7.196  0.0000E+00  0.0000E+00
     -7.117  0.0000E+00  0.0000E+00
     -7.038  0.0000E+00  0.0000E+00
     -6.959  0.0000E+00  0.0000E+00
     -6.880  0.0000E+00  0.0000E+00
     -6.801  0.0000E+00  0.0000E+00
     -6.722  0.0000E+00  0.0000E+00
     -6.643  0.0000E+00  0.0000E+00
     -6.564  0.0000E+00  0.0000E+00
     -6.485  0.1666E-19  0.1316E-20
     -6.406  0.1463E-12  0.1156E-13
     -6.327  0.9696E-08  0.7657E-09
     -6.248  0.6600E-05  0.5220E-06
     -6.170  0.2190E-03  0.1781E-04
     -6.091  0.8657E-03  0.8617E-04
     -6.012  0.1325E-02  0.1908E-03
     -5.933  0.1892E-02  0.3402E-03
     -5.854  0.1402E-02  0.4509E-03
     -5.775  0.2885E-02  0.6787E-03
     -5.696  0.2504E-02  0.8765E-03
     -5.617  0.1835E-02  0.1021E-02
     -5.538  0.3218E-02  0.1275E-02
     -5.459  0.3828E-02  0.1578E-02
     -5.380  0.3162E-02  0.1827E-02
     -5.301  0.2231E-02  0.2004E-02
     -5.222  0.3806E-02  0.2304E-02
     -5.143  0.4794E-02  0.2683E-02
     -5.064  0.5077E-02  0.3084E-02
     -4.985  0.1992E-02  0.3241E-02
     -4.906  0.4240E-02  0.3576E-02
     -4.827  0.5265E-02  0.3991E-02
     -4.748  0.4445E-02  0.4342E-02
     -4.669  0.6117E-02  0.4826E-02
     -4.590  0.5567E-02  0.5265E-02
     -4.511  0.2877E-02  0.5492E-02
     -4.432  0.5367E-02  0.5916E-02
     -4.353  0.6391E-02  0.6421E-02
     -4.274  0.6769E-02  0.6955E-02
     -4.195  0.7769E-02  0.7569E-02
     -4.116  0.6324E-02  0.8068E-02
     -4.037  0.4537E-02  0.8426E-02
     -3.958  0.6072E-02  0.8906E-02
     -3.879  0.1049E-01  0.9734E-02
     -3.800  0.1201E-01  0.1068E-01
     -3.722  0.9576E-02  0.1144E-01
     -3.643  0.4310E-02  0.1178E-01
     -3.564  0.6973E-02  0.1233E-01
     -3.485  0.9274E-02  0.1306E-01
     -3.406  0.8633E-02  0.1374E-01
     -3.327  0.7585E-02  0.1434E-01
     -3.248  0.9283E-02  0.1508E-01
     -3.169  0.2866E-02  0.1530E-01
     -3.090  0.5571E-02  0.1574E-01
     -3.011  0.5917E-02  0.1621E-01
     -2.932  0.1068E-01  0.1705E-01
     -2.853  0.4808E-02  0.1743E-01
     -2.774  0.3284E-02  0.1769E-01
     -2.695  0.2881E-02  0.1792E-01
     -2.616  0.4097E-02  0.1824E-01
     -2.537  0.9187E-02  0.1897E-01
     -2.458  0.3748E-02  0.1926E-01
     -2.379  0.1231E-02  0.1936E-01
     -2.300  0.1893E-02  0.1951E-01
     -2.221  0.1989E-02  0.1967E-01
     -2.142  0.3363E-02  0.1993E-01
     -2.063  0.1526E-02  0.2005E-01
     -1.984  0.1047E-02  0.2014E-01
     -1.905  0.9999E-03  0.2022E-01
     -1.826  0.1180E-02  0.2031E-01
     -1.747  0.1329E-02  0.2041E-01
     -1.668  0.1957E-02  0.2057E-01
     -1.589  0.5103E-02  0.2097E-01
     -1.510  0.6040E-02  0.2145E-01
     -1.431  0.4550E-02  0.2181E-01
     -1.353  0.3029E-02  0.2205E-01
     -1.274  0.3190E-02  0.2230E-01
     -1.195  0.7023E-02  0.2285E-01
     -1.116  0.1886E-01  0.2434E-01
     -1.037  0.1676E-01  0.2567E-01
     -0.958  0.1130E-01  0.2656E-01
     -0.879  0.8047E-02  0.2719E-01
     -0.800  0.6924E-02  0.2774E-01
     -0.721  0.1072E-01  0.2859E-01
     -0.642  0.9406E-02  0.2933E-01
     -0.563  0.3902E-02  0.2964E-01
     -0.484  0.6297E-02  0.3014E-01
     -0.405  0.8544E-02  0.3081E-01
     -0.326  0.2945E-02  0.3104E-01
     -0.247  0.3245E-02  0.3130E-01
     -0.168  0.9034E-02  0.3201E-01
     -0.089  0.4462E-02  0.3237E-01
     -0.010  0.3032E-02  0.3260E-01
      0.069  0.5578E-02  0.3305E-01
      0.148  0.4102E-02  0.3337E-01
      0.227  0.1563E-02  0.3349E-01
      0.306  0.2962E-02  0.3373E-01
      0.385  0.7112E-02  0.3429E-01
      0.464  0.4483E-02  0.3464E-01
      0.543  0.2340E-02  0.3483E-01
      0.622  0.6810E-03  0.3488E-01
      0.701  0.2801E-02  0.3510E-01
      0.780  0.5482E-02  0.3554E-01
      0.859  0.2599E-02  0.3574E-01
      0.938  0.1687E-03  0.3575E-01
      1.016  0.1925E-02  0.3591E-01
      1.095  0.6097E-02  0.3639E-01
      1.174  0.3093E-02  0.3663E-01
      1.253  0.9067E-03  0.3670E-01
      1.332  0.2052E-02  0.3686E-01
      1.411  0.4874E-02  0.3725E-01
      1.490  0.9654E-02  0.3801E-01
      1.569  0.7218E-02  0.3858E-01
      1.648  0.1385E-01  0.3968E-01
      1.727  0.1281E-01  0.4069E-01
      1.806  0.1194E-01  0.4163E-01
      1.885  0.1402E-01  0.4274E-01
      1.964  0.8352E-02  0.4340E-01
      2.043  0.6717E-02  0.4393E-01
      2.122  0.7909E-02  0.4455E-01
      2.201  0.1692E-01  0.4589E-01
      2.280  0.1340E-01  0.4695E-01
      2.359  0.7156E-02  0.4751E-01
      2.438  0.8305E-02  0.4817E-01
      2.517  0.9060E-02  0.4888E-01
      2.596  0.1377E-01  0.4997E-01
      2.675  0.1756E-01  0.5136E-01
      2.754  0.1389E-01  0.5245E-01
      2.833  0.1073E-01  0.5330E-01
      2.912  0.1567E-01  0.5454E-01
      2.991  0.1525E-01  0.5574E-01
      3.070  0.1402E-01  0.5685E-01
      3.149  0.1820E-01  0.5829E-01
      3.228  0.1163E-01  0.5921E-01
      3.307  0.8918E-02  0.5991E-01
      3.386  0.1498E-01  0.6109E-01
      3.464  0.2407E-01  0.6299E-01
      3.543  0.1377E-01  0.6408E-01
      3.622  0.1298E-01  0.6511E-01
      3.701  0.9468E-02  0.6585E-01
      3.780  0.1028E-01  0.6667E-01
      3.859  0.1383E-01  0.6776E-01
      3.938  0.1255E-01  0.6875E-01
      4.017  0.1428E-01  0.6988E-01
      4.096  0.1368E-01  0.7096E-01
      4.175  0.8810E-02  0.7165E-01
      4.254  0.1377E-01  0.7274E-01
      4.333  0.1415E-01  0.7386E-01
      4.412  0.6018E-02  0.7433E-01
      4.491  0.1364E-01  0.7541E-01
      4.570  0.1106E-01  0.7628E-01
      4.649  0.4435E-02  0.7663E-01
      4.728  0.5859E-02  0.7710E-01
      4.807  0.7461E-02  0.7768E-01
      4.886  0.3478E-02  0.7796E-01
      4.965  0.2981E-02  0.7819E-01
      5.044  0.6167E-02  0.7868E-01
      5.123  0.4583E-02  0.7904E-01
      5.202  0.3406E-02  0.7931E-01
      5.281  0.2288E-02  0.7949E-01
      5.360  0.2345E-02  0.7968E-01
      5.439  0.1587E-02  0.7980E-01
      5.518  0.8624E-03  0.7987E-01
      5.597  0.1367E-02  0.7998E-01
      5.676  0.2408E-03  0.8000E-01
      5.755  0.1142E-04  0.8000E-01
      5.833  0.1198E-07  0.8000E-01
      5.912  0.1128E-12  0.8000E-01
      5.991  0.1188E-14  0.8000E-01
      6.070  0.6984E-09  0.8000E-01
      6.149  0.3472E-05  0.8000E-01
      6.228  0.2277E-03  0.8002E-01
      6.307  0.6077E-03  0.8007E-01
      6.386  0.1420E-02  0.8018E-01
      6.465  0.2459E-02  0.8037E-01
      6.544  0.2686E-02  0.8058E-01
      6.623  0.1343E-02  0.8069E-01
      6.702  0.5612E-02  0.8113E-01
      6.781  0.4583E-02  0.8150E-01
      6.860  0.3283E-02  0.8176E-01
      6.939  0.7647E-02  0.8236E-01
      7.018  0.5679E-02  0.8281E-01
      7.097  0.8603E-02  0.8349E-01
      7.176  0.6350E-02  0.8399E-01
      7.255  0.4950E-02  0.8438E-01
      7.334  0.7538E-02  0.8497E-01
      7.413  0.8031E-02  0.8561E-01
      7.492  0.8996E-02  0.8632E-01
      7.571  0.1425E-01  0.8744E-01
      7.650  0.1162E-01  0.8836E-01
      7.729  0.1141E-01  0.8926E-01
      7.808  0.1501E-01  0.9045E-01
      7.887  0.1355E-01  0.9152E-01
      7.966  0.2403E-01  0.9342E-01
      8.045  0.1633E-01  0.9471E-01
      8.124  0.1198E-01  0.9565E-01
      8.202  0.1754E-01  0.9704E-01
      8.281  0.1627E-01  0.9832E-01
      8.360  0.6778E-02  0.9886E-01
      8.439  0.7423E-02  0.9944E-01
      8.518  0.1273E-01  0.1004E+00
      8.597  0.9355E-02  0.1012E+00
      8.676  0.9469E-02  0.1019E+00
      8.755  0.7473E-02  0.1025E+00
      8.834  0.1656E-01  0.1038E+00
      8.913  0.2709E-01  0.1060E+00
      8.992  0.2198E-01  0.1077E+00
      9.071  0.2044E-01  0.1093E+00
      9.150  0.2034E-01  0.1109E+00
      9.229  0.1605E-01  0.1122E+00
      9.308  0.1582E-01  0.1134E+00
      9.387  0.1636E-01  0.1147E+00
      9.466  0.2002E-01  0.1163E+00
      9.545  0.1437E-01  0.1175E+00
      9.624  0.1080E-01  0.1183E+00
      9.703  0.1223E-01  0.1193E+00
      9.782  0.1076E-01  0.1201E+00
      9.861  0.1042E-01  0.1209E+00
      9.940  0.1387E-01  0.1220E+00
     10.019  0.9358E-02  0.1228E+00
     10.098  0.1274E-01  0.1238E+00
     10.177  0.1761E-01  0.1252E+00
     10.256  0.1761E-01  0.1266E+00
     10.335  0.7125E-02  0.1271E+00
     10.414  0.6229E-02  0.1276E+00
     10.493  0.1299E-01  0.1286E+00
     10.572  0.2255E-01  0.1304E+00
     10.650  0.1209E-01  0.1314E+00
     10.729  0.1599E-01  0.1326E+00
     10.808  0.1827E-01  0.1341E+00
     10.887  0.9626E-02  0.1348E+00
     10.966  0.1222E-01  0.1358E+00
     11.045  0.1006E-01  0.1366E+00
     11.124  0.5514E-02  0.1370E+00
     11.203  0.7742E-02  0.1377E+00
     11.282  0.7578E-02  0.1382E+00
     11.361  0.8282E-02  0.1389E+00
     11.440  0.7720E-02  0.1395E+00
     11.519  0.7841E-02  0.1401E+00
     11.598  0.1456E-01  0.1413E+00
     11.677  0.1408E-01  0.1424E+00
     11.756  0.1399E-01  0.1435E+00
     11.835  0.1769E-01  0.1449E+00
     11.914  0.1382E-01  0.1460E+00
     11.993  0.1138E-01  0.1469E+00
     12.072  0.9353E-02  0.1476E+00
     12.151  0.6927E-02  0.1482E+00
     12.230  0.5175E-02  0.1486E+00
     12.309  0.4515E-02  0.1489E+00
     12.388  0.1053E-01  0.1498E+00
     12.467  0.3726E-02  0.1501E+00
     12.546  0.5080E-02  0.1505E+00
     12.625  0.7163E-02  0.1510E+00
     12.704  0.6092E-02  0.1515E+00
     12.783  0.5856E-02  0.1520E+00
     12.862  0.6324E-02  0.1525E+00
     12.941  0.9016E-02  0.1532E+00
     13.019  0.5570E-02  0.1536E+00
     13.098  0.1501E-01  0.1548E+00
     13.177  0.9414E-02  0.1556E+00
     13.256  0.2882E-02  0.1558E+00
     13.335  0.4437E-02  0.1561E+00
     13.414  0.3585E-02  0.1564E+00
     13.493  0.5318E-02  0.1568E+00
     13.572  0.5367E-02  0.1573E+00
     13.651  0.1306E-02  0.1574E+00
     13.730  0.1776E-02  0.1575E+00
     13.809  0.4652E-02  0.1579E+00
     13.888  0.1213E-02  0.1580E+00
     13.967  0.1978E-02  0.1581E+00
     14.046  0.3467E-02  0.1584E+00
     14.125  0.2351E-02  0.1586E+00
     14.204  0.2683E-02  0.1588E+00
     14.283  0.3256E-02  0.1590E+00
     14.362  0.6534E-02  0.1596E+00
     14.441  0.1013E-02  0.1596E+00
     14.520  0.4085E-05  0.1596E+00
     14.599  0.2381E-09  0.1596E+00
     14.678  0.1308E-15  0.1596E+00
     14.757  0.0000E+00  0.1596E+00
     14.836  0.3685E-14  0.1596E+00
     14.915  0.2338E-08  0.1596E+00
     14.994  0.1227E-04  0.1596E+00
     15.073  0.7224E-03  0.1597E+00
     15.152  0.1162E-02  0.1598E+00
     15.231  0.1253E-02  0.1599E+00
     15.310  0.6345E-03  0.1599E+00
     15.388  0.6477E-03  0.1600E+00
     15.467  0.6977E-04  0.1600E+00
     15.546  0.1159E-06  0.1600E+00
     15.625  0.1756E-11  0.1600E+00
     15.704  0.2000E-18  0.1600E+00
     15.783  0.0000E+00  0.1600E+00
     15.862  0.0000E+00  0.1600E+00
     15.941  0.0000E+00  0.1600E+00
     16.020  0.0000E+00  0.1600E+00
     16.099  0.0000E+00  0.1600E+00
     16.178  0.0000E+00  0.1600E+00
     16.257  0.0000E+00  0.1600E+00
     16.336  0.0000E+00  0.1600E+00
     16.415  0.0000E+00  0.1600E+00
