    2    2  100    1
  0.2016476E+02  0.3849278E-09  0.3849279E-09  0.3849278E-09  0.5000000E-15
  1.000000000000000E-004
  CAR 
 unknown system                          
      8    120      8
 
  0.0000000E+00  0.0000000E+00  0.0000000E+00  0.2962963E-03
    1       -6.198223   1.000000
    2        5.617493   1.000000
    3        5.617493   1.000000
    4        5.617496   1.000000
    5        8.174565   0.000000
    6        8.174572   0.000000
    7        8.174574   0.000000
    8        8.753325   0.000000
 
  0.6666667E-01 -0.3469447E-17  0.0000000E+00  0.2370370E-02
    1       -6.140980   1.000000
    2        5.024499   1.000000
    3        5.524429   1.000000
    4        5.524431   1.000000
    5        8.210117   0.000000
    6        8.311403   0.000000
    7        8.311410   0.000000
    8        9.213901   0.000000
 
  0.1333333E+00 -0.6938894E-17  0.0000000E+00  0.2370370E-02
    1       -5.970308   1.000000
    2        3.873701   1.000000
    3        5.304037   1.000000
    4        5.304040   1.000000
    5        8.031623   0.000000
    6        8.634724   0.000000
    7        8.634731   0.000000
    8       10.299028   0.000000
 
  0.2000000E+00  0.0000000E+00  0.0000000E+00  0.2370370E-02
    1       -5.690161   1.000000
    2        2.635489   1.000000
    3        5.049894   1.000000
    4        5.049896   1.000000
    5        7.770751   0.000000
    6        8.962249   0.000000
    7        8.962257   0.000000
    8       11.497480   0.000000
 
  0.2666667E+00 -0.1387779E-16  0.0000000E+00  0.2370370E-02
    1       -5.309429   1.000000
    2        1.439731   1.000000
    3        4.818364   1.000000
    4        4.818366   1.000000
    5        7.517702   0.000000
    6        9.130874   0.000000
    7        9.130882   0.000000
    8       12.643067   0.000000
 
  0.3333333E+00 -0.1387779E-16  0.0000000E+00  0.2370370E-02
    1       -4.847981   1.000000
    2        0.347690   1.000000
    3        4.634938   1.000000
    4        4.634941   1.000000
    5        7.310846   0.000000
    6        9.121104   0.000000
    7        9.121113   0.000000
    8       13.402211   0.000000
 
  0.4000000E+00 -0.2775558E-16  0.0000000E+00  0.2370370E-02
    1       -4.356863   1.000000
    2       -0.571151   1.000000
    3        4.509889   1.000000
    4        4.509892   1.000000
    5        7.167204   0.000000
    6        9.038240   0.000000
    7        9.038249   0.000000
    8       13.423378   0.000000
 
  0.4666667E+00 -0.2775558E-16  0.0000000E+00  0.2370370E-02
    1       -3.979089   1.000000
    2       -1.164758   1.000000
    3        4.446872   1.000000
    4        4.446875   1.000000
    5        7.094083   0.000000
    6        8.975786   0.000000
    7        8.975794   0.000000
    8       13.333755   0.000000
 
  0.6666667E-01  0.6666667E-01  0.0000000E+00  0.1777778E-02
    1       -6.121833   1.000000
    2        5.133703   1.000000
    3        5.331391   1.000000
    4        5.331392   1.000000
    5        7.995986   0.000000
    6        8.554696   0.000000
    7        8.554701   0.000000
    8        9.214248   0.000000
 
  0.1333333E+00  0.6666667E-01  0.0000000E+00  0.7111111E-02
    1       -5.988757   1.000000
    2        4.210165   1.000000
    3        5.058565   1.000000
    4        5.224110   1.000000
    5        7.993402   0.000000
    6        8.618917   0.000000
    7        8.948970   0.000000
    8       10.007064   0.000000
 
  0.2000000E+00  0.6666667E-01  0.0000000E+00  0.7111111E-02
    1       -5.744625   1.000000
    2        3.023950   1.000000
    3        4.788110   1.000000
    4        5.008795   1.000000
    5        8.069911   0.000000
    6        8.616555   0.000000
    7        9.332545   0.000000
    8       10.886255   0.000000
 
  0.2666667E+00  0.6666667E-01  0.0000000E+00  0.7111111E-02
    1       -5.396224   1.000000
    2        1.829767   1.000000
    3        4.563543   1.000000
    4        4.738474   1.000000
    5        7.926644   0.000000
    6        8.804829   0.000000
    7        9.544865   0.000000
    8       11.371979   0.000000
 
  0.3333333E+00  0.6666667E-01  0.0000000E+00  0.7111111E-02
    1       -4.958462   1.000000
    2        0.710220   1.000000
    3        4.404359   1.000000
    4        4.479062   1.000000
    5        7.733694   0.000000
    6        8.899194   0.000000
    7        9.535213   0.000000
    8       11.937549   0.000000
 
  0.4000000E+00  0.6666667E-01  0.0000000E+00  0.7111111E-02
    1       -4.467835   1.000000
    2       -0.269762   1.000000
    3        4.260982   1.000000
    4        4.317915   1.000000
    5        7.578509   0.000000
    6        8.887588   0.000000
    7        9.400308   0.000000
    8       12.738572   0.000000
 
  0.4666667E+00  0.6666667E-01  0.0000000E+00  0.7111111E-02
    1       -4.025997   1.000000
    2       -0.994903   1.000000
    3        4.098814   1.000000
    4        4.305133   1.000000
    5        7.484519   0.000000
    6        8.876574   0.000000
    7        9.251119   0.000000
    8       13.382525   0.000000
 
 -0.4666667E+00  0.6666667E-01  0.0000000E+00  0.7111111E-02
    1       -3.875118   1.000000
    2       -1.216751   1.000000
    3        4.001103   1.000000
    4        4.363205   1.000000
    5        7.459686   0.000000
    6        8.925044   0.000000
    7        9.147953   0.000000
    8       13.521978   0.000000
 
 -0.4000000E+00  0.6666667E-01  0.0000000E+00  0.7111111E-02
    1       -4.156736   1.000000
    2       -0.792455   1.000000
    3        3.974031   1.000000
    4        4.486808   1.000000
    5        7.505831   0.000000
    6        9.043448   0.000000
    7        9.107023   0.000000
    8       13.492694   0.000000
 
 -0.3333333E+00  0.6666667E-01  0.0000000E+00  0.7111111E-02
    1       -4.633868   1.000000
    2        0.037972   1.000000
    3        4.022276   1.000000
    4        4.668298   1.000000
    5        7.621122   0.000000
    6        9.103966   0.000000
    7        9.201909   0.000000
    8       13.083477   0.000000
 
 -0.2666667E+00  0.6666667E-01  0.0000000E+00  0.7111111E-02
    1       -5.113341   1.000000
    2        1.072559   1.000000
    3        4.148827   1.000000
    4        4.896222   1.000000
    5        7.799293   0.000000
    6        9.063567   0.000000
    7        9.315040   0.000000
    8       12.327707   0.000000
 
 -0.2000000E+00  0.6666667E-01  0.0000000E+00  0.7111111E-02
    1       -5.523726   1.000000
    2        2.220284   1.000000
    3        4.354573   1.000000
    4        5.150527   1.000000
    5        8.025673   0.000000
    6        8.885563   0.000000
    7        9.234890   0.000000
    8       11.591046   0.000000
 
 -0.1333333E+00  0.6666667E-01  0.0000000E+00  0.7111111E-02
    1       -5.838351   1.000000
    2        3.407020   1.000000
    3        4.641007   1.000000
    4        5.391534   1.000000
    5        8.266320   0.000000
    6        8.583256   0.000000
    7        8.889004   0.000000
    8       10.776800   0.000000
 
 -0.6666667E-01  0.6666667E-01  0.0000000E+00  0.3555556E-02
    1       -6.045823   1.000000
    2        4.461971   1.000000
    3        5.043723   1.000000
    4        5.544890   1.000000
    5        8.331959   0.000000
    6        8.432667   0.000000
    7        8.440032   0.000000
    8        9.841332   0.000000
 
  0.1333333E+00  0.1333333E+00  0.0000000E+00  0.1777778E-02
    1       -5.893330   1.000000
    2        4.128360   1.000000
    3        4.754768   1.000000
    4        4.754768   1.000000
    5        7.574091   0.000000
    6        9.410528   0.000000
    7        9.410531   0.000000
    8        9.884543   0.000000
 
  0.2000000E+00  0.1333333E+00  0.0000000E+00  0.7111111E-02
    1       -5.685914   1.000000
    2        3.254479   1.000000
    3        4.467298   1.000000
    4        4.536662   1.000000
    5        7.540612   0.000000
    6        9.425986   0.000000
    7        9.876189   0.000000
    8       10.220297   0.000000
 
  0.2666667E+00  0.1333333E+00  0.0000000E+00  0.7111111E-02
    1       -5.371657   1.000000
    2        2.163435   1.000000
    3        4.235502   1.000000
    4        4.251316   1.000000
    5        7.731144   0.000000
    6        9.340004   0.000000
    7       10.183107   0.000000
    8       10.268355   0.000000
 
  0.3333333E+00  0.1333333E+00  0.0000000E+00  0.7111111E-02
    1       -4.961711   1.000000
    2        1.073448   1.000000
    3        3.924868   1.000000
    4        4.077986   1.000000
    5        7.827787   0.000000
    6        9.355109   0.000000
    7       10.233050   0.000000
    8       10.479947   0.000000
 
  0.4000000E+00  0.1333333E+00  0.0000000E+00  0.7111111E-02
    1       -4.482289   1.000000
    2        0.073257   1.000000
    3        3.621250   1.000000
    4        4.002491   1.000000
    5        7.800609   0.000000
    6        9.295221   0.000000
    7       10.095896   0.000000
    8       11.181231   0.000000
 
  0.4666667E+00  0.1333333E+00  0.0000000E+00  0.7111111E-02
    1       -4.004257   1.000000
    2       -0.738381   1.000000
    3        3.371549   1.000000
    4        4.010561   1.000000
    5        7.770229   0.000000
    6        9.218636   0.000000
    7        9.899050   0.000000
    8       12.189828   0.000000
 
 -0.4666667E+00  0.1333333E+00  0.0000000E+00  0.7111111E-02
    1       -3.722520   1.000000
    2       -1.153697   1.000000
    3        3.192261   1.000000
    4        4.099413   1.000000
    5        7.797200   0.000000
    6        9.196198   0.000000
    7        9.722153   0.000000
    8       13.294157   0.000000
 
 -0.4000000E+00  0.1333333E+00  0.0000000E+00  0.7111111E-02
    1       -3.878136   1.000000
    2       -0.927561   1.000000
    3        3.094661   1.000000
    4        4.262408   1.000000
    5        7.894493   0.000000
    6        9.249046   0.000000
    7        9.594718   0.000000
    8       13.727523   0.000000
 
 -0.3333333E+00  0.1333333E+00  0.0000000E+00  0.7111111E-02
    1       -4.322776   1.000000
    2       -0.211855   1.000000
    3        3.088720   1.000000
    4        4.488279   1.000000
    5        8.053798   0.000000
    6        9.367672   0.000000
    7        9.503565   0.000000
    8       12.882163   0.000000
 
 -0.2666667E+00  0.1333333E+00  0.0000000E+00  0.7111111E-02
    1       -4.812945   1.000000
    2        0.735014   1.000000
    3        3.187250   1.000000
    4        4.758664   1.000000
    5        8.256687   0.000000
    6        9.382313   0.000000
    7        9.485412   0.000000
    8       11.983308   0.000000
 
 -0.2000000E+00  0.1333333E+00  0.0000000E+00  0.7111111E-02
    1       -5.249069   1.000000
    2        1.770886   1.000000
    3        3.418729   1.000000
    4        5.041988   1.000000
    5        8.472939   0.000000
    6        9.136313   0.000000
    7        9.410360   0.000000
    8       11.366967   0.000000
 
 -0.1333333E+00  0.1333333E+00  0.0000000E+00  0.3555556E-02
    1       -5.595721   1.000000
    2        2.731995   1.000000
    3        3.873220   1.000000
    4        5.281946   1.000000
    5        8.600070   0.000000
    6        8.802943   0.000000
    7        9.036844   0.000000
    8       11.113976   0.000000
 
  0.2000000E+00  0.2000000E+00  0.0000000E+00  0.1777778E-02
    1       -5.515091   1.000000
    2        2.982994   1.000000
    3        4.163002   1.000000
    4        4.163003   1.000000
    5        7.093898   0.000000
    6        9.471127   0.000000
    7       10.459081   0.000000
    8       10.459083   0.000000
 
  0.2666667E+00  0.2000000E+00  0.0000000E+00  0.7111111E-02
    1       -5.235840   1.000000
    2        2.217057   1.000000
    3        3.854723   1.000000
    4        3.915938   1.000000
    5        7.084926   0.000000
    6        9.116876   0.000000
    7       10.729759   0.000000
    8       10.918131   0.000000
 
  0.3333333E+00  0.2000000E+00  0.0000000E+00  0.7111111E-02
    1       -4.856526   1.000000
    2        1.288004   1.000000
    3        3.451675   1.000000
    4        3.746163   1.000000
    5        7.296837   0.000000
    6        9.133704   0.000000
    7       10.645553   0.000000
    8       11.098061   0.000000
 
  0.4000000E+00  0.2000000E+00  0.0000000E+00  0.7111111E-02
    1       -4.395995   1.000000
    2        0.353819   1.000000
    3        3.040460   1.000000
    4        3.662800   1.000000
    5        7.404573   0.000000
    6        9.687545   0.000000
    7       10.478677   0.000000
    8       11.013903   0.000000
 
  0.4666667E+00  0.2000000E+00  0.0000000E+00  0.7111111E-02
    1       -3.903239   1.000000
    2       -0.475574   1.000000
    3        2.685730   1.000000
    4        3.668696   1.000000
    5        7.438939   0.000000
    6       10.318277   0.000000
    7       10.648205   0.000000
    8       10.808565   0.000000
 
 -0.4666667E+00  0.2000000E+00  0.0000000E+00  0.7111111E-02
    1       -3.522566   1.000000
    2       -1.025802   1.000000
    3        2.415828   1.000000
    4        3.762225   1.000000
    5        7.516153   0.000000
    6       10.213155   0.000000
    7       10.588892   0.000000
    8       11.821434   0.000000
 
 -0.4000000E+00  0.2000000E+00  0.0000000E+00  0.7111111E-02
    1       -3.535005   1.000000
    2       -1.004700   1.000000
    3        2.247765   1.000000
    4        3.937488   1.000000
    5        7.676140   0.000000
    6       10.164887   0.000000
    7       10.398282   0.000000
    8       13.112835   0.000000
 
 -0.3333333E+00  0.2000000E+00  0.0000000E+00  0.7111111E-02
    1       -3.926526   1.000000
    2       -0.432825   1.000000
    3        2.200751   1.000000
    4        4.183006   1.000000
    5        7.916364   0.000000
    6       10.170758   0.000000
    7       10.225246   0.000000
    8       12.760453   0.000000
 
 -0.2666667E+00  0.2000000E+00  0.0000000E+00  0.7111111E-02
    1       -4.418188   1.000000
    2        0.373587   1.000000
    3        2.313691   1.000000
    4        4.478280   1.000000
    5        8.206208   0.000000
    6        9.986394   0.000000
    7       10.166239   0.000000
    8       11.774483   0.000000
 
 -0.2000000E+00  0.2000000E+00  0.0000000E+00  0.3555556E-02
    1       -4.874483   1.000000
    2        1.170831   1.000000
    3        2.683808   1.000000
    4        4.786405   1.000000
    5        8.468893   0.000000
    6        9.583423   0.000000
    7        9.887490   0.000000
    8       11.275238   0.000000
 
  0.2666667E+00  0.2666667E+00  0.0000000E+00  0.1777778E-02
    1       -4.991249   1.000000
    2        1.803572   1.000000
    3        3.650238   1.000000
    4        3.650239   1.000000
    5        6.673793   0.000000
    6        8.512481   0.000000
    7       11.598538   0.000000
    8       11.598539   0.000000
 
  0.3333333E+00  0.2666667E+00  0.0000000E+00  0.7111111E-02
    1       -4.643981   1.000000
    2        1.124088   1.000000
    3        3.302673   1.000000
    4        3.461298   1.000000
    5        6.716244   0.000000
    6        8.210021   0.000000
    7       11.876962   0.000000
    8       12.014640   0.000000
 
  0.4000000E+00  0.2666667E+00  0.0000000E+00  0.7111111E-02
    1       -4.207511   1.000000
    2        0.364186   1.000000
    3        2.793755   1.000000
    4        3.360107   1.000000
    5        6.926447   0.000000
    6        8.407891   0.000000
    7       11.812349   0.000000
    8       12.066552   0.000000
 
  0.4666667E+00  0.2666667E+00  0.0000000E+00  0.7111111E-02
    1       -3.715512   1.000000
    2       -0.377347   1.000000
    3        2.293165   1.000000
    4        3.350937   1.000000
    5        7.021258   0.000000
    6        9.173424   0.000000
    7       11.668188   0.000000
    8       11.896785   0.000000
 
 -0.4666667E+00  0.2666667E+00  0.0000000E+00  0.7111111E-02
    1       -3.269533   1.000000
    2       -0.965710   1.000000
    3        1.892763   1.000000
    4        3.433459   1.000000
    5        7.114422   0.000000
    6       10.257957   0.000000
    7       11.546920   0.000000
    8       11.659351   0.000000
 
 -0.4000000E+00  0.2666667E+00  0.0000000E+00  0.7111111E-02
    1       -3.143502   1.000000
    2       -1.113080   1.000000
    3        1.633873   1.000000
    4        3.603037   1.000000
    5        7.288164   0.000000
    6       11.235250   0.000000
    7       11.416911   0.000000
    8       11.750317   0.000000
 
 -0.3333333E+00  0.2666667E+00  0.0000000E+00  0.7111111E-02
    1       -3.467478   1.000000
    2       -0.707031   1.000000
    3        1.558169   1.000000
    4        3.849448   1.000000
    5        7.553269   0.000000
    6       11.137588   0.000000
    7       11.277483   0.000000
    8       12.666493   0.000000
 
 -0.2666667E+00  0.2666667E+00  0.0000000E+00  0.3555556E-02
    1       -3.950767   1.000000
    2       -0.115769   1.000000
    3        1.750023   1.000000
    4        4.153283   1.000000
    5        7.885385   0.000000
    6       10.664381   0.000000
    7       11.004033   0.000000
    8       11.861007   0.000000
 
  0.3333333E+00  0.3333333E+00  0.0000000E+00  0.1777778E-02
    1       -4.328146   1.000000
    2        0.627219   1.000000
    3        3.250296   1.000000
    4        3.250298   1.000000
    5        6.375900   0.000000
    6        7.639147   0.000000
    7       12.791171   0.000000
    8       12.791171   0.000000
 
  0.4000000E+00  0.3333333E+00  0.0000000E+00  0.7111111E-02
    1       -3.918490   1.000000
    2        0.012095   1.000000
    3        2.906461   1.000000
    4        3.126460   1.000000
    5        6.479017   0.000000
    6        7.463770   0.000000
    7       13.093131   0.000000
    8       13.149430   0.000000
 
  0.4666667E+00  0.3333333E+00  0.0000000E+00  0.7111111E-02
    1       -3.437692   1.000000
    2       -0.610092   1.000000
    3        2.349999   1.000000
    4        3.095608   1.000000
    5        6.662877   0.000000
    6        7.900810   0.000000
    7       13.048518   0.000000
    8       13.098474   0.000000
 
 -0.4666667E+00  0.3333333E+00  0.0000000E+00  0.7111111E-02
    1       -2.954919   1.000000
    2       -1.154192   1.000000
    3        1.810932   1.000000
    4        3.158710   1.000000
    5        6.768611   0.000000
    6        8.867141   0.000000
    7       12.871027   0.000000
    8       12.917055   0.000000
 
 -0.4000000E+00  0.3333333E+00  0.0000000E+00  0.7111111E-02
    1       -2.723608   1.000000
    2       -1.383705   1.000000
    3        1.428298   1.000000
    4        3.312496   1.000000
    5        6.938466   0.000000
    6       10.085076   0.000000
    7       12.560962   0.000000
    8       12.789542   0.000000
 
 -0.3333333E+00  0.3333333E+00  0.0000000E+00  0.3555556E-02
    1       -3.001081   1.000000
    2       -1.096237   1.000000
    3        1.306477   1.000000
    4        3.548406   1.000000
    5        7.205426   0.000000
    6       11.395074   0.000000
    7       12.025900   0.000000
    8       12.589162   0.000000
 
  0.4000000E+00  0.4000000E+00  0.0000000E+00  0.1777778E-02
    1       -3.534836   1.000000
    2       -0.519860   1.000000
    3        2.977968   1.000000
    4        2.977971   1.000000
    5        6.235294   0.000000
    6        6.966925   0.000000
    7       14.018955   0.000000
    8       14.018956   0.000000
 
  0.4666667E+00  0.4000000E+00  0.0000000E+00  0.7111111E-02
    1       -3.071115   1.000000
    2       -1.079791   1.000000
    3        2.669042   1.000000
    4        2.922223   1.000000
    5        6.391265   0.000000
    6        6.947040   0.000000
    7       14.312072   0.000000
    8       14.337413   0.000000
 
 -0.4666667E+00  0.4000000E+00  0.0000000E+00  0.7111111E-02
    1       -2.572603   1.000000
    2       -1.588458   1.000000
    3        2.131322   1.000000
    4        2.961503   1.000000
    5        6.526399   0.000000
    6        7.646382   0.000000
    7       14.147548   0.000000
    8       14.309476   0.000000
 
 -0.4000000E+00  0.4000000E+00  0.0000000E+00  0.3555556E-02
    1       -2.359285   1.000000
    2       -1.756042   1.000000
    3        1.647855   1.000000
    4        3.093874   1.000000
    5        6.681234   0.000000
    6        8.766546   0.000000
    7       13.615293   0.000000
    8       14.190326   0.000000
 
  0.4666667E+00  0.4666667E+00  0.0000000E+00  0.1777778E-02
    1       -2.623807   1.000000
    2       -1.611772   1.000000
    3        2.840334   1.000000
    4        2.840337   1.000000
    5        6.275390   0.000000
    6        6.514453   0.000000
    7       15.217844   0.000000
    8       15.217846   0.000000
 
 -0.4666667E+00  0.4666667E+00  0.0000000E+00  0.3555556E-02
    1       -2.146972   1.000000
    2       -2.087662   1.000000
    3        2.589996   1.000000
    4        2.853644   1.000000
    5        6.404249   0.000000
    6        6.730999   0.000000
    7       15.192848   0.000000
    8       15.338241   0.000000
 
  0.2000000E+00  0.1333333E+00  0.6666667E-01  0.7111111E-02
    1       -5.818667   1.000000
    2        3.558682   1.000000
    3        4.462568   1.000000
    4        5.147905   1.000000
    5        7.979277   0.000000
    6        8.879476   0.000000
    7        9.273150   0.000000
    8       10.496126   0.000000
 
  0.2666667E+00  0.1333333E+00  0.6666667E-01  0.1422222E-01
    1       -5.539437   1.000000
    2        2.547772   1.000000
    3        4.025627   1.000000
    4        4.969748   1.000000
    5        8.163534   0.000000
    6        8.871587   0.000000
    7        9.663300   0.000000
    8       10.725939   0.000000
 
  0.3333333E+00  0.1333333E+00  0.6666667E-01  0.1422222E-01
    1       -5.159724   1.000000
    2        1.440733   1.000000
    3        3.751499   1.000000
    4        4.717085   1.000000
    5        8.197160   0.000000
    6        8.923192   0.000000
    7        9.859629   0.000000
    8       10.961129   0.000000
 
  0.4000000E+00  0.1333333E+00  0.6666667E-01  0.1422222E-01
    1       -4.699063   1.000000
    2        0.390570   1.000000
    3        3.575460   1.000000
    4        4.470453   1.000000
    5        8.087854   0.000000
    6        8.929178   0.000000
    7        9.835539   0.000000
    8       11.578071   0.000000
 
  0.4666667E+00  0.1333333E+00  0.6666667E-01  0.1422222E-01
    1       -4.207464   1.000000
    2       -0.508116   1.000000
    3        3.474663   1.000000
    4        4.277854   1.000000
    5        7.980868   0.000000
    6        8.857318   0.000000
    7        9.738081   0.000000
    8       12.494358   0.000000
 
 -0.4666667E+00  0.1333333E+00  0.6666667E-01  0.1422222E-01
    1       -3.827205   1.000000
    2       -1.095341   1.000000
    3        3.431287   1.000000
    4        4.171454   1.000000
    5        7.922051   0.000000
    6        8.799311   0.000000
    7        9.667913   0.000000
    8       13.452412   0.000000
 
  0.2666667E+00  0.2000000E+00  0.6666667E-01  0.7111111E-02
    1       -5.442895   1.000000
    2        2.593249   1.000000
    3        3.868197   1.000000
    4        4.456767   1.000000
    5        7.518213   0.000000
    6        9.489858   0.000000
    7       10.149408   0.000000
    8       10.355156   0.000000
 
  0.3333333E+00  0.2000000E+00  0.6666667E-01  0.1422222E-01
    1       -5.096070   1.000000
    2        1.684580   1.000000
    3        3.429978   1.000000
    4        4.256781   1.000000
    5        7.750530   0.000000
    6        9.478487   0.000000
    7       10.001021   0.000000
    8       10.724895   0.000000
 
  0.4000000E+00  0.2000000E+00  0.6666667E-01  0.1422222E-01
    1       -4.659835   1.000000
    2        0.706140   1.000000
    3        3.133835   1.000000
    4        4.024440   1.000000
    5        7.902684   0.000000
    6        9.592387   0.000000
    7       10.089871   0.000000
    8       10.825693   0.000000
 
  0.4666667E+00  0.2000000E+00  0.6666667E-01  0.1422222E-01
    1       -4.169203   1.000000
    2       -0.201747   1.000000
    3        2.914959   1.000000
    4        3.856841   1.000000
    5        7.936644   0.000000
    6        9.409543   0.000000
    7       10.706133   0.000000
    8       10.950524   0.000000
 
 -0.4666667E+00  0.2000000E+00  0.6666667E-01  0.1422222E-01
    1       -3.724082   1.000000
    2       -0.894485   1.000000
    3        2.747566   1.000000
    4        3.799475   1.000000
    5        7.978839   0.000000
    6        9.220485   0.000000
    7       10.629606   0.000000
    8       12.024827   0.000000
 
 -0.4000000E+00  0.2000000E+00  0.6666667E-01  0.1422222E-01
    1       -3.573292   1.000000
    2       -1.105705   1.000000
    3        2.634739   1.000000
    4        3.859289   1.000000
    5        8.084960   0.000000
    6        9.088769   0.000000
    7       10.557660   0.000000
    8       13.249756   0.000000
 
 -0.3333333E+00  0.2000000E+00  0.6666667E-01  0.1422222E-01
    1       -3.863113   1.000000
    2       -0.686443   1.000000
    3        2.594866   1.000000
    4        4.021545   1.000000
    5        8.258512   0.000000
    6        9.026457   0.000000
    7       10.527261   0.000000
    8       12.367408   0.000000
 
 -0.2666667E+00  0.2000000E+00  0.6666667E-01  0.1422222E-01
    1       -4.342922   1.000000
    2        0.100467   1.000000
    3        2.652762   1.000000
    4        4.261722   1.000000
    5        8.473055   0.000000
    6        9.010041   0.000000
    7       10.500931   0.000000
    8       11.365859   0.000000
 
 -0.2000000E+00  0.2000000E+00  0.6666667E-01  0.1422222E-01
    1       -4.820546   1.000000
    2        1.021656   1.000000
    3        2.848935   1.000000
    4        4.544670   1.000000
    5        8.658034   0.000000
    6        8.940107   0.000000
    7       10.387474   0.000000
    8       10.700075   0.000000
 
 -0.1333333E+00  0.2000000E+00  0.6666667E-01  0.7111111E-02
    1       -5.227777   1.000000
    2        1.896233   1.000000
    3        3.276137   1.000000
    4        4.812363   1.000000
    5        8.492930   0.000000
    6        8.930054   0.000000
    7       10.090539   0.000000
    8       10.514926   0.000000
 
  0.3333333E+00  0.2666667E+00  0.6666667E-01  0.7111111E-02
    1       -4.923074   1.000000
    2        1.576064   1.000000
    3        3.358547   1.000000
    4        3.788721   1.000000
    5        7.108064   0.000000
    6        8.775658   0.000000
    7       10.897085   0.000000
    8       11.531804   0.000000
 
  0.4000000E+00  0.2666667E+00  0.6666667E-01  0.1422222E-01
    1       -4.515097   1.000000
    2        0.795781   1.000000
    3        2.909865   1.000000
    4        3.583448   1.000000
    5        7.371445   0.000000
    6        8.826847   0.000000
    7       10.745357   0.000000
    8       11.879654   0.000000
 
  0.4666667E+00  0.2666667E+00  0.6666667E-01  0.1422222E-01
    1       -4.036446   1.000000
    2       -0.014500   1.000000
    3        2.519525   1.000000
    4        3.435239   1.000000
    5        7.514729   0.000000
    6        9.446146   0.000000
    7       10.514723   0.000000
    8       11.907664   0.000000
 
 -0.4666667E+00  0.2666667E+00  0.6666667E-01  0.1422222E-01
    1       -3.555346   1.000000
    2       -0.722971   1.000000
    3        2.196403   1.000000
    4        3.404241   1.000000
    5        7.593481   0.000000
    6       10.199775   0.000000
    7       10.547380   0.000000
    8       11.809119   0.000000
 
 -0.4000000E+00  0.2666667E+00  0.6666667E-01  0.1422222E-01
    1       -3.274159   1.000000
    2       -1.092275   1.000000
    3        1.964178   1.000000
    4        3.489682   1.000000
    5        7.727374   0.000000
    6       10.050480   0.000000
    7       11.652074   0.000000
    8       11.770689   0.000000
 
 -0.3333333E+00  0.2666667E+00  0.6666667E-01  0.1422222E-01
    1       -3.450786   1.000000
    2       -0.857018   1.000000
    3        1.850608   1.000000
    4        3.675956   1.000000
    5        7.945756   0.000000
    6        9.903770   0.000000
    7       11.576447   0.000000
    8       12.324320   0.000000
 
 -0.2666667E+00  0.2666667E+00  0.6666667E-01  0.1422222E-01
    1       -3.905393   1.000000
    2       -0.224812   1.000000
    3        1.899430   1.000000
    4        3.941209   1.000000
    5        8.237778   0.000000
    6        9.752904   0.000000
    7       11.191080   0.000000
    8       11.536859   0.000000
 
 -0.2000000E+00  0.2666667E+00  0.6666667E-01  0.7111111E-02
    1       -4.391946   1.000000
    2        0.469614   1.000000
    3        2.199940   1.000000
    4        4.251243   1.000000
    5        8.557832   0.000000
    6        9.390818   0.000000
    7       10.650686   0.000000
    8       11.108634   0.000000
 
  0.4000000E+00  0.3333333E+00  0.6666667E-01  0.7111111E-02
    1       -4.266314   1.000000
    2        0.516480   1.000000
    3        2.969708   1.000000
    4        3.252376   1.000000
    5        6.810820   0.000000
    6        7.948453   0.000000
    7       11.949625   0.000000
    8       12.759328   0.000000
 
  0.4666667E+00  0.3333333E+00  0.6666667E-01  0.1422222E-01
    1       -3.807166   1.000000
    2       -0.140666   1.000000
    3        2.496307   1.000000
    4        3.090146   1.000000
    5        7.089396   0.000000
    6        8.185867   0.000000
    7       11.759662   0.000000
    8       13.096951   0.000000
 
 -0.4666667E+00  0.3333333E+00  0.6666667E-01  0.1422222E-01
    1       -3.311993   1.000000
    2       -0.768352   1.000000
    3        2.003084   1.000000
    4        3.062064   1.000000
    5        7.216769   0.000000
    6        9.028371   0.000000
    7       11.518114   0.000000
    8       13.087191   0.000000
 