 vasp.6.2.0 18Jan21 (build Aug 12 2022 13:00:08) complex                        
  
 executed on             LinuxIFC date 2024.11.03  22:25:14
 running on    4 total cores
 distrk:  each k-point on    4 cores,    1 groups
 distr:  one band on NCORE=   1 cores,    4 groups


--------------------------------------------------------------------------------------------------------


 INCAR:
   ISTART = 0            (Read existing wavefunction, if there)
   ISPIN = 1            (Non-Spin polarised DFT)
   LREAL = .FALSE.       (Projection operators: automatic)
   LWAVE = .FALSE.        (Write WAVECAR or not)
   LCHARG = .FALSE.        (Write CHGCAR or not)
   ADDGRID = .TRUE.        (Increase grid, helps GGA convergence)
   LASPH = .TRUE.        (Give more accurate total energies and band structure calculations)
   PREC = Accurate      (Accurate strictly avoids any aliasing or wrap around errors)
   ENCUT = 500          (Cut-off energy for plane wave basis set, in eV)
   ISMEAR = 0            (Gaussian smearing, metals:1)
   SIGMA = 0.05         (Smearing value in eV, metals:0.2)
   NELM = 90           (Max electronic SCF steps)
   NELMIN = 6            (Min electronic SCF steps)
   EDIFF = 1E-06        (SCF energy convergence, in eV)
   NSW = 100          (Max ionic steps)
   IBRION = 2            (Algorithm: 0-MD, 1-Quasi-New, 2-CG)
   ISIF = 3            (Stress/relaxation: 2-Ions, 3-Shape/Ions/V, 4-Shape/Ions)
   EDIFFG = -2E-03        (Ionic convergence, eV/AA)
   ISYM = 2              (Symmetry: 0\=none, 2\=GGA, 3\=hybrids)

 POTCAR:    PAW_PBE Si 05Jan2001                  
 POTCAR:    PAW_PBE Si 05Jan2001                  
   VRHFIN =Si: s2p2                                                                                 
   LEXCH  = PE                                                                                      
   EATOM  =   103.0669 eV,    7.5752 Ry                                                             
                                                                                                    
   TITEL  = PAW_PBE Si 05Jan2001                                                                    
   LULTRA =        F    use ultrasoft PP ?                                                          
   IUNSCR =        1    unscreen: 0-lin 1-nonlin 2-no                                               
   RPACOR =    1.500    partial core radius                                                         
   POMASS =   28.085; ZVAL   =    4.000    mass and valenz                                          
   RCORE  =    1.900    outmost cutoff radius                                                       
   RWIGS  =    2.480; RWIGS  =    1.312    wigner-seitz radius (au A)                               
   ENMAX  =  245.345; ENMIN  =  184.009 eV                                                          
   ICORE  =        2    local potential                                                             
   LCOR   =        T    correct aug charges                                                         
   LPAW   =        T    paw PP                                                                      
   EAUG   =  322.069                                                                                
   DEXC   =    0.000                                                                                
   RMAX   =    1.950    core radius for proj-oper                                                   
   RAUG   =    1.300    factor for augmentation sphere                                              
   RDEP   =    1.993    radius for radial grids                                                     
   RDEPT  =    1.837    core radius for aug-charge                                                  
                                                                                                    
   Atomic configuration                                                                             
    6 entries                                                                                       
     n  l   j            E        occ.                                                              
     1  0  0.50     -1785.8828   2.0000                                                             
     2  0  0.50      -139.4969   2.0000                                                             
     2  1  1.50       -95.5546   6.0000                                                             
     3  0  0.50       -10.8127   2.0000                                                             
     3  1  0.50        -4.0811   2.0000                                                             
     3  2  1.50        -4.0817   0.0000                                                             
   Description                                                                                      
     l       E           TYP  RCUT    TYP  RCUT                                                     
     0    -10.8127223     23  1.900                                                                 
     0     -7.6451159     23  1.900                                                                 
     1     -4.0811372     23  1.900                                                                 
     1      2.4879257     23  1.900                                                                 
     2     -4.0817478      7  1.900                                                                 
  local pseudopotential read in
  partial core-charges read in
  partial kinetic energy density read in
  atomic valenz-charges read in
  non local Contribution for L=           0  read in
    real space projection operators read in
  non local Contribution for L=           0  read in
    real space projection operators read in
  non local Contribution for L=           1  read in
    real space projection operators read in
  non local Contribution for L=           1  read in
    real space projection operators read in
    PAW grid and wavefunctions read in
 
   number of l-projection  operators is LMAX  =           4
   number of lm-projection operators is LMMAX =           8
 
  PAW_PBE Si 05Jan2001                  :
 energy of atom  1       EATOM= -103.0669
 kinetic energy error for atom=    0.0006 (will be added to EATOM!!)
 
 
 POSCAR: Si2
  positions in direct lattice
  No initial velocities read in
 exchange correlation table for  LEXCH =        8
   RHO(1)=    0.500       N(1)  =     2000
   RHO(2)=  100.500       N(2)  =     4000
 


--------------------------------------------------------------------------------------------------------


 ion  position               nearest neighbor table
   1  0.875  0.875  0.875-   2 2.36   2 2.36   2 2.36   2 2.36
   2  0.125  0.125  0.125-   1 2.36   1 2.36   1 2.36   1 2.36
 
  LATTYP: Found a face centered cubic cell.
 ALAT       =     5.4437031493
  
  Lattice vectors:
  
 A1 = (   3.3335730000,   0.0000000000,   1.9246390000)
 A2 = (   1.1111910000,   3.1429240000,   1.9246390000)
 A3 = (   0.0000000000,   0.0000000000,   3.8492780000)


Analysis of symmetry for initial positions (statically):
=====================================================================
 Subroutine PRICEL returns:
 Original cell was already a primitive cell.
 

 Routine SETGRP: Setting up the symmetry group for a 
 face centered cubic supercell.


 Subroutine GETGRP returns: Found 48 space group operations
 (whereof 12 operations were pure point group operations)
 out of a pool of 48 trial point group operations.


The static configuration has the point symmetry D_3d.
 The point group associated with its full space group is O_h .


Analysis of symmetry for dynamics (positions and initial velocities):
=====================================================================
 Subroutine PRICEL returns:
 Original cell was already a primitive cell.
 

 Routine SETGRP: Setting up the symmetry group for a 
 face centered cubic supercell.


 Subroutine GETGRP returns: Found 48 space group operations
 (whereof 12 operations were pure point group operations)
 out of a pool of 48 trial point group operations.


The dynamic configuration has the point symmetry D_3d.
 The point group associated with its full space group is O_h .


 Subroutine INISYM returns: Found 48 space group operations
 (whereof 12 operations are pure point group operations),
 and found     1 'primitive' translations


----------------------------------------------------------------------------------------

                                     Primitive cell                                     

  volume of cell :      40.3295

  direct lattice vectors                    reciprocal lattice vectors
     3.333573000  0.000000000  1.924639000     0.299978432 -0.106058350  0.000000000
     1.111191000  3.142924000  1.924639000     0.000000000  0.318175050  0.000000000
     0.000000000  0.000000000  3.849278000    -0.149989216 -0.106058350  0.259788979

  length of vectors
     3.849278403  3.849279412  3.849278000     0.318175161  0.318175050  0.318175190

  position of ions in fractional coordinates (direct lattice)
     0.875000000  0.875000000  0.875000000
     0.125000000  0.125000000  0.125000000

  ion indices of the primitive-cell ions
   primitive index   ion index
                 1           1
                 2           2

----------------------------------------------------------------------------------------

 
 
 KPOINTS: Automatic                               

Automatic generation of k-mesh.
 Grid dimensions read from file:
 generate k-points for:   15   15   15

 Generating k-lattice:

  Cartesian coordinates                     Fractional coordinates (reciprocal lattice)
     0.019998562 -0.007070557  0.000000000     0.066666667  0.000000000  0.000000000
     0.000000000  0.021211670  0.000000000     0.000000000  0.066666667  0.000000000
    -0.009999281 -0.007070557  0.017319265     0.000000000  0.000000000  0.066666667

  Length of vectors
     0.021211677  0.021211670  0.021211679

  Shift w.r.t. Gamma in fractional coordinates (k-lattice)
     0.000000000  0.000000000  0.000000000

 
 Subroutine IBZKPT returns following result:
 ===========================================
 
 Found    120 irreducible k-points:
 
 Following reciprocal coordinates:
            Coordinates               Weight
  0.000000  0.000000  0.000000      1.000000
  0.066667 -0.000000  0.000000      8.000000
  0.133333 -0.000000  0.000000      8.000000
  0.200000  0.000000  0.000000      8.000000
  0.266667 -0.000000  0.000000      8.000000
  0.333333 -0.000000  0.000000      8.000000
  0.400000 -0.000000  0.000000      8.000000
  0.466667 -0.000000  0.000000      8.000000
  0.066667  0.066667  0.000000      6.000000
  0.133333  0.066667  0.000000     24.000000
  0.200000  0.066667  0.000000     24.000000
  0.266667  0.066667  0.000000     24.000000
  0.333333  0.066667  0.000000     24.000000
  0.400000  0.066667  0.000000     24.000000
  0.466667  0.066667  0.000000     24.000000
 -0.466667  0.066667  0.000000     24.000000
 -0.400000  0.066667  0.000000     24.000000
 -0.333333  0.066667  0.000000     24.000000
 -0.266667  0.066667  0.000000     24.000000
 -0.200000  0.066667  0.000000     24.000000
 -0.133333  0.066667  0.000000     24.000000
 -0.066667  0.066667  0.000000     12.000000
  0.133333  0.133333  0.000000      6.000000
  0.200000  0.133333  0.000000     24.000000
  0.266667  0.133333  0.000000     24.000000
  0.333333  0.133333  0.000000     24.000000
  0.400000  0.133333  0.000000     24.000000
  0.466667  0.133333  0.000000     24.000000
 -0.466667  0.133333  0.000000     24.000000
 -0.400000  0.133333  0.000000     24.000000
 -0.333333  0.133333  0.000000     24.000000
 -0.266667  0.133333  0.000000     24.000000
 -0.200000  0.133333  0.000000     24.000000
 -0.133333  0.133333  0.000000     12.000000
  0.200000  0.200000  0.000000      6.000000
  0.266667  0.200000  0.000000     24.000000
  0.333333  0.200000  0.000000     24.000000
  0.400000  0.200000  0.000000     24.000000
  0.466667  0.200000  0.000000     24.000000
 -0.466667  0.200000  0.000000     24.000000
 -0.400000  0.200000  0.000000     24.000000
 -0.333333  0.200000  0.000000     24.000000
 -0.266667  0.200000  0.000000     24.000000
 -0.200000  0.200000  0.000000     12.000000
  0.266667  0.266667  0.000000      6.000000
  0.333333  0.266667  0.000000     24.000000
  0.400000  0.266667  0.000000     24.000000
  0.466667  0.266667  0.000000     24.000000
 -0.466667  0.266667  0.000000     24.000000
 -0.400000  0.266667  0.000000     24.000000
 -0.333333  0.266667  0.000000     24.000000
 -0.266667  0.266667  0.000000     12.000000
  0.333333  0.333333  0.000000      6.000000
  0.400000  0.333333  0.000000     24.000000
  0.466667  0.333333  0.000000     24.000000
 -0.466667  0.333333  0.000000     24.000000
 -0.400000  0.333333  0.000000     24.000000
 -0.333333  0.333333  0.000000     12.000000
  0.400000  0.400000  0.000000      6.000000
  0.466667  0.400000  0.000000     24.000000
 -0.466667  0.400000  0.000000     24.000000
 -0.400000  0.400000  0.000000     12.000000
  0.466667  0.466667  0.000000      6.000000
 -0.466667  0.466667  0.000000     12.000000
  0.200000  0.133333  0.066667     24.000000
  0.266667  0.133333  0.066667     48.000000
  0.333333  0.133333  0.066667     48.000000
  0.400000  0.133333  0.066667     48.000000
  0.466667  0.133333  0.066667     48.000000
 -0.466667  0.133333  0.066667     48.000000
  0.266667  0.200000  0.066667     24.000000
  0.333333  0.200000  0.066667     48.000000
  0.400000  0.200000  0.066667     48.000000
  0.466667  0.200000  0.066667     48.000000
 -0.466667  0.200000  0.066667     48.000000
 -0.400000  0.200000  0.066667     48.000000
 -0.333333  0.200000  0.066667     48.000000
 -0.266667  0.200000  0.066667     48.000000
 -0.200000  0.200000  0.066667     48.000000
 -0.133333  0.200000  0.066667     24.000000
  0.333333  0.266667  0.066667     24.000000
  0.400000  0.266667  0.066667     48.000000
  0.466667  0.266667  0.066667     48.000000
 -0.466667  0.266667  0.066667     48.000000
 -0.400000  0.266667  0.066667     48.000000
 -0.333333  0.266667  0.066667     48.000000
 -0.266667  0.266667  0.066667     48.000000
 -0.200000  0.266667  0.066667     24.000000
  0.400000  0.333333  0.066667     24.000000
  0.466667  0.333333  0.066667     48.000000
 -0.466667  0.333333  0.066667     48.000000
 -0.400000  0.333333  0.066667     48.000000
 -0.333333  0.333333  0.066667     48.000000
 -0.266667  0.333333  0.066667     24.000000
  0.466667  0.400000  0.066667     24.000000
 -0.466667  0.400000  0.066667     48.000000
 -0.400000  0.400000  0.066667     48.000000
 -0.333333  0.400000  0.066667     24.000000
 -0.466667  0.466667  0.066667     24.000000
 -0.400000  0.466667  0.066667     24.000000
  0.400000  0.266667  0.133333     24.000000
  0.466667  0.266667  0.133333     48.000000
 -0.466667  0.266667  0.133333     48.000000
 -0.400000  0.266667  0.133333     48.000000
  0.466667  0.333333  0.133333     24.000000
 -0.466667  0.333333  0.133333     48.000000
 -0.400000  0.333333  0.133333     48.000000
 -0.333333  0.333333  0.133333     48.000000
 -0.266667  0.333333  0.133333     48.000000
 -0.200000  0.333333  0.133333     24.000000
 -0.466667  0.400000  0.133333     24.000000
 -0.400000  0.400000  0.133333     48.000000
 -0.333333  0.400000  0.133333     48.000000
 -0.266667  0.400000  0.133333     24.000000
 -0.400000  0.466667  0.133333     24.000000
 -0.333333  0.466667  0.133333     24.000000
 -0.400000  0.400000  0.200000     24.000000
 -0.333333  0.400000  0.200000     48.000000
 -0.333333  0.466667  0.200000     24.000000
 -0.266667  0.466667  0.200000     24.000000
 
 Following cartesian coordinates:
            Coordinates               Weight
  0.000000  0.000000  0.000000      1.000000
  0.019999 -0.007071  0.000000      8.000000
  0.039997 -0.014141  0.000000      8.000000
  0.059996 -0.021212  0.000000      8.000000
  0.079994 -0.028282  0.000000      8.000000
  0.099993 -0.035353  0.000000      8.000000
  0.119991 -0.042423  0.000000      8.000000
  0.139990 -0.049494  0.000000      8.000000
  0.019999  0.014141  0.000000      6.000000
  0.039997  0.007071  0.000000     24.000000
  0.059996  0.000000  0.000000     24.000000
  0.079994 -0.007071  0.000000     24.000000
  0.099993 -0.014141  0.000000     24.000000
  0.119991 -0.021212  0.000000     24.000000
  0.139990 -0.028282  0.000000     24.000000
 -0.139990  0.070706  0.000000     24.000000
 -0.119991  0.063635  0.000000     24.000000
 -0.099993  0.056564  0.000000     24.000000
 -0.079994  0.049494  0.000000     24.000000
 -0.059996  0.042423  0.000000     24.000000
 -0.039997  0.035353  0.000000     24.000000
 -0.019999  0.028282  0.000000     12.000000
  0.039997  0.028282  0.000000      6.000000
  0.059996  0.021212  0.000000     24.000000
  0.079994  0.014141  0.000000     24.000000
  0.099993  0.007071  0.000000     24.000000
  0.119991  0.000000  0.000000     24.000000
  0.139990 -0.007071  0.000000     24.000000
 -0.139990  0.091917  0.000000     24.000000
 -0.119991  0.084847  0.000000     24.000000
 -0.099993  0.077776  0.000000     24.000000
 -0.079994  0.070706  0.000000     24.000000
 -0.059996  0.063635  0.000000     24.000000
 -0.039997  0.056564  0.000000     12.000000
  0.059996  0.042423  0.000000      6.000000
  0.079994  0.035353  0.000000     24.000000
  0.099993  0.028282  0.000000     24.000000
  0.119991  0.021212  0.000000     24.000000
  0.139990  0.014141  0.000000     24.000000
 -0.139990  0.113129  0.000000     24.000000
 -0.119991  0.106058  0.000000     24.000000
 -0.099993  0.098988  0.000000     24.000000
 -0.079994  0.091917  0.000000     24.000000
 -0.059996  0.084847  0.000000     12.000000
  0.079994  0.056564  0.000000      6.000000
  0.099993  0.049494  0.000000     24.000000
  0.119991  0.042423  0.000000     24.000000
  0.139990  0.035353  0.000000     24.000000
 -0.139990  0.134341  0.000000     24.000000
 -0.119991  0.127270  0.000000     24.000000
 -0.099993  0.120199  0.000000     24.000000
 -0.079994  0.113129  0.000000     12.000000
  0.099993  0.070706  0.000000      6.000000
  0.119991  0.063635  0.000000     24.000000
  0.139990  0.056564  0.000000     24.000000
 -0.139990  0.155552  0.000000     24.000000
 -0.119991  0.148482  0.000000     24.000000
 -0.099993  0.141411  0.000000     12.000000
  0.119991  0.084847  0.000000      6.000000
  0.139990  0.077776  0.000000     24.000000
 -0.139990  0.176764  0.000000     24.000000
 -0.119991  0.169693  0.000000     12.000000
  0.139990  0.098988  0.000000      6.000000
 -0.139990  0.197976  0.000000     12.000000
  0.049996  0.014141  0.017319     24.000000
  0.069995  0.007071  0.017319     48.000000
  0.089994 -0.000000  0.017319     48.000000
  0.109992 -0.007071  0.017319     48.000000
  0.129991 -0.014141  0.017319     48.000000
 -0.149989  0.084847  0.017319     48.000000
  0.069995  0.028282  0.017319     24.000000
  0.089994  0.021212  0.017319     48.000000
  0.109992  0.014141  0.017319     48.000000
  0.129991  0.007071  0.017319     48.000000
 -0.149989  0.106058  0.017319     48.000000
 -0.129991  0.098988  0.017319     48.000000
 -0.109992  0.091917  0.017319     48.000000
 -0.089994  0.084847  0.017319     48.000000
 -0.069995  0.077776  0.017319     48.000000
 -0.049996  0.070706  0.017319     24.000000
  0.089994  0.042423  0.017319     24.000000
  0.109992  0.035353  0.017319     48.000000
  0.129991  0.028282  0.017319     48.000000
 -0.149989  0.127270  0.017319     48.000000
 -0.129991  0.120199  0.017319     48.000000
 -0.109992  0.113129  0.017319     48.000000
 -0.089994  0.106058  0.017319     48.000000
 -0.069995  0.098988  0.017319     24.000000
  0.109992  0.056564  0.017319     24.000000
  0.129991  0.049494  0.017319     48.000000
 -0.149989  0.148482  0.017319     48.000000
 -0.129991  0.141411  0.017319     48.000000
 -0.109992  0.134341  0.017319     48.000000
 -0.089994  0.127270  0.017319     24.000000
  0.129991  0.070706  0.017319     24.000000
 -0.149989  0.169693  0.017319     48.000000
 -0.129991  0.162623  0.017319     48.000000
 -0.109992  0.155552  0.017319     24.000000
 -0.149989  0.190905  0.017319     24.000000
 -0.129991  0.183834  0.017319     24.000000
  0.099993  0.028282  0.034639     24.000000
  0.119991  0.021212  0.034639     48.000000
 -0.159988  0.120199  0.034639     48.000000
 -0.139990  0.113129  0.034639     48.000000
  0.119991  0.042423  0.034639     24.000000
 -0.159988  0.141411  0.034639     48.000000
 -0.139990  0.134341  0.034639     48.000000
 -0.119991  0.127270  0.034639     48.000000
 -0.099993  0.120199  0.034639     48.000000
 -0.079994  0.113129  0.034639     24.000000
 -0.159988  0.162623  0.034639     24.000000
 -0.139990  0.155552  0.034639     48.000000
 -0.119991  0.148482  0.034639     48.000000
 -0.099993  0.141411  0.034639     24.000000
 -0.139990  0.176764  0.034639     24.000000
 -0.119991  0.169693  0.034639     24.000000
 -0.149989  0.148482  0.051958     24.000000
 -0.129991  0.141411  0.051958     48.000000
 -0.129991  0.162623  0.051958     24.000000
 -0.109992  0.155552  0.051958     24.000000
 


--------------------------------------------------------------------------------------------------------




 Dimension of arrays:
   k-points           NKPTS =    120   k-points in BZ     NKDIM =    120   number of bands    NBANDS=      8
   number of dos      NEDOS =    301   number of ions     NIONS =      2
   non local maximal  LDIM  =      4   non local SUM 2l+1 LMDIM =      8
   total plane-waves  NPLWV =  21952
   max r-space proj   IRMAX =      1   max aug-charges    IRDMAX= 145776
   dimension x,y,z NGX =    28 NGY =   28 NGZ =   28
   dimension x,y,z NGXF=    56 NGYF=   56 NGZF=   56
   support grid    NGXF=   112 NGYF=  112 NGZF=  112
   ions per type =               2
   NGX,Y,Z   is equivalent  to a cutoff of  12.09, 12.09, 12.09 a.u.
   NGXF,Y,Z  is equivalent  to a cutoff of  24.19, 24.19, 24.19 a.u.

 SYSTEM =  unknown system                          
 POSCAR =  Si2                                     

 Startparameter for this run:
   NWRITE =      2    write-flag & timer
   PREC   = accura    normal or accurate (medium, high low for compatibility)
   ISTART =      0    job   : 0-new  1-cont  2-samecut
   ICHARG =      2    charge: 1-file 2-atom 10-const
   ISPIN  =      1    spin polarized calculation?
   LNONCOLLINEAR =      F non collinear calculations
   LSORBIT =      F    spin-orbit coupling
   INIWAV =      1    electr: 0-lowe 1-rand  2-diag
   LASPH  =      T    aspherical Exc in radial PAW
   METAGGA=      F    non-selfconsistent MetaGGA calc.

 Electronic Relaxation 1
   ENCUT  =  500.0 eV  36.75 Ry    6.06 a.u.   7.02  7.02  7.02*2*pi/ulx,y,z
   ENINI  =  500.0     initial cutoff
   ENAUG  =  322.1 eV  augmentation charge cutoff
   NELM   =     90;   NELMIN=  6; NELMDL= -5     # of ELM steps 
   EDIFF  = 0.1E-05   stopping-criterion for ELM
   LREAL  =      F    real-space projection
   NLSPLINE    = F    spline interpolate recip. space projectors
   LCOMPAT=      F    compatible to vasp.4.4
   GGA_COMPAT  = T    GGA compatible to vasp.4.4-vasp.4.6
   LMAXPAW     = -100 max onsite density
   LMAXMIX     =    2 max onsite mixed and CHGCAR
   VOSKOWN=      0    Vosko Wilk Nusair interpolation
   ROPT   =    0.00000
 Ionic relaxation
   EDIFFG = -.2E-02   stopping-criterion for IOM
   NSW    =    100    number of steps for IOM
   NBLOCK =      1;   KBLOCK =    100    inner block; outer block 
   IBRION =      2    ionic relax: 0-MD 1-quasi-New 2-CG
   NFREE  =      1    steps in history (QN), initial steepest desc. (CG)
   ISIF   =      3    stress and relaxation
   IWAVPR =     11    prediction:  0-non 1-charg 2-wave 3-comb
   ISYM   =      2    0-nonsym 1-usesym 2-fastsym
   LCORR  =      T    Harris-Foulkes like correction to forces

   POTIM  = 0.5000    time-step for ionic-motion
   TEIN   =    0.0    initial temperature
   TEBEG  =    0.0;   TEEND  =   0.0 temperature during run
   SMASS  =  -3.00    Nose mass-parameter (am)
   estimated Nose-frequenzy (Omega)   =  0.10E-29 period in steps = 0.13E+47 mass=  -0.339E-27a.u.
   SCALEE = 1.0000    scale energy and forces
   NPACO  =    256;   APACO  = 16.0  distance and # of slots for P.C.
   PSTRESS=    0.0 pullay stress

  Mass of Ions in am
   POMASS =  28.09
  Ionic Valenz
   ZVAL   =   4.00
  Atomic Wigner-Seitz radii
   RWIGS  =  -1.00
  virtual crystal weights 
   VCA    =   1.00
   NELECT =       8.0000    total number of electrons
   NUPDOWN=      -1.0000    fix difference up-down

 DOS related values:
   EMIN   =  10.00;   EMAX   =-10.00  energy-range for DOS
   EFERMI =   0.00
   ISMEAR =     0;   SIGMA  =   0.05  broadening in eV -4-tet -1-fermi 0-gaus

 Electronic relaxation 2 (details)
   IALGO  =     38    algorithm
   LDIAG  =      T    sub-space diagonalisation (order eigenvalues)
   LSUBROT=      F    optimize rotation matrix (better conditioning)
   TURBO    =      0    0=normal 1=particle mesh
   IRESTART =      0    0=no restart 2=restart with 2 vectors
   NREBOOT  =      0    no. of reboots
   NMIN     =      0    reboot dimension
   EREF     =   0.00    reference energy to select bands
   IMIX   =      4    mixing-type and parameters
     AMIX     =   0.40;   BMIX     =  1.00
     AMIX_MAG =   1.60;   BMIX_MAG =  1.00
     AMIN     =   0.10
     WC   =   100.;   INIMIX=   1;  MIXPRE=   1;  MAXMIX= -45

 Intra band minimization:
   WEIMIN = 0.0010     energy-eigenvalue tresh-hold
   EBREAK =  0.31E-07  absolut break condition
   DEPER  =   0.30     relativ break condition  

   TIME   =   0.40     timestep for ELM

  volume/ion in A,a.u.               =      20.16       136.08
  Fermi-wavevector in a.u.,A,eV,Ry     =   0.954766  1.804247 12.402783  0.911579
  Thomas-Fermi vector in A             =   2.083543
 
 Write flags
   LWAVE        =      F    write WAVECAR
   LDOWNSAMPLE  =      F    k-point downsampling of WAVECAR
   LCHARG       =      F    write CHGCAR
   LVTOT        =      F    write LOCPOT, total local potential
   LVHAR        =      F    write LOCPOT, Hartree potential only
   LELF         =      F    write electronic localiz. function (ELF)
   LORBIT       =      0    0 simple, 1 ext, 2 COOP (PROOUT), +10 PAW based schemes


 Dipole corrections
   LMONO  =      F    monopole corrections only (constant potential shift)
   LDIPOL =      F    correct potential (dipole corrections)
   IDIPOL =      0    1-x, 2-y, 3-z, 4-all directions 
   EPSILON=  1.0000000 bulk dielectric constant

 Exchange correlation treatment:
   GGA     =    --    GGA type
   LEXCH   =     8    internal setting for exchange type
   VOSKOWN=      0    Vosko Wilk Nusair interpolation
   LHFCALC =     F    Hartree Fock is set to
   LHFONE  =     F    Hartree Fock one center treatment
   AEXX    =    0.0000 exact exchange contribution

 Linear response parameters
   LEPSILON=     F    determine dielectric tensor
   LRPA    =     F    only Hartree local field effects (RPA)
   LNABLA  =     F    use nabla operator in PAW spheres
   LVEL    =     F    velocity operator in full k-point grid
   LINTERFAST=   F  fast interpolation
   KINTER  =     0    interpolate to denser k-point grid
   CSHIFT  =0.1000    complex shift for real part using Kramers Kronig
   OMEGAMAX=  -1.0    maximum frequency
   DEG_THRESHOLD= 0.2000000E-02 threshold for treating states as degnerate
   RTIME   =   -0.100 relaxation time in fs
  (WPLASMAI=    0.000 imaginary part of plasma frequency in eV, 0.658/RTIME)
   DFIELD  = 0.0000000 0.0000000 0.0000000 field for delta impulse in time
 
 Orbital magnetization related:
   ORBITALMAG=     F  switch on orbital magnetization
   LCHIMAG   =     F  perturbation theory with respect to B field
   DQ        =  0.001000  dq finite difference perturbation B field
   LLRAUG    =     F  two centre corrections for induced B field



--------------------------------------------------------------------------------------------------------


 conjugate gradient relaxation of ions
 charge density and potential will be updated during run
 non-spin polarized calculation
 Variant of blocked Davidson
 Davidson routine will perform the subspace rotation
 perform sub-space diagonalisation
    after iterative eigenvector-optimisation
 modified Broyden-mixing scheme, WC =      100.0
 initial mixing is a Kerker type mixing with AMIX =  0.4000 and BMIX =      1.0000
 Hartree-type preconditioning will be used
 using additional bands            4
 reciprocal scheme for non local part
 use partial core corrections
 calculate Harris-corrections to forces 
   (improved forces if not selfconsistent)
 use gradient corrections 
 use of overlap-Matrix (Vanderbilt PP)
 Gauss-broadening in eV      SIGMA  =   0.05


--------------------------------------------------------------------------------------------------------


  energy-cutoff  :      500.00
  volume of cell :       40.33
      direct lattice vectors                 reciprocal lattice vectors
     3.333573000  0.000000000  1.924639000     0.299978432 -0.106058350  0.000000000
     1.111191000  3.142924000  1.924639000     0.000000000  0.318175050  0.000000000
     0.000000000  0.000000000  3.849278000    -0.149989216 -0.106058350  0.259788979

  length of vectors
     3.849278403  3.849279412  3.849278000     0.318175161  0.318175050  0.318175190


 
 k-points in units of 2pi/SCALE and weight: Automatic                               
   0.00000000  0.00000000  0.00000000       0.000
   0.01999856 -0.00707056  0.00000000       0.002
   0.03999712 -0.01414111  0.00000000       0.002
   0.05999569 -0.02121167  0.00000000       0.002
   0.07999425 -0.02828223  0.00000000       0.002
   0.09999281 -0.03535278  0.00000000       0.002
   0.11999137 -0.04242334  0.00000000       0.002
   0.13998993 -0.04949390  0.00000000       0.002
   0.01999856  0.01414111  0.00000000       0.002
   0.03999712  0.00707056  0.00000000       0.007
   0.05999569  0.00000000  0.00000000       0.007
   0.07999425 -0.00707056  0.00000000       0.007
   0.09999281 -0.01414111  0.00000000       0.007
   0.11999137 -0.02121167  0.00000000       0.007
   0.13998993 -0.02828223  0.00000000       0.007
  -0.13998993  0.07070557  0.00000000       0.007
  -0.11999137  0.06363501  0.00000000       0.007
  -0.09999281  0.05656445  0.00000000       0.007
  -0.07999425  0.04949390  0.00000000       0.007
  -0.05999569  0.04242334  0.00000000       0.007
  -0.03999712  0.03535278  0.00000000       0.007
  -0.01999856  0.02828223  0.00000000       0.004
   0.03999712  0.02828223  0.00000000       0.002
   0.05999569  0.02121167  0.00000000       0.007
   0.07999425  0.01414111  0.00000000       0.007
   0.09999281  0.00707056  0.00000000       0.007
   0.11999137  0.00000000  0.00000000       0.007
   0.13998993 -0.00707056  0.00000000       0.007
  -0.13998993  0.09191724  0.00000000       0.007
  -0.11999137  0.08484668  0.00000000       0.007
  -0.09999281  0.07777612  0.00000000       0.007
  -0.07999425  0.07070557  0.00000000       0.007
  -0.05999569  0.06363501  0.00000000       0.007
  -0.03999712  0.05656445  0.00000000       0.004
   0.05999569  0.04242334  0.00000000       0.002
   0.07999425  0.03535278  0.00000000       0.007
   0.09999281  0.02828223  0.00000000       0.007
   0.11999137  0.02121167  0.00000000       0.007
   0.13998993  0.01414111  0.00000000       0.007
  -0.13998993  0.11312891  0.00000000       0.007
  -0.11999137  0.10605835  0.00000000       0.007
  -0.09999281  0.09898779  0.00000000       0.007
  -0.07999425  0.09191724  0.00000000       0.007
  -0.05999569  0.08484668  0.00000000       0.004
   0.07999425  0.05656445  0.00000000       0.002
   0.09999281  0.04949390  0.00000000       0.007
   0.11999137  0.04242334  0.00000000       0.007
   0.13998993  0.03535278  0.00000000       0.007
  -0.13998993  0.13434058  0.00000000       0.007
  -0.11999137  0.12727002  0.00000000       0.007
  -0.09999281  0.12019946  0.00000000       0.007
  -0.07999425  0.11312891  0.00000000       0.004
   0.09999281  0.07070557  0.00000000       0.002
   0.11999137  0.06363501  0.00000000       0.007
   0.13998993  0.05656445  0.00000000       0.007
  -0.13998993  0.15555225  0.00000000       0.007
  -0.11999137  0.14848169  0.00000000       0.007
  -0.09999281  0.14141113  0.00000000       0.004
   0.11999137  0.08484668  0.00000000       0.002
   0.13998993  0.07777612  0.00000000       0.007
  -0.13998993  0.17676392  0.00000000       0.007
  -0.11999137  0.16969336  0.00000000       0.004
   0.13998993  0.09898779  0.00000000       0.002
  -0.13998993  0.19797559  0.00000000       0.004
   0.04999641  0.01414111  0.01731927       0.007
   0.06999497  0.00707056  0.01731927       0.014
   0.08999353 -0.00000000  0.01731927       0.014
   0.10999209 -0.00707056  0.01731927       0.014
   0.12999065 -0.01414111  0.01731927       0.014
  -0.14998922  0.08484668  0.01731927       0.014
   0.06999497  0.02828223  0.01731927       0.007
   0.08999353  0.02121167  0.01731927       0.014
   0.10999209  0.01414111  0.01731927       0.014
   0.12999065  0.00707056  0.01731927       0.014
  -0.14998922  0.10605835  0.01731927       0.014
  -0.12999065  0.09898779  0.01731927       0.014
  -0.10999209  0.09191724  0.01731927       0.014
  -0.08999353  0.08484668  0.01731927       0.014
  -0.06999497  0.07777612  0.01731927       0.014
  -0.04999641  0.07070557  0.01731927       0.007
   0.08999353  0.04242334  0.01731927       0.007
   0.10999209  0.03535278  0.01731927       0.014
   0.12999065  0.02828223  0.01731927       0.014
  -0.14998922  0.12727002  0.01731927       0.014
  -0.12999065  0.12019946  0.01731927       0.014
  -0.10999209  0.11312891  0.01731927       0.014
  -0.08999353  0.10605835  0.01731927       0.014
  -0.06999497  0.09898779  0.01731927       0.007
   0.10999209  0.05656445  0.01731927       0.007
   0.12999065  0.04949390  0.01731927       0.014
  -0.14998922  0.14848169  0.01731927       0.014
  -0.12999065  0.14141113  0.01731927       0.014
  -0.10999209  0.13434058  0.01731927       0.014
  -0.08999353  0.12727002  0.01731927       0.007
   0.12999065  0.07070557  0.01731927       0.007
  -0.14998922  0.16969336  0.01731927       0.014
  -0.12999065  0.16262280  0.01731927       0.014
  -0.10999209  0.15555225  0.01731927       0.007
  -0.14998922  0.19090503  0.01731927       0.007
  -0.12999065  0.18383447  0.01731927       0.007
   0.09999281  0.02828223  0.03463853       0.007
   0.11999137  0.02121167  0.03463853       0.014
  -0.15998850  0.12019946  0.03463853       0.014
  -0.13998993  0.11312891  0.03463853       0.014
   0.11999137  0.04242334  0.03463853       0.007
  -0.15998850  0.14141113  0.03463853       0.014
  -0.13998993  0.13434058  0.03463853       0.014
  -0.11999137  0.12727002  0.03463853       0.014
  -0.09999281  0.12019946  0.03463853       0.014
  -0.07999425  0.11312891  0.03463853       0.007
  -0.15998850  0.16262280  0.03463853       0.007
  -0.13998993  0.15555225  0.03463853       0.014
  -0.11999137  0.14848169  0.03463853       0.014
  -0.09999281  0.14141113  0.03463853       0.007
  -0.13998993  0.17676392  0.03463853       0.007
  -0.11999137  0.16969336  0.03463853       0.007
  -0.14998922  0.14848169  0.05195780       0.007
  -0.12999065  0.14141113  0.05195780       0.014
  -0.12999065  0.16262280  0.05195780       0.007
  -0.10999209  0.15555225  0.05195780       0.007
 
 k-points in reciprocal lattice and weights: Automatic                               
   0.00000000  0.00000000  0.00000000       0.000
   0.06666667 -0.00000000  0.00000000       0.002
   0.13333333 -0.00000000  0.00000000       0.002
   0.20000000  0.00000000  0.00000000       0.002
   0.26666667 -0.00000000  0.00000000       0.002
   0.33333333 -0.00000000  0.00000000       0.002
   0.40000000 -0.00000000  0.00000000       0.002
   0.46666667 -0.00000000  0.00000000       0.002
   0.06666667  0.06666667  0.00000000       0.002
   0.13333333  0.06666667  0.00000000       0.007
   0.20000000  0.06666667  0.00000000       0.007
   0.26666667  0.06666667  0.00000000       0.007
   0.33333333  0.06666667  0.00000000       0.007
   0.40000000  0.06666667  0.00000000       0.007
   0.46666667  0.06666667  0.00000000       0.007
  -0.46666667  0.06666667  0.00000000       0.007
  -0.40000000  0.06666667  0.00000000       0.007
  -0.33333333  0.06666667  0.00000000       0.007
  -0.26666667  0.06666667  0.00000000       0.007
  -0.20000000  0.06666667  0.00000000       0.007
  -0.13333333  0.06666667  0.00000000       0.007
  -0.06666667  0.06666667  0.00000000       0.004
   0.13333333  0.13333333  0.00000000       0.002
   0.20000000  0.13333333  0.00000000       0.007
   0.26666667  0.13333333  0.00000000       0.007
   0.33333333  0.13333333  0.00000000       0.007
   0.40000000  0.13333333  0.00000000       0.007
   0.46666667  0.13333333  0.00000000       0.007
  -0.46666667  0.13333333  0.00000000       0.007
  -0.40000000  0.13333333  0.00000000       0.007
  -0.33333333  0.13333333  0.00000000       0.007
  -0.26666667  0.13333333  0.00000000       0.007
  -0.20000000  0.13333333  0.00000000       0.007
  -0.13333333  0.13333333  0.00000000       0.004
   0.20000000  0.20000000  0.00000000       0.002
   0.26666667  0.20000000  0.00000000       0.007
   0.33333333  0.20000000  0.00000000       0.007
   0.40000000  0.20000000  0.00000000       0.007
   0.46666667  0.20000000  0.00000000       0.007
  -0.46666667  0.20000000  0.00000000       0.007
  -0.40000000  0.20000000  0.00000000       0.007
  -0.33333333  0.20000000  0.00000000       0.007
  -0.26666667  0.20000000  0.00000000       0.007
  -0.20000000  0.20000000  0.00000000       0.004
   0.26666667  0.26666667  0.00000000       0.002
   0.33333333  0.26666667  0.00000000       0.007
   0.40000000  0.26666667  0.00000000       0.007
   0.46666667  0.26666667  0.00000000       0.007
  -0.46666667  0.26666667  0.00000000       0.007
  -0.40000000  0.26666667  0.00000000       0.007
  -0.33333333  0.26666667  0.00000000       0.007
  -0.26666667  0.26666667  0.00000000       0.004
   0.33333333  0.33333333  0.00000000       0.002
   0.40000000  0.33333333  0.00000000       0.007
   0.46666667  0.33333333  0.00000000       0.007
  -0.46666667  0.33333333  0.00000000       0.007
  -0.40000000  0.33333333  0.00000000       0.007
  -0.33333333  0.33333333  0.00000000       0.004
   0.40000000  0.40000000  0.00000000       0.002
   0.46666667  0.40000000  0.00000000       0.007
  -0.46666667  0.40000000  0.00000000       0.007
  -0.40000000  0.40000000  0.00000000       0.004
   0.46666667  0.46666667  0.00000000       0.002
  -0.46666667  0.46666667  0.00000000       0.004
   0.20000000  0.13333333  0.06666667       0.007
   0.26666667  0.13333333  0.06666667       0.014
   0.33333333  0.13333333  0.06666667       0.014
   0.40000000  0.13333333  0.06666667       0.014
   0.46666667  0.13333333  0.06666667       0.014
  -0.46666667  0.13333333  0.06666667       0.014
   0.26666667  0.20000000  0.06666667       0.007
   0.33333333  0.20000000  0.06666667       0.014
   0.40000000  0.20000000  0.06666667       0.014
   0.46666667  0.20000000  0.06666667       0.014
  -0.46666667  0.20000000  0.06666667       0.014
  -0.40000000  0.20000000  0.06666667       0.014
  -0.33333333  0.20000000  0.06666667       0.014
  -0.26666667  0.20000000  0.06666667       0.014
  -0.20000000  0.20000000  0.06666667       0.014
  -0.13333333  0.20000000  0.06666667       0.007
   0.33333333  0.26666667  0.06666667       0.007
   0.40000000  0.26666667  0.06666667       0.014
   0.46666667  0.26666667  0.06666667       0.014
  -0.46666667  0.26666667  0.06666667       0.014
  -0.40000000  0.26666667  0.06666667       0.014
  -0.33333333  0.26666667  0.06666667       0.014
  -0.26666667  0.26666667  0.06666667       0.014
  -0.20000000  0.26666667  0.06666667       0.007
   0.40000000  0.33333333  0.06666667       0.007
   0.46666667  0.33333333  0.06666667       0.014
  -0.46666667  0.33333333  0.06666667       0.014
  -0.40000000  0.33333333  0.06666667       0.014
  -0.33333333  0.33333333  0.06666667       0.014
  -0.26666667  0.33333333  0.06666667       0.007
   0.46666667  0.40000000  0.06666667       0.007
  -0.46666667  0.40000000  0.06666667       0.014
  -0.40000000  0.40000000  0.06666667       0.014
  -0.33333333  0.40000000  0.06666667       0.007
  -0.46666667  0.46666667  0.06666667       0.007
  -0.40000000  0.46666667  0.06666667       0.007
   0.40000000  0.26666667  0.13333333       0.007
   0.46666667  0.26666667  0.13333333       0.014
  -0.46666667  0.26666667  0.13333333       0.014
  -0.40000000  0.26666667  0.13333333       0.014
   0.46666667  0.33333333  0.13333333       0.007
  -0.46666667  0.33333333  0.13333333       0.014
  -0.40000000  0.33333333  0.13333333       0.014
  -0.33333333  0.33333333  0.13333333       0.014
  -0.26666667  0.33333333  0.13333333       0.014
  -0.20000000  0.33333333  0.13333333       0.007
  -0.46666667  0.40000000  0.13333333       0.007
  -0.40000000  0.40000000  0.13333333       0.014
  -0.33333333  0.40000000  0.13333333       0.014
  -0.26666667  0.40000000  0.13333333       0.007
  -0.40000000  0.46666667  0.13333333       0.007
  -0.33333333  0.46666667  0.13333333       0.007
  -0.40000000  0.40000000  0.20000000       0.007
  -0.33333333  0.40000000  0.20000000       0.014
  -0.33333333  0.46666667  0.20000000       0.007
  -0.26666667  0.46666667  0.20000000       0.007
 
 position of ions in fractional coordinates (direct lattice) 
   0.87500000  0.87500000  0.87500000
   0.12500000  0.12500000  0.12500000
 
 position of ions in cartesian coordinates  (Angst):
   3.88916850  2.75005850  6.73623650
   0.55559550  0.39286550  0.96231950
 


--------------------------------------------------------------------------------------------------------


 k-point   1 :   0.0000 0.0000 0.0000  plane waves:     965
 k-point   2 :   0.0667-0.0000 0.0000  plane waves:     995
 k-point   3 :   0.1333-0.0000 0.0000  plane waves:    1001
 k-point   4 :   0.2000 0.0000 0.0000  plane waves:    1001
 k-point   5 :   0.2667-0.0000 0.0000  plane waves:    1016
 k-point   6 :   0.3333-0.0000 0.0000  plane waves:    1008
 k-point   7 :   0.4000-0.0000 0.0000  plane waves:    1023
 k-point   8 :   0.4667-0.0000 0.0000  plane waves:    1026
 k-point   9 :   0.0667 0.0667 0.0000  plane waves:    1006
 k-point  10 :   0.1333 0.0667 0.0000  plane waves:     997
 k-point  11 :   0.2000 0.0667 0.0000  plane waves:    1005
 k-point  12 :   0.2667 0.0667 0.0000  plane waves:    1012
 k-point  13 :   0.3333 0.0667 0.0000  plane waves:    1027
 k-point  14 :   0.4000 0.0667 0.0000  plane waves:    1025
 k-point  15 :   0.4667 0.0667 0.0000  plane waves:    1025
 k-point  16 :  -0.4667 0.0667 0.0000  plane waves:    1020
 k-point  17 :  -0.4000 0.0667 0.0000  plane waves:    1022
 k-point  18 :  -0.3333 0.0667 0.0000  plane waves:    1025
 k-point  19 :  -0.2667 0.0667 0.0000  plane waves:    1018
 k-point  20 :  -0.2000 0.0667 0.0000  plane waves:    1013
 k-point  21 :  -0.1333 0.0667 0.0000  plane waves:    1004
 k-point  22 :  -0.0667 0.0667 0.0000  plane waves:    1003
 k-point  23 :   0.1333 0.1333 0.0000  plane waves:    1002
 k-point  24 :   0.2000 0.1333 0.0000  plane waves:    1010
 k-point  25 :   0.2667 0.1333 0.0000  plane waves:    1016
 k-point  26 :   0.3333 0.1333 0.0000  plane waves:    1022
 k-point  27 :   0.4000 0.1333 0.0000  plane waves:    1020
 k-point  28 :   0.4667 0.1333 0.0000  plane waves:    1024
 k-point  29 :  -0.4667 0.1333 0.0000  plane waves:    1026
 k-point  30 :  -0.4000 0.1333 0.0000  plane waves:    1021
 k-point  31 :  -0.3333 0.1333 0.0000  plane waves:    1024
 k-point  32 :  -0.2667 0.1333 0.0000  plane waves:    1024
 k-point  33 :  -0.2000 0.1333 0.0000  plane waves:    1019
 k-point  34 :  -0.1333 0.1333 0.0000  plane waves:    1007
 k-point  35 :   0.2000 0.2000 0.0000  plane waves:    1010
 k-point  36 :   0.2667 0.2000 0.0000  plane waves:    1015
 k-point  37 :   0.3333 0.2000 0.0000  plane waves:    1021
 k-point  38 :   0.4000 0.2000 0.0000  plane waves:    1032
 k-point  39 :   0.4667 0.2000 0.0000  plane waves:    1025
 k-point  40 :  -0.4667 0.2000 0.0000  plane waves:    1027
 k-point  41 :  -0.4000 0.2000 0.0000  plane waves:    1028
 k-point  42 :  -0.3333 0.2000 0.0000  plane waves:    1028
 k-point  43 :  -0.2667 0.2000 0.0000  plane waves:    1025
 k-point  44 :  -0.2000 0.2000 0.0000  plane waves:    1015
 k-point  45 :   0.2667 0.2667 0.0000  plane waves:    1022
 k-point  46 :   0.3333 0.2667 0.0000  plane waves:    1027
 k-point  47 :   0.4000 0.2667 0.0000  plane waves:    1029
 k-point  48 :   0.4667 0.2667 0.0000  plane waves:    1029
 k-point  49 :  -0.4667 0.2667 0.0000  plane waves:    1026
 k-point  50 :  -0.4000 0.2667 0.0000  plane waves:    1024
 k-point  51 :  -0.3333 0.2667 0.0000  plane waves:    1017
 k-point  52 :  -0.2667 0.2667 0.0000  plane waves:    1025
 k-point  53 :   0.3333 0.3333 0.0000  plane waves:    1030
 k-point  54 :   0.4000 0.3333 0.0000  plane waves:    1026
 k-point  55 :   0.4667 0.3333 0.0000  plane waves:    1028
 k-point  56 :  -0.4667 0.3333 0.0000  plane waves:    1027
 k-point  57 :  -0.4000 0.3333 0.0000  plane waves:    1023
 k-point  58 :  -0.3333 0.3333 0.0000  plane waves:    1031
 k-point  59 :   0.4000 0.4000 0.0000  plane waves:    1030
 k-point  60 :   0.4667 0.4000 0.0000  plane waves:    1022
 k-point  61 :  -0.4667 0.4000 0.0000  plane waves:    1026
 k-point  62 :  -0.4000 0.4000 0.0000  plane waves:    1021
 k-point  63 :   0.4667 0.4667 0.0000  plane waves:    1018
 k-point  64 :  -0.4667 0.4667 0.0000  plane waves:    1019
 k-point  65 :   0.2000 0.1333 0.0667  plane waves:    1009
 k-point  66 :   0.2667 0.1333 0.0667  plane waves:    1012
 k-point  67 :   0.3333 0.1333 0.0667  plane waves:    1022
 k-point  68 :   0.4000 0.1333 0.0667  plane waves:    1029
 k-point  69 :   0.4667 0.1333 0.0667  plane waves:    1024
 k-point  70 :  -0.4667 0.1333 0.0667  plane waves:    1023
 k-point  71 :   0.2667 0.2000 0.0667  plane waves:    1011
 k-point  72 :   0.3333 0.2000 0.0667  plane waves:    1019
 k-point  73 :   0.4000 0.2000 0.0667  plane waves:    1022
 k-point  74 :   0.4667 0.2000 0.0667  plane waves:    1023
 k-point  75 :  -0.4667 0.2000 0.0667  plane waves:    1024
 k-point  76 :  -0.4000 0.2000 0.0667  plane waves:    1029
 k-point  77 :  -0.3333 0.2000 0.0667  plane waves:    1029
 k-point  78 :  -0.2667 0.2000 0.0667  plane waves:    1024
 k-point  79 :  -0.2000 0.2000 0.0667  plane waves:    1023
 k-point  80 :  -0.1333 0.2000 0.0667  plane waves:    1021
 k-point  81 :   0.3333 0.2667 0.0667  plane waves:    1025
 k-point  82 :   0.4000 0.2667 0.0667  plane waves:    1026
 k-point  83 :   0.4667 0.2667 0.0667  plane waves:    1030
 k-point  84 :  -0.4667 0.2667 0.0667  plane waves:    1032
 k-point  85 :  -0.4000 0.2667 0.0667  plane waves:    1029
 k-point  86 :  -0.3333 0.2667 0.0667  plane waves:    1025
 k-point  87 :  -0.2667 0.2667 0.0667  plane waves:    1027
 k-point  88 :  -0.2000 0.2667 0.0667  plane waves:    1023
 k-point  89 :   0.4000 0.3333 0.0667  plane waves:    1027
 k-point  90 :   0.4667 0.3333 0.0667  plane waves:    1029
 k-point  91 :  -0.4667 0.3333 0.0667  plane waves:    1026
 k-point  92 :  -0.4000 0.3333 0.0667  plane waves:    1029
 k-point  93 :  -0.3333 0.3333 0.0667  plane waves:    1029
 k-point  94 :  -0.2667 0.3333 0.0667  plane waves:    1024
 k-point  95 :   0.4667 0.4000 0.0667  plane waves:    1025
 k-point  96 :  -0.4667 0.4000 0.0667  plane waves:    1027
 k-point  97 :  -0.4000 0.4000 0.0667  plane waves:    1025
 k-point  98 :  -0.3333 0.4000 0.0667  plane waves:    1023
 k-point  99 :  -0.4667 0.4667 0.0667  plane waves:    1023
 k-point 100 :  -0.4000 0.4667 0.0667  plane waves:    1020
 k-point 101 :   0.4000 0.2667 0.1333  plane waves:    1028
 k-point 102 :   0.4667 0.2667 0.1333  plane waves:    1029
 k-point 103 :  -0.4667 0.2667 0.1333  plane waves:    1029
 k-point 104 :  -0.4000 0.2667 0.1333  plane waves:    1030
 k-point 105 :   0.4667 0.3333 0.1333  plane waves:    1030
 k-point 106 :  -0.4667 0.3333 0.1333  plane waves:    1033
 k-point 107 :  -0.4000 0.3333 0.1333  plane waves:    1035
 k-point 108 :  -0.3333 0.3333 0.1333  plane waves:    1026
 k-point 109 :  -0.2667 0.3333 0.1333  plane waves:    1030
 k-point 110 :  -0.2000 0.3333 0.1333  plane waves:    1029
 k-point 111 :  -0.4667 0.4000 0.1333  plane waves:    1026
 k-point 112 :  -0.4000 0.4000 0.1333  plane waves:    1026
 k-point 113 :  -0.3333 0.4000 0.1333  plane waves:    1027
 k-point 114 :  -0.2667 0.4000 0.1333  plane waves:    1025
 k-point 115 :  -0.4000 0.4667 0.1333  plane waves:    1025
 k-point 116 :  -0.3333 0.4667 0.1333  plane waves:    1026
 k-point 117 :  -0.4000 0.4000 0.2000  plane waves:    1031
 k-point 118 :  -0.3333 0.4000 0.2000  plane waves:    1030
 k-point 119 :  -0.3333 0.4667 0.2000  plane waves:    1032
 k-point 120 :  -0.2667 0.4667 0.2000  plane waves:    1039

 maximum and minimum number of plane-waves per node :      1039      965

 maximum number of plane-waves:      1039
 maximum index in each direction: 
   IXMAX=    7   IYMAX=    6   IZMAX=    7
   IXMIN=   -7   IYMIN=   -7   IZMIN=   -7


 serial   3D FFT for wavefunctions
 parallel 3D FFT for charge:
    minimum data exchange during FFTs selected (reduces bandwidth)


 total amount of memory used by VASP MPI-rank0    51740. kBytes
=======================================================================

   base      :      30000. kBytes
   nonl-proj :       8020. kBytes
   fftplans  :       6611. kBytes
   grid      :       3048. kBytes
   one-center:          6. kBytes
   wavefun   :       4055. kBytes
 
     INWAV:  cpu time    0.0000: real time    0.0006
 Broyden mixing: mesh for mixing (old mesh)
   NGX = 13   NGY = 13   NGZ = 13
  (NGX  = 56   NGY  = 56   NGZ  = 56)
  gives a total of   2197 points

 initial charge density was supplied:
 charge density of overlapping atoms calculated
 number of electron       8.0000000 magnetization 
 keeping initial charge density in first step


--------------------------------------------------------------------------------------------------------


 Maximum index for augmentation-charges        35370 (set IRDMAX)


--------------------------------------------------------------------------------------------------------


 First call to EWALD:  gamma=   0.517
 Maximum number of real-space cells 3x 3x 3
 Maximum number of reciprocal cells 3x 3x 3

    FEWALD:  cpu time    0.0030: real time    0.0035


--------------------------------------- Iteration      1(   1)  ---------------------------------------


    POTLOK:  cpu time    0.0490: real time    0.0529
    SETDIJ:  cpu time    0.1930: real time    0.1925
     EDDAV:  cpu time    1.4658: real time    1.4670
       DOS:  cpu time    0.0010: real time    0.0020
    --------------------------------------------
      LOOP:  cpu time    1.7087: real time    1.7147

 eigenvalue-minimisations  :  1920
 total energy-change (2. order) : 0.4781204E+01  (-0.3192187E+03)
 number of electron       8.0000000 magnetization 
 augmentation part        8.0000000 magnetization 

 Free energy of the ion-electron system (eV)
  ---------------------------------------------------
  alpha Z        PSCENC =         3.33880741
  Ewald energy   TEWEN  =      -227.98820643
  -Hartree energ DENC   =       -11.11484531
  -exchange      EXHF   =         0.00000000
  -V(xc)+E(xc)   XCENC  =       -18.63153726
  PAW double counting   =       176.24759923     -141.06103558
  entropy T*S    EENTRO =        -0.00102435
  eigenvalues    EBANDS =        17.85893308
  atomic energy  EATOM  =       206.13251344
  Solvation  Ediel_sol  =         0.00000000
  ---------------------------------------------------
  free energy    TOTEN  =         4.78120422 eV

  energy without entropy =        4.78222858  energy(sigma->0) =        4.78171640


--------------------------------------------------------------------------------------------------------




--------------------------------------- Iteration      1(   2)  ---------------------------------------


     EDDAV:  cpu time    2.0827: real time    2.1016
       DOS:  cpu time    0.0020: real time    0.0016
    --------------------------------------------
      LOOP:  cpu time    2.0847: real time    2.1032

 eigenvalue-minimisations  :  2976
 total energy-change (2. order) :-0.1563074E+02  (-0.1529286E+02)
 number of electron       8.0000000 magnetization 
 augmentation part        8.0000000 magnetization 

 Free energy of the ion-electron system (eV)
  ---------------------------------------------------
  alpha Z        PSCENC =         3.33880741
  Ewald energy   TEWEN  =      -227.98820643
  -Hartree energ DENC   =       -11.11484531
  -exchange      EXHF   =         0.00000000
  -V(xc)+E(xc)   XCENC  =       -18.63153726
  PAW double counting   =       176.24759923     -141.06103558
  entropy T*S    EENTRO =        -0.00000000
  eigenvalues    EBANDS =         2.22716652
  atomic energy  EATOM  =       206.13251344
  Solvation  Ediel_sol  =         0.00000000
  ---------------------------------------------------
  free energy    TOTEN  =       -10.84953798 eV

  energy without entropy =      -10.84953798  energy(sigma->0) =      -10.84953798


--------------------------------------------------------------------------------------------------------




--------------------------------------- Iteration      1(   3)  ---------------------------------------


     EDDAV:  cpu time    1.8457: real time    1.8646
       DOS:  cpu time    0.0020: real time    0.0015
    --------------------------------------------
      LOOP:  cpu time    1.8477: real time    1.8660

 eigenvalue-minimisations  :  2560
 total energy-change (2. order) :-0.1733053E+00  (-0.1733053E+00)
 number of electron       8.0000000 magnetization 
 augmentation part        8.0000000 magnetization 

 Free energy of the ion-electron system (eV)
  ---------------------------------------------------
  alpha Z        PSCENC =         3.33880741
  Ewald energy   TEWEN  =      -227.98820643
  -Hartree energ DENC   =       -11.11484531
  -exchange      EXHF   =         0.00000000
  -V(xc)+E(xc)   XCENC  =       -18.63153726
  PAW double counting   =       176.24759923     -141.06103558
  entropy T*S    EENTRO =        -0.00000000
  eigenvalues    EBANDS =         2.05386122
  atomic energy  EATOM  =       206.13251344
  Solvation  Ediel_sol  =         0.00000000
  ---------------------------------------------------
  free energy    TOTEN  =       -11.02284329 eV

  energy without entropy =      -11.02284329  energy(sigma->0) =      -11.02284329


--------------------------------------------------------------------------------------------------------




--------------------------------------- Iteration      1(   4)  ---------------------------------------


     EDDAV:  cpu time    2.1077: real time    2.1254
       DOS:  cpu time    0.0010: real time    0.0017
    --------------------------------------------
      LOOP:  cpu time    2.1097: real time    2.1271

 eigenvalue-minimisations  :  3008
 total energy-change (2. order) :-0.7279265E-03  (-0.7279265E-03)
 number of electron       8.0000000 magnetization 
 augmentation part        8.0000000 magnetization 

 Free energy of the ion-electron system (eV)
  ---------------------------------------------------
  alpha Z        PSCENC =         3.33880741
  Ewald energy   TEWEN  =      -227.98820643
  -Hartree energ DENC   =       -11.11484531
  -exchange      EXHF   =         0.00000000
  -V(xc)+E(xc)   XCENC  =       -18.63153726
  PAW double counting   =       176.24759923     -141.06103558
  entropy T*S    EENTRO =        -0.00000000
  eigenvalues    EBANDS =         2.05313329
  atomic energy  EATOM  =       206.13251344
  Solvation  Ediel_sol  =         0.00000000
  ---------------------------------------------------
  free energy    TOTEN  =       -11.02357121 eV

  energy without entropy =      -11.02357121  energy(sigma->0) =      -11.02357121


--------------------------------------------------------------------------------------------------------




--------------------------------------- Iteration      1(   5)  ---------------------------------------


     EDDAV:  cpu time    1.8967: real time    1.9149
       DOS:  cpu time    0.0010: real time    0.0015
    CHARGE:  cpu time    0.1340: real time    0.1351
    MIXING:  cpu time    0.0030: real time    0.0022
    --------------------------------------------
      LOOP:  cpu time    2.0337: real time    2.0536

 eigenvalue-minimisations  :  2656
 total energy-change (2. order) :-0.7281234E-06  (-0.7280348E-06)
 number of electron       8.0000000 magnetization 
 augmentation part       -0.4703724 magnetization 

 Broyden mixing:
  rms(total) = 0.48343E+00    rms(broyden)= 0.48343E+00
  rms(prec ) = 0.94554E+00
  weight for this iteration     100.00

 Free energy of the ion-electron system (eV)
  ---------------------------------------------------
  alpha Z        PSCENC =         3.33880741
  Ewald energy   TEWEN  =      -227.98820643
  -Hartree energ DENC   =       -11.11484531
  -exchange      EXHF   =         0.00000000
  -V(xc)+E(xc)   XCENC  =       -18.63153726
  PAW double counting   =       176.24759923     -141.06103558
  entropy T*S    EENTRO =        -0.00000000
  eigenvalues    EBANDS =         2.05313256
  atomic energy  EATOM  =       206.13251344
  Solvation  Ediel_sol  =         0.00000000
  ---------------------------------------------------
  free energy    TOTEN  =       -11.02357194 eV

  energy without entropy =      -11.02357194  energy(sigma->0) =      -11.02357194


--------------------------------------------------------------------------------------------------------




--------------------------------------- Iteration      1(   6)  ---------------------------------------


    POTLOK:  cpu time    0.0510: real time    0.0670
    SETDIJ:  cpu time    0.1830: real time    0.1842
     EDDAV:  cpu time    1.7097: real time    1.7112
       DOS:  cpu time    0.0010: real time    0.0016
    CHARGE:  cpu time    0.1240: real time    0.1239
    MIXING:  cpu time    0.0020: real time    0.0021
    --------------------------------------------
      LOOP:  cpu time    2.0707: real time    2.0901

 eigenvalue-minimisations  :  2368
 total energy-change (2. order) : 0.1215457E+00  (-0.8022553E-02)
 number of electron       8.0000000 magnetization 
 augmentation part       -0.4646076 magnetization 

 Broyden mixing:
  rms(total) = 0.29561E+00    rms(broyden)= 0.29561E+00
  rms(prec ) = 0.56220E+00
  weight for this iteration     100.00

 eigenvalues of (default mixing * dielectric matrix)
  average eigenvalue GAMMA=   2.5643
  2.5643

 Free energy of the ion-electron system (eV)
  ---------------------------------------------------
  alpha Z        PSCENC =         3.33880741
  Ewald energy   TEWEN  =      -227.98820643
  -Hartree energ DENC   =       -12.60043050
  -exchange      EXHF   =         0.00000000
  -V(xc)+E(xc)   XCENC  =       -18.39734712
  PAW double counting   =       376.69595407     -341.61718553
  entropy T*S    EENTRO =        -0.00000000
  eigenvalues    EBANDS =         3.53386842
  atomic energy  EATOM  =       206.13251344
  Solvation  Ediel_sol  =         0.00000000
  ---------------------------------------------------
  free energy    TOTEN  =       -10.90202624 eV

  energy without entropy =      -10.90202624  energy(sigma->0) =      -10.90202624


--------------------------------------------------------------------------------------------------------




--------------------------------------- Iteration      1(   7)  ---------------------------------------


    POTLOK:  cpu time    0.0500: real time    0.0664
    SETDIJ:  cpu time    0.1830: real time    0.1827
     EDDAV:  cpu time    1.7767: real time    1.7794
       DOS:  cpu time    0.0020: real time    0.0017
    CHARGE:  cpu time    0.1240: real time    0.1254
    MIXING:  cpu time    0.0020: real time    0.0021
    --------------------------------------------
      LOOP:  cpu time    2.1387: real time    2.1577

 eigenvalue-minimisations  :  2464
 total energy-change (2. order) : 0.5559319E-01  (-0.1522286E-01)
 number of electron       8.0000000 magnetization 
 augmentation part       -0.4576140 magnetization 

 Broyden mixing:
  rms(total) = 0.18402E-01    rms(broyden)= 0.18401E-01
  rms(prec ) = 0.41191E-01
  weight for this iteration     100.00

 eigenvalues of (default mixing * dielectric matrix)
  average eigenvalue GAMMA=   2.0652
  1.7521  2.3782

 Free energy of the ion-electron system (eV)
  ---------------------------------------------------
  alpha Z        PSCENC =         3.33880741
  Ewald energy   TEWEN  =      -227.98820643
  -Hartree energ DENC   =       -15.02692641
  -exchange      EXHF   =         0.00000000
  -V(xc)+E(xc)   XCENC  =       -18.00632623
  PAW double counting   =       854.22294934     -819.28341127
  entropy T*S    EENTRO =        -0.00000000
  eigenvalues    EBANDS =         5.76416710
  atomic energy  EATOM  =       206.13251344
  Solvation  Ediel_sol  =         0.00000000
  ---------------------------------------------------
  free energy    TOTEN  =       -10.84643305 eV

  energy without entropy =      -10.84643305  energy(sigma->0) =      -10.84643305


--------------------------------------------------------------------------------------------------------




--------------------------------------- Iteration      1(   8)  ---------------------------------------


    POTLOK:  cpu time    0.0510: real time    0.0666
    SETDIJ:  cpu time    0.1830: real time    0.1831
     EDDAV:  cpu time    1.6138: real time    1.6163
       DOS:  cpu time    0.0020: real time    0.0017
    CHARGE:  cpu time    0.1240: real time    0.1255
    MIXING:  cpu time    0.0030: real time    0.0022
    --------------------------------------------
      LOOP:  cpu time    1.9757: real time    1.9953

 eigenvalue-minimisations  :  2184
 total energy-change (2. order) :-0.1070048E-02  (-0.3885669E-03)
 number of electron       8.0000000 magnetization 
 augmentation part       -0.4585741 magnetization 

 Broyden mixing:
  rms(total) = 0.73716E-02    rms(broyden)= 0.73716E-02
  rms(prec ) = 0.13190E-01
  weight for this iteration     100.00

 eigenvalues of (default mixing * dielectric matrix)
  average eigenvalue GAMMA=   2.2642
  2.8750  1.9588  1.9588

 Free energy of the ion-electron system (eV)
  ---------------------------------------------------
  alpha Z        PSCENC =         3.33880741
  Ewald energy   TEWEN  =      -227.98820643
  -Hartree energ DENC   =       -14.95531586
  -exchange      EXHF   =         0.00000000
  -V(xc)+E(xc)   XCENC  =       -18.00636345
  PAW double counting   =       863.28431999     -828.31805203
  entropy T*S    EENTRO =        -0.00000000
  eigenvalues    EBANDS =         5.66479383
  atomic energy  EATOM  =       206.13251344
  Solvation  Ediel_sol  =         0.00000000
  ---------------------------------------------------
  free energy    TOTEN  =       -10.84750309 eV

  energy without entropy =      -10.84750309  energy(sigma->0) =      -10.84750309


--------------------------------------------------------------------------------------------------------




--------------------------------------- Iteration      1(   9)  ---------------------------------------


    POTLOK:  cpu time    0.0530: real time    0.0665
    SETDIJ:  cpu time    0.1820: real time    0.1820
     EDDAV:  cpu time    2.0087: real time    2.0104
       DOS:  cpu time    0.0010: real time    0.0016
    CHARGE:  cpu time    0.1240: real time    0.1246
    MIXING:  cpu time    0.0020: real time    0.0021
    --------------------------------------------
      LOOP:  cpu time    2.3716: real time    2.3872

 eigenvalue-minimisations  :  2872
 total energy-change (2. order) :-0.1954306E-03  (-0.1953438E-04)
 number of electron       8.0000000 magnetization 
 augmentation part       -0.4586917 magnetization 

 Broyden mixing:
  rms(total) = 0.57054E-02    rms(broyden)= 0.57054E-02
  rms(prec ) = 0.65699E-02
  weight for this iteration     100.00

 eigenvalues of (default mixing * dielectric matrix)
  average eigenvalue GAMMA=   2.1007
  0.9262  2.5664  2.4552  2.4552

 Free energy of the ion-electron system (eV)
  ---------------------------------------------------
  alpha Z        PSCENC =         3.33880741
  Ewald energy   TEWEN  =      -227.98820643
  -Hartree energ DENC   =       -14.99880810
  -exchange      EXHF   =         0.00000000
  -V(xc)+E(xc)   XCENC  =       -17.99784111
  PAW double counting   =       865.65054025     -830.68186850
  entropy T*S    EENTRO =        -0.00000000
  eigenvalues    EBANDS =         5.69716451
  atomic energy  EATOM  =       206.13251344
  Solvation  Ediel_sol  =         0.00000000
  ---------------------------------------------------
  free energy    TOTEN  =       -10.84769852 eV

  energy without entropy =      -10.84769852  energy(sigma->0) =      -10.84769852


--------------------------------------------------------------------------------------------------------




--------------------------------------- Iteration      1(  10)  ---------------------------------------


    POTLOK:  cpu time    0.0500: real time    0.0665
    SETDIJ:  cpu time    0.1830: real time    0.1825
     EDDAV:  cpu time    1.6527: real time    1.6545
       DOS:  cpu time    0.0010: real time    0.0017
    CHARGE:  cpu time    0.1260: real time    0.1255
    MIXING:  cpu time    0.0020: real time    0.0022
    --------------------------------------------
      LOOP:  cpu time    2.0137: real time    2.0329

 eigenvalue-minimisations  :  2248
 total energy-change (2. order) :-0.2506912E-04  (-0.2949799E-05)
 number of electron       8.0000000 magnetization 
 augmentation part       -0.4586682 magnetization 

 Broyden mixing:
  rms(total) = 0.94937E-03    rms(broyden)= 0.94937E-03
  rms(prec ) = 0.10450E-02
  weight for this iteration     100.00

 eigenvalues of (default mixing * dielectric matrix)
  average eigenvalue GAMMA=   1.9091
  2.9034  2.4352  2.0744  1.0663  1.0663

 Free energy of the ion-electron system (eV)
  ---------------------------------------------------
  alpha Z        PSCENC =         3.33880741
  Ewald energy   TEWEN  =      -227.98820643
  -Hartree energ DENC   =       -15.00636339
  -exchange      EXHF   =         0.00000000
  -V(xc)+E(xc)   XCENC  =       -17.99758050
  PAW double counting   =       854.15307632     -819.18432010
  entropy T*S    EENTRO =        -0.00000000
  eigenvalues    EBANDS =         5.70434965
  atomic energy  EATOM  =       206.13251344
  Solvation  Ediel_sol  =         0.00000000
  ---------------------------------------------------
  free energy    TOTEN  =       -10.84772359 eV

  energy without entropy =      -10.84772359  energy(sigma->0) =      -10.84772359


--------------------------------------------------------------------------------------------------------




--------------------------------------- Iteration      1(  11)  ---------------------------------------


    POTLOK:  cpu time    0.0500: real time    0.0661
    SETDIJ:  cpu time    0.1820: real time    0.1820
     EDDAV:  cpu time    1.9407: real time    1.9433
       DOS:  cpu time    0.0010: real time    0.0017
    --------------------------------------------
      LOOP:  cpu time    2.1747: real time    2.1931

 eigenvalue-minimisations  :  2736
 total energy-change (2. order) : 0.3066862E-06  (-0.5783068E-07)
 number of electron       8.0000000 magnetization 
 augmentation part       -0.4586682 magnetization 

 Free energy of the ion-electron system (eV)
  ---------------------------------------------------
  alpha Z        PSCENC =         3.33880741
  Ewald energy   TEWEN  =      -227.98820643
  -Hartree energ DENC   =       -15.00499093
  -exchange      EXHF   =         0.00000000
  -V(xc)+E(xc)   XCENC  =       -17.99762843
  PAW double counting   =       855.52009365     -820.55087236
  entropy T*S    EENTRO =        -0.00000000
  eigenvalues    EBANDS =         5.70256037
  atomic energy  EATOM  =       206.13251344
  Solvation  Ediel_sol  =         0.00000000
  ---------------------------------------------------
  free energy    TOTEN  =       -10.84772329 eV

  energy without entropy =      -10.84772329  energy(sigma->0) =      -10.84772329


--------------------------------------------------------------------------------------------------------




 average (electrostatic) potential at core
  the test charge radii are     0.9892
  (the norm of the test charge is              1.0000)
       1 -83.3305       2 -83.3305
 
 
 
 E-fermi :   5.9941     XC(G=0):  -9.3814     alpha+bet :-11.8943

 Fermi energy:         5.9941121017

 k-point     1 :       0.0000    0.0000    0.0000
  band No.  band energies     occupation 
      1      -6.1550      2.00000
      2       5.7530      2.00000
      3       5.7530      2.00000
      4       5.7530      2.00000
      5       8.3161      0.00000
      6       8.3161      0.00000
      7       8.3161      0.00000
      8       9.0442      0.00000

 k-point     2 :       0.0667   -0.0000    0.0000
  band No.  band energies     occupation 
      1      -6.0971      2.00000
      2       5.1611      2.00000
      3       5.6586      2.00000
      4       5.6586      2.00000
      5       8.3699      0.00000
      6       8.4549      0.00000
      7       8.4549      0.00000
      8       9.4839      0.00000

 k-point     3 :       0.1333   -0.0000    0.0000
  band No.  band energies     occupation 
      1      -5.9244      2.00000
      2       4.0045      2.00000
      3       5.4353      2.00000
      4       5.4353      2.00000
      5       8.2091      0.00000
      6       8.7822      0.00000
      7       8.7822      0.00000
      8      10.5524      0.00000

 k-point     4 :       0.2000    0.0000    0.0000
  band No.  band energies     occupation 
      1      -5.6408      2.00000
      2       2.7557      2.00000
      3       5.1784      2.00000
      4       5.1784      2.00000
      5       7.9525      0.00000
      6       9.1115      0.00000
      7       9.1115      0.00000
      8      11.7483      0.00000

 k-point     5 :       0.2667   -0.0000    0.0000
  band No.  band energies     occupation 
      1      -5.2553      2.00000
      2       1.5480      2.00000
      3       4.9448      2.00000
      4       4.9448      2.00000
      5       7.7006      0.00000
      6       9.2764      0.00000
      7       9.2764      0.00000
      8      12.8866      0.00000

 k-point     6 :       0.3333   -0.0000    0.0000
  band No.  band energies     occupation 
      1      -4.7875      2.00000
      2       0.4437      2.00000
      3       4.7599      2.00000
      4       4.7599      2.00000
      5       7.4940      0.00000
      6       9.2599      0.00000
      7       9.2599      0.00000
      8      13.5952      0.00000

 k-point     7 :       0.4000   -0.0000    0.0000
  band No.  band energies     occupation 
      1      -4.2886      2.00000
      2      -0.4870      2.00000
      3       4.6340      2.00000
      4       4.6340      2.00000
      5       7.3505      0.00000
      6       9.1715      0.00000
      7       9.1715      0.00000
      8      13.5829      0.00000

 k-point     8 :       0.4667   -0.0000    0.0000
  band No.  band energies     occupation 
      1      -3.9033      2.00000
      2      -1.0902      2.00000
      3       4.5706      2.00000
      4       4.5706      2.00000
      5       7.2774      0.00000
      6       9.1063      0.00000
      7       9.1063      0.00000
      8      13.4872      0.00000

 k-point     9 :       0.0667    0.0667    0.0000
  band No.  band energies     occupation 
      1      -6.0778      2.00000
      2       5.2781      2.00000
      3       5.4619      2.00000
      4       5.4619      2.00000
      5       8.1352      0.00000
      6       8.7022      0.00000
      7       8.7022      0.00000
      8       9.4954      0.00000

 k-point    10 :       0.1333    0.0667    0.0000
  band No.  band energies     occupation 
      1      -5.9431      2.00000
      2       4.3470      2.00000
      3       5.1853      2.00000
      4       5.3575      2.00000
      5       8.1342      0.00000
      6       8.7927      0.00000
      7       9.1016      0.00000
      8      10.2571      0.00000

 k-point    11 :       0.2000    0.0667    0.0000
  band No.  band energies     occupation 
      1      -5.6960      2.00000
      2       3.1501      2.00000
      3       4.9117      2.00000
      4       5.1406      2.00000
      5       8.2284      0.00000
      6       8.7843      0.00000
      7       9.4882      0.00000
      8      11.0966      0.00000

 k-point    12 :       0.2667    0.0667    0.0000
  band No.  band energies     occupation 
      1      -5.3433      2.00000
      2       1.9438      2.00000
      3       4.6851      2.00000
      4       4.8678      2.00000
      5       8.1012      0.00000
      6       8.9569      0.00000
      7       9.6981      0.00000
      8      11.5380      0.00000

 k-point    13 :       0.3333    0.0667    0.0000
  band No.  band energies     occupation 
      1      -4.8997      2.00000
      2       0.8117      2.00000
      3       4.5249      2.00000
      4       4.6059      2.00000
      5       7.9125      0.00000
      6       9.0409      0.00000
      7       9.6816      0.00000
      8      12.0999      0.00000

 k-point    14 :       0.4000    0.0667    0.0000
  band No.  band energies     occupation 
      1      -4.4017      2.00000
      2      -0.1805      2.00000
      3       4.3856      2.00000
      4       4.4383      2.00000
      5       7.7587      0.00000
      6       9.0219      0.00000
      7       9.5398      0.00000
      8      12.9089      0.00000

 k-point    15 :       0.4667    0.0667    0.0000
  band No.  band energies     occupation 
      1      -3.9518      2.00000
      2      -0.9166      2.00000
      3       4.2215      2.00000
      4       4.4261      2.00000
      5       7.6655      0.00000
      6       9.0072      0.00000
      7       9.3860      0.00000
      8      13.5506      0.00000

 k-point    16 :      -0.4667    0.0667    0.0000
  band No.  band energies     occupation 
      1      -3.7975      2.00000
      2      -1.1425      2.00000
      3       4.1221      2.00000
      4       4.4854      2.00000
      5       7.6414      0.00000
      6       9.0552      0.00000
      7       9.2807      0.00000
      8      13.6841      0.00000

 k-point    17 :      -0.4000    0.0667    0.0000
  band No.  band energies     occupation 
      1      -4.0851      2.00000
      2      -0.7108      2.00000
      3       4.0938      2.00000
      4       4.6108      2.00000
      5       7.6881      0.00000
      6       9.1760      0.00000
      7       9.2405      0.00000
      8      13.6619      0.00000

 k-point    18 :      -0.3333    0.0667    0.0000
  band No.  band energies     occupation 
      1      -4.5703      2.00000
      2       0.1313      2.00000
      3       4.1415      2.00000
      4       4.7945      2.00000
      5       7.8039      0.00000
      6       9.2410      0.00000
      7       9.3396      0.00000
      8      13.2720      0.00000

 k-point    19 :      -0.2667    0.0667    0.0000
  band No.  band energies     occupation 
      1      -5.0566      2.00000
      2       1.1782      2.00000
      3       4.2681      2.00000
      4       5.0249      2.00000
      5       7.9821      0.00000
      6       9.2064      0.00000
      7       9.4605      0.00000
      8      12.5253      0.00000

 k-point    20 :      -0.2000    0.0667    0.0000
  band No.  band energies     occupation 
      1      -5.4724      2.00000
      2       2.3385      2.00000
      3       4.4747      2.00000
      4       5.2820      2.00000
      5       8.2078      0.00000
      6       9.0323      0.00000
      7       9.3881      0.00000
      8      11.8066      0.00000

 k-point    21 :      -0.1333    0.0667    0.0000
  band No.  band energies     occupation 
      1      -5.7909      2.00000
      2       3.5372      2.00000
      3       4.7628      2.00000
      4       5.5256      2.00000
      5       8.4450      0.00000
      6       8.7289      0.00000
      7       9.0459      0.00000
      8      11.0162      0.00000

 k-point    22 :      -0.0667    0.0667    0.0000
  band No.  band energies     occupation 
      1      -6.0008      2.00000
      2       4.6001      2.00000
      3       5.1694      2.00000
      4       5.6804      2.00000
      5       8.4750      0.00000
      6       8.5874      0.00000
      7       8.6098      0.00000
      8      10.0941      0.00000

 k-point    23 :       0.1333    0.1333    0.0000
  band No.  band energies     occupation 
      1      -5.8465      2.00000
      2       4.2772      2.00000
      3       4.8770      2.00000
      4       4.8770      2.00000
      5       7.7079      0.00000
      6       9.5693      0.00000
      7       9.5693      0.00000
      8      10.1303      0.00000

 k-point    24 :       0.2000    0.1333    0.0000
  band No.  band energies     occupation 
      1      -5.6366      2.00000
      2       3.3921      2.00000
      3       4.5861      2.00000
      4       4.6613      2.00000
      5       7.6744      0.00000
      6       9.6172      0.00000
      7      10.0397      0.00000
      8      10.3864      0.00000

 k-point    25 :       0.2667    0.1333    0.0000
  band No.  band energies     occupation 
      1      -5.3185      2.00000
      2       2.2873      2.00000
      3       4.3520      2.00000
      4       4.3752      2.00000
      5       7.8691      0.00000
      6       9.5340      0.00000
      7      10.3464      0.00000
      8      10.4053      0.00000

 k-point    26 :       0.3333    0.1333    0.0000
  band No.  band energies     occupation 
      1      -4.9033      2.00000
      2       1.1838      2.00000
      3       4.0461      2.00000
      4       4.1932      2.00000
      5       7.9707      0.00000
      6       9.5388      0.00000
      7      10.3902      0.00000
      8      10.6209      0.00000

 k-point    27 :       0.4000    0.1333    0.0000
  band No.  band energies     occupation 
      1      -4.4170      2.00000
      2       0.1707      2.00000
      3       3.7395      2.00000
      4       4.1176      2.00000
      5       7.9471      0.00000
      6       9.4641      0.00000
      7      10.2456      0.00000
      8      11.3387      0.00000

 k-point    28 :       0.4667    0.1333    0.0000
  band No.  band energies     occupation 
      1      -3.9310      2.00000
      2      -0.6528      2.00000
      3       3.4867      2.00000
      4       4.1265      2.00000
      5       7.9204      0.00000
      6       9.3793      0.00000
      7      10.0430      0.00000
      8      12.3613      0.00000

 k-point    29 :      -0.4667    0.1333    0.0000
  band No.  band energies     occupation 
      1      -3.6433      2.00000
      2      -1.0756      2.00000
      3       3.3047      2.00000
      4       4.2171      2.00000
      5       7.9523      0.00000
      6       9.3514      0.00000
      7       9.8627      0.00000
      8      13.4776      0.00000

 k-point    30 :      -0.4000    0.1333    0.0000
  band No.  band energies     occupation 
      1      -3.8023      2.00000
      2      -0.8453      2.00000
      3       3.2047      2.00000
      4       4.3826      2.00000
      5       8.0561      0.00000
      6       9.4000      0.00000
[...]
      8      11.7707      0.00000

 k-point    86 :      -0.3333    0.2667    0.0667
  band No.  band energies     occupation 
      1      -3.4508      2.00000
      2      -0.8570      2.00000
      3       1.8506      2.00000
      4       3.6760      2.00000
      5       7.9458      0.00000
      6       9.9038      0.00000
      7      11.5764      0.00000
      8      12.3243      0.00000

 k-point    87 :      -0.2667    0.2667    0.0667
  band No.  band energies     occupation 
      1      -3.9054      2.00000
      2      -0.2248      2.00000
      3       1.8994      2.00000
      4       3.9412      2.00000
      5       8.2378      0.00000
      6       9.7529      0.00000
      7      11.1911      0.00000
      8      11.5369      0.00000

 k-point    88 :      -0.2000    0.2667    0.0667
  band No.  band energies     occupation 
      1      -4.3919      2.00000
      2       0.4696      2.00000
      3       2.1999      2.00000
      4       4.2512      2.00000
      5       8.5578      0.00000
      6       9.3908      0.00000
      7      10.6507      0.00000
      8      11.1086      0.00000

 k-point    89 :       0.4000    0.3333    0.0667
  band No.  band energies     occupation 
      1      -4.2663      2.00000
      2       0.5165      2.00000
      3       2.9697      2.00000
      4       3.2524      2.00000
      5       6.8108      0.00000
      6       7.9485      0.00000
      7      11.9496      0.00000
      8      12.7593      0.00000

 k-point    90 :       0.4667    0.3333    0.0667
  band No.  band energies     occupation 
      1      -3.8072      2.00000
      2      -0.1407      2.00000
      3       2.4963      2.00000
      4       3.0901      2.00000
      5       7.0894      0.00000
      6       8.1859      0.00000
      7      11.7597      0.00000
      8      13.0970      0.00000

 k-point    91 :      -0.4667    0.3333    0.0667
  band No.  band energies     occupation 
      1      -3.3120      2.00000
      2      -0.7684      2.00000
      3       2.0031      2.00000
      4       3.0621      2.00000
      5       7.2168      0.00000
      6       9.0284      0.00000
      7      11.5181      0.00000
      8      13.0872      0.00000

 k-point    92 :      -0.4000    0.3333    0.0667
  band No.  band energies     occupation 
      1      -2.9332      2.00000
      2      -1.2008      2.00000
      3       1.6197      2.00000
      4       3.1513      2.00000
      5       7.3533      0.00000
      6      10.1670      0.00000
      7      11.3074      0.00000
      8      12.9465      0.00000

 k-point    93 :      -0.3333    0.3333    0.0667
  band No.  band energies     occupation 
      1      -2.9979      2.00000
      2      -1.1198      2.00000
      3       1.4188      2.00000
      4       3.3418      2.00000
      5       7.5750      0.00000
      6      10.9420      0.00000
      7      11.6261      0.00000
      8      12.3489      0.00000

 k-point    94 :      -0.2667    0.3333    0.0667
  band No.  band energies     occupation 
      1      -3.4216      2.00000
      2      -0.6647      2.00000
      3       1.4805      2.00000
      4       3.6152      2.00000
      5       7.8822      0.00000
      6      10.6004      0.00000
      7      11.4526      0.00000
      8      12.3317      0.00000

 k-point    95 :       0.4667    0.4000    0.0667
  band No.  band energies     occupation 
      1      -3.4831      2.00000
      2      -0.5562      2.00000
      3       2.7186      2.00000
      4       2.8772      2.00000
      5       6.6617      0.00000
      6       7.3155      0.00000
      7      13.0662      0.00000
      8      14.0132      0.00000

 k-point    96 :      -0.4667    0.4000    0.0667
  band No.  band energies     occupation 
      1      -2.9893      2.00000
      2      -1.1094      2.00000
      3       2.2282      2.00000
      4       2.8052      2.00000
      5       6.9226      0.00000
      6       7.7849      0.00000
      7      12.8517      0.00000
      8      14.3137      0.00000

 k-point    97 :      -0.4000    0.4000    0.0667
  band No.  band energies     occupation 
      1      -2.5488      2.00000
      2      -1.5421      2.00000
      3       1.7166      2.00000
      4       2.8858      2.00000
      5       7.0586      0.00000
      6       8.8235      0.00000
      7      12.6000      0.00000
      8      13.7806      0.00000

 k-point    98 :      -0.3333    0.4000    0.0667
  band No.  band energies     occupation 
      1      -2.5807      2.00000
      2      -1.4852      2.00000
      3       1.3988      2.00000
      4       3.0699      2.00000
      5       7.2697      0.00000
      6      10.0872      0.00000
      7      12.1962      0.00000
      8      12.6693      0.00000

 k-point    99 :      -0.4667    0.4667    0.0667
  band No.  band energies     occupation 
      1      -2.5884      2.00000
      2      -1.6032      2.00000
      3       2.6152      2.00000
      4       2.6661      2.00000
      5       6.6841      0.00000
      6       6.8969      0.00000
      7      14.2304      0.00000
      8      15.0809      0.00000

 k-point   100 :      -0.4000    0.4667    0.0667
  band No.  band energies     occupation 
      1      -2.1713      2.00000
      2      -1.9811      2.00000
      3       2.1358      2.00000
      4       2.7132      2.00000
      5       6.8689      0.00000
      6       7.6482      0.00000
      7      13.9202      0.00000
      8      14.1031      0.00000

 k-point   101 :       0.4000    0.2667    0.1333
  band No.  band energies     occupation 
      1      -4.7208      2.00000
      2       1.0636      2.00000
      3       2.7747      2.00000
      4       4.0562      2.00000
      5       8.1173      0.00000
      6       9.4588      0.00000
      7       9.7493      0.00000
      8      11.3509      0.00000

 k-point   102 :       0.4667    0.2667    0.1333
  band No.  band energies     occupation 
      1      -4.2639      2.00000
      2       0.2998      2.00000
      3       2.3803      2.00000
      4       3.7809      2.00000
      5       8.4373      0.00000
      6       9.4073      0.00000
      7       9.8904      0.00000
      8      11.7096      0.00000

 k-point   103 :      -0.4667    0.2667    0.1333
  band No.  band energies     occupation 
      1      -3.7714      2.00000
      2      -0.4637      2.00000
      3       2.1820      2.00000
      4       3.5446      2.00000
      5       8.5654      0.00000
      6       9.1140      0.00000
      7      10.7855      0.00000
      8      11.7920      0.00000

 k-point   104 :      -0.4000    0.2667    0.1333
  band No.  band energies     occupation 
      1      -3.3814      2.00000
      2      -1.0059      2.00000
      3       2.1017      2.00000
      4       3.4110      2.00000
      5       8.6798      0.00000
      6       8.8674      0.00000
      7      11.7639      0.00000
      8      11.9722      0.00000

 k-point   105 :       0.4667    0.3333    0.1333
  band No.  band energies     occupation 
      1      -4.0846      2.00000
      2       0.2117      2.00000
      3       2.4092      2.00000
      4       3.3091      2.00000
      5       7.8340      0.00000
      6       8.7847      0.00000
      7      10.5122      0.00000
      8      12.6670      0.00000

 k-point   106 :      -0.4667    0.3333    0.1333
  band No.  band energies     occupation 
      1      -3.5959      2.00000
      2      -0.4270      2.00000
      3       2.0400      2.00000
      4       3.0588      2.00000
      5       8.1557      0.00000
      6       9.3271      0.00000
      7      10.2377      0.00000
      8      13.0348      0.00000

 k-point   107 :      -0.4000    0.3333    0.1333
  band No.  band energies     occupation 
      1      -3.1416      2.00000
      2      -0.9853      2.00000
      3       1.7863      2.00000
      4       2.9434      2.00000
      5       8.2990      0.00000
      6       9.8629      0.00000
      7      10.4952      0.00000
      8      13.0795      0.00000

 k-point   108 :      -0.3333    0.3333    0.1333
  band No.  band energies     occupation 
      1      -2.9928      2.00000
      2      -1.1565      2.00000
      3       1.6444      2.00000
      4       2.9880      2.00000
      5       8.4829      0.00000
      6       9.6827      0.00000
      7      11.6568      0.00000
      8      12.0991      0.00000

 k-point   109 :      -0.2667    0.3333    0.1333
  band No.  band energies     occupation 
      1      -3.3107      2.00000
      2      -0.7809      2.00000
      3       1.6489      2.00000
      4       3.1726      2.00000
      5       8.7445      0.00000
      6       9.5022      0.00000
      7      10.7833      0.00000
      8      12.9146      0.00000

 k-point   110 :      -0.2000    0.3333    0.1333
  band No.  band energies     occupation 
      1      -3.7952      2.00000
      2      -0.2104      2.00000
      3       1.8708      2.00000
      4       3.4581      2.00000
      5       9.0702      0.00000
      6       9.1423      0.00000
      7      10.0060      0.00000
      8      12.5262      0.00000

 k-point   111 :      -0.4667    0.4000    0.1333
  band No.  band energies     occupation 
      1      -3.3342      2.00000
      2      -0.6781      2.00000
      3       2.2023      2.00000
      4       2.7181      2.00000
      5       7.6813      0.00000
      6       8.2217      0.00000
      7      11.4875      0.00000
      8      13.9920      0.00000

 k-point   112 :      -0.4000    0.4000    0.1333
  band No.  band energies     occupation 
      1      -2.8462      2.00000
      2      -1.1888      2.00000
      3       1.8394      2.00000
      4       2.5605      2.00000
      5       7.9741      0.00000
      6       9.0005      0.00000
      7      11.2101      0.00000
      8      13.5317      0.00000

 k-point   113 :      -0.3333    0.4000    0.1333
  band No.  band energies     occupation 
      1      -2.5755      2.00000
      2      -1.4520      2.00000
      3       1.5311      2.00000
      4       2.6310      2.00000
      5       8.1538      0.00000
      6      10.1522      0.00000
      7      11.0126      0.00000
      8      12.1473      0.00000

 k-point   114 :      -0.2667    0.4000    0.1333
  band No.  band energies     occupation 
      1      -2.8416      2.00000
      2      -1.1845      2.00000
      3       1.4350      2.00000
      4       2.8496      2.00000
      5       8.4113      0.00000
      6      10.4490      0.00000
      7      11.0295      0.00000
      8      11.7379      0.00000

 k-point   115 :      -0.4000    0.4667    0.1333
  band No.  band energies     occupation 
      1      -2.4924      2.00000
      2      -1.5928      2.00000
      3       2.1724      2.00000
      4       2.3386      2.00000
      5       7.6832      0.00000
      6       7.8581      0.00000
      7      12.5756      0.00000
      8      13.7550      0.00000

 k-point   116 :      -0.3333    0.4667    0.1333
  band No.  band energies     occupation 
      1      -2.1952      2.00000
      2      -1.8411      2.00000
      3       1.7751      2.00000
      4       2.3835      2.00000
      5       7.9118      0.00000
      6       8.8917      0.00000
      7      12.2446      0.00000
      8      12.3971      0.00000

 k-point   117 :      -0.4000    0.4000    0.2000
  band No.  band energies     occupation 
      1      -3.1083      2.00000
      2      -0.8971      2.00000
      3       1.7280      2.00000
      4       2.6952      2.00000
      5       9.0003      0.00000
      6       9.3974      0.00000
      7       9.9897      0.00000
      8      13.3215      0.00000

 k-point   118 :      -0.3333    0.4000    0.2000
  band No.  band energies     occupation 
      1      -2.6870      2.00000
      2      -1.3186      2.00000
      3       1.5905      2.00000
      4       2.4791      2.00000
      5       9.2692      0.00000
      6       9.5926      0.00000
      7      10.5297      0.00000
      8      11.8924      0.00000

 k-point   119 :      -0.3333    0.4667    0.2000
  band No.  band energies     occupation 
      1      -2.3672      2.00000
      2      -1.6176      2.00000
      3       1.8025      2.00000
      4       2.1234      2.00000
      5       8.9921      0.00000
      6       9.1323      0.00000
      7      10.9310      0.00000
      8      12.0654      0.00000

 k-point   120 :      -0.2667    0.4667    0.2000
  band No.  band energies     occupation 
      1      -2.2575      2.00000
      2      -1.7052      2.00000
      3       1.6519      2.00000
      4       2.1422      2.00000
      5       9.2424      0.00000
      6      10.1301      0.00000
      7      10.7763      0.00000
      8      10.8272      0.00000


--------------------------------------------------------------------------------------------------------


 soft charge-density along one line, spin component           1
         0         1         2         3         4         5         6         7         8         9
 total charge-density along one line
 
 pseudopotential strength for first ion, spin component:           1
 18.437  25.723   0.000  -0.000   0.000   0.000  -0.000   0.000
 25.723  35.893   0.000  -0.000   0.000   0.000  -0.000   0.000
  0.000   0.000   4.181  -0.000  -0.000   7.790  -0.000  -0.000
 -0.000  -0.000  -0.000   4.181  -0.000  -0.000   7.790  -0.000
  0.000   0.000  -0.000  -0.000   4.181  -0.000  -0.000   7.790
  0.000   0.000   7.790  -0.000  -0.000  14.528  -0.000  -0.000
 -0.000  -0.000  -0.000   7.790  -0.000  -0.000  14.528  -0.000
  0.000   0.000  -0.000  -0.000   7.790  -0.000  -0.000  14.528
 total augmentation occupancy for first ion, spin component:           1
  5.532  -2.066   0.000  -0.000   0.000   0.000  -0.000   0.000
 -2.066   0.889  -0.000   0.000  -0.000   0.000  -0.000  -0.000
  0.000   0.000   2.903   0.000   0.000  -0.649  -0.000  -0.000
  0.000   0.000   0.000   2.903   0.000  -0.000  -0.649  -0.000
  0.000  -0.000   0.000   0.000   2.903  -0.000  -0.000  -0.649
  0.000   0.000  -0.649  -0.000  -0.000   0.153   0.000   0.000
  0.000   0.000  -0.000  -0.649  -0.000   0.000   0.153   0.000
  0.000  -0.000  -0.000  -0.000  -0.649   0.000   0.000   0.153


------------------------ aborting loop because EDIFF is reached ----------------------------------------


    CHARGE:  cpu time    0.1260: real time    0.1257
    FORLOC:  cpu time    0.0030: real time    0.0027
    FORNL :  cpu time    0.2130: real time    0.2146
    STRESS:  cpu time    1.6438: real time    1.6456
    FORCOR:  cpu time    0.0500: real time    0.0493
    FORHAR:  cpu time    0.0090: real time    0.0094
    MIXING:  cpu time    0.0010: real time    0.0018
    OFIELD:  cpu time    0.0000: real time    0.0002

  FORCE on cell =-STRESS in cart. coord.  units (eV):
  Direction    XX          YY          ZZ          XY          YZ          ZX
  --------------------------------------------------------------------------------------
  Alpha Z     3.29373     3.29373     3.29373
  Ewald     -75.65251   -75.65259   -75.65250     0.00001    -0.00000    -0.00000
  Hartree     5.05626     5.05626     5.05626     0.00000     0.00000     0.00000
  E(xc)     -25.24680   -25.24680   -25.24680     0.00000     0.00000     0.00000
  Local     -29.50798   -29.50796   -29.50797    -0.00000     0.00000     0.00001
  n-local    73.84715    77.19547    81.32853    -0.89764    -0.95020    -0.02195
  augment   -11.64945   -11.64945   -11.64945    -0.00000    -0.00000    -0.00001
  Kinetic    53.03708    55.00859    60.70887     0.86489     1.26673    -0.56566
  Fock        0.00000     0.00000     0.00000     0.00000     0.00000     0.00000
  -------------------------------------------------------------------------------------
  Total       0.00180     0.00180     0.00180    -0.00000     0.00000     0.00000
  in kB       0.07054     0.07054     0.07054    -0.00000     0.00000     0.00000
  external pressure =        0.07 kB  Pullay stress =        0.00 kB


 VOLUME and BASIS-vectors are now :
 -----------------------------------------------------------------------------
  energy-cutoff  :      500.00
  volume of cell :       40.88
      direct lattice vectors                 reciprocal lattice vectors
     3.348712195  0.000000000  1.933379614     0.298622259 -0.105578870 -0.000000000
     1.116237398  3.157197386  1.933379614    -0.000000000  0.316736611 -0.000000000
     0.000000000  0.000000000  3.866759229    -0.149311129 -0.105578870  0.258614499

  length of vectors
     3.866759638  3.866760660  3.866759229     0.316736722  0.316736611  0.316736752


 FORCES acting on ions
    electron-ion (+dipol)            ewald-force                    non-local-force                 convergence-correction
 -----------------------------------------------------------------------------------------------
   0.526E-05 0.245E-04 0.676E-07   -.892E-05 -.418E-04 0.149E-14   -.642E-16 -.347E-16 -.694E-16   0.760E-09 0.792E-09 0.121E-08
   -.526E-05 -.245E-04 -.676E-07   0.892E-05 0.418E-04 -.134E-14   0.885E-16 -.624E-16 0.104E-15   -.760E-09 -.792E-09 -.121E-08
 -----------------------------------------------------------------------------------------------
   -.113E-12 0.348E-13 -.219E-12   -.805E-15 -.759E-16 0.149E-15   0.243E-16 -.971E-16 0.347E-16   0.533E-15 -.173E-15 -.453E-15
 
 
 POSITION                                       TOTAL-FORCE (eV/Angst)
 -----------------------------------------------------------------------------------
      3.90683      2.76255      6.76683         0.000000      0.000000      0.000000
      0.55812      0.39465      0.96669        -0.000000     -0.000000     -0.000000
 -----------------------------------------------------------------------------------
    total drift:                               -0.000000      0.000000     -0.000000


--------------------------------------------------------------------------------------------------------



  FREE ENERGIE OF THE ION-ELECTRON SYSTEM (eV)
  ---------------------------------------------------
  free  energy   TOTEN  =       -10.84985334 eV

  energy  without entropy=      -10.84985334  energy(sigma->0) =      -10.84985334
 
 d Force = 0.0000000E+00[ 0.000E+00, 0.000E+00]  d Energy = 0.9533000E-03-0.953E-03
 d Force = 0.0000000E+00[ 0.000E+00, 0.000E+00]  d Ewald  = 0.6972907E+00-0.697E+00


--------------------------------------------------------------------------------------------------------


    POTLOK:  cpu time    0.2340: real time    0.2405


--------------------------------------------------------------------------------------------------------




--------------------------------------------------------------------------------------------------------


  
 reached required accuracy - stopping structural energy minimisation
     LOOP+:  cpu time   14.2288: real time   14.4619
    4ORBIT:  cpu time    0.0000: real time    0.0000

 total amount of memory used by VASP MPI-rank0    51740. kBytes
=======================================================================

   base      :      30000. kBytes
   nonl-proj :       8020. kBytes
   fftplans  :       6611. kBytes
   grid      :       3048. kBytes
   one-center:          6. kBytes
   wavefun   :       4055. kBytes
 
  
  
 General timing and accounting informations for this job:
 ========================================================
  
                  Total CPU time used (sec):       55.358
                            User time (sec):       53.844
                          System time (sec):        1.514
                         Elapsed time (sec):       56.830
  
                   Maximum memory used (kb):       85572.
                   Average memory used (kb):          N/A
  
                          Minor page faults:        18325
                          Major page faults:            1
                 Voluntary context switches:        22557
