unknown system                          
           1
     3.333573    0.000000    1.924639
     1.111191    3.142924    1.924639
     0.000000    0.000000    3.849278
   Si
     2
Direct configuration=     1
   0.87500000  0.87500000  0.87500000
   0.12500000  0.12500000  0.12500000
unknown system                          
           1
     3.359032    0.000000    1.939338
     1.119677    3.166927    1.939338
     0.000000    0.000000    3.878676
   Si
     2
Direct configuration=     2
   0.87500000  0.87500000  0.87500000
   0.12500000  0.12500000  0.12500000
unknown system                          
           1
     3.348712    0.000000    1.933380
     1.116237    3.157197    1.933380
     0.000000    0.000000    3.866759
   Si
     2
Direct configuration=     3
   0.87500000  0.87500000  0.87500000
   0.12500000  0.12500000  0.12500000
