   8   8   1   0
  0.9103145E+01  0.4176000E-09  0.4176000E-09  0.4176000E-09  0.5000000E-15
  1.000000000000000E-004
  CAR 
 bulk_NiO                                
     19.84436183    -62.14701944  301      6.52076237      1.00000000
    -62.147  0.0000E+00  0.0000E+00  0.0000E+00  0.0000E+00
    -61.874  0.0000E+00  0.0000E+00  0.0000E+00  0.0000E+00
    -61.600  0.0000E+00  0.0000E+00  0.0000E+00  0.0000E+00
    -61.327  0.0000E+00  0.0000E+00  0.0000E+00  0.0000E+00
    -61.054  0.0000E+00  0.0000E+00  0.0000E+00  0.0000E+00
    -60.780  0.0000E+00  0.0000E+00  0.0000E+00  0.0000E+00
    -60.507  0.0000E+00  0.0000E+00  0.0000E+00  0.0000E+00
    -60.234  0.0000E+00  0.0000E+00  0.0000E+00  0.0000E+00
    -59.961  0.0000E+00  0.0000E+00  0.0000E+00  0.0000E+00
    -59.687  0.0000E+00  0.0000E+00  0.0000E+00  0.0000E+00
    -59.414  0.0000E+00  0.0000E+00  0.0000E+00  0.0000E+00
    -59.141  0.0000E+00  0.0000E+00  0.0000E+00  0.0000E+00
    -58.867  0.0000E+00  0.0000E+00  0.0000E+00  0.0000E+00
    -58.594  0.3799E-05  0.3799E-05  0.1038E-05  0.1038E-05
    -58.321  0.2185E+02  0.2185E+02  0.5970E+01  0.5970E+01
    -58.047  0.1084E+00  0.1084E+00  0.6000E+01  0.6000E+01
    -57.774  0.0000E+00  0.0000E+00  0.6000E+01  0.6000E+01
    -57.501  0.0000E+00  0.0000E+00  0.6000E+01  0.6000E+01
    -57.228  0.0000E+00  0.0000E+00  0.6000E+01  0.6000E+01
    -56.954  0.0000E+00  0.0000E+00  0.6000E+01  0.6000E+01
    -56.681  0.0000E+00  0.0000E+00  0.6000E+01  0.6000E+01
    -56.408  0.1471E-03  0.1471E-03  0.6000E+01  0.6000E+01
    -56.134  0.2194E+02  0.2194E+02  0.1200E+02  0.1200E+02
    -55.861  0.1025E-01  0.1025E-01  0.1200E+02  0.1200E+02
    -55.588  0.0000E+00  0.0000E+00  0.1200E+02  0.1200E+02
    -55.314  0.0000E+00  0.0000E+00  0.1200E+02  0.1200E+02
    -55.041  0.0000E+00  0.0000E+00  0.1200E+02  0.1200E+02
    -54.768  0.0000E+00  0.0000E+00  0.1200E+02  0.1200E+02
    -54.494  0.0000E+00  0.0000E+00  0.1200E+02  0.1200E+02
    -54.221  0.0000E+00  0.0000E+00  0.1200E+02  0.1200E+02
    -53.948  0.0000E+00  0.0000E+00  0.1200E+02  0.1200E+02
    -53.675  0.0000E+00  0.0000E+00  0.1200E+02  0.1200E+02
    -53.401  0.0000E+00  0.0000E+00  0.1200E+02  0.1200E+02
    -53.128  0.0000E+00  0.0000E+00  0.1200E+02  0.1200E+02
    -52.855  0.0000E+00  0.0000E+00  0.1200E+02  0.1200E+02
    -52.581  0.0000E+00  0.0000E+00  0.1200E+02  0.1200E+02
    -52.308  0.0000E+00  0.0000E+00  0.1200E+02  0.1200E+02
    -52.035  0.0000E+00  0.0000E+00  0.1200E+02  0.1200E+02
    -51.761  0.0000E+00  0.0000E+00  0.1200E+02  0.1200E+02
    -51.488  0.0000E+00  0.0000E+00  0.1200E+02  0.1200E+02
    -51.215  0.0000E+00  0.0000E+00  0.1200E+02  0.1200E+02
    -50.942  0.0000E+00  0.0000E+00  0.1200E+02  0.1200E+02
    -50.668  0.0000E+00  0.0000E+00  0.1200E+02  0.1200E+02
    -50.395  0.0000E+00  0.0000E+00  0.1200E+02  0.1200E+02
    -50.122  0.0000E+00  0.0000E+00  0.1200E+02  0.1200E+02
    -49.848  0.0000E+00  0.0000E+00  0.1200E+02  0.1200E+02
    -49.575  0.0000E+00  0.0000E+00  0.1200E+02  0.1200E+02
    -49.302  0.0000E+00  0.0000E+00  0.1200E+02  0.1200E+02
    -49.028  0.0000E+00  0.0000E+00  0.1200E+02  0.1200E+02
    -48.755  0.0000E+00  0.0000E+00  0.1200E+02  0.1200E+02
    -48.482  0.0000E+00  0.0000E+00  0.1200E+02  0.1200E+02
    -48.208  0.0000E+00  0.0000E+00  0.1200E+02  0.1200E+02
    -47.935  0.0000E+00  0.0000E+00  0.1200E+02  0.1200E+02
    -47.662  0.0000E+00  0.0000E+00  0.1200E+02  0.1200E+02
    -47.389  0.0000E+00  0.0000E+00  0.1200E+02  0.1200E+02
    -47.115  0.0000E+00  0.0000E+00  0.1200E+02  0.1200E+02
    -46.842  0.0000E+00  0.0000E+00  0.1200E+02  0.1200E+02
    -46.569  0.0000E+00  0.0000E+00  0.1200E+02  0.1200E+02
    -46.295  0.0000E+00  0.0000E+00  0.1200E+02  0.1200E+02
    -46.022  0.0000E+00  0.0000E+00  0.1200E+02  0.1200E+02
    -45.749  0.0000E+00  0.0000E+00  0.1200E+02  0.1200E+02
    -45.475  0.0000E+00  0.0000E+00  0.1200E+02  0.1200E+02
    -45.202  0.0000E+00  0.0000E+00  0.1200E+02  0.1200E+02
    -44.929  0.0000E+00  0.0000E+00  0.1200E+02  0.1200E+02
    -44.656  0.0000E+00  0.0000E+00  0.1200E+02  0.1200E+02
    -44.382  0.0000E+00  0.0000E+00  0.1200E+02  0.1200E+02
    -44.109  0.0000E+00  0.0000E+00  0.1200E+02  0.1200E+02
    -43.836  0.0000E+00  0.0000E+00  0.1200E+02  0.1200E+02
    -43.562  0.0000E+00  0.0000E+00  0.1200E+02  0.1200E+02
    -43.289  0.0000E+00  0.0000E+00  0.1200E+02  0.1200E+02
    -43.016  0.0000E+00  0.0000E+00  0.1200E+02  0.1200E+02
    -42.742  0.0000E+00  0.0000E+00  0.1200E+02  0.1200E+02
    -42.469  0.0000E+00  0.0000E+00  0.1200E+02  0.1200E+02
    -42.196  0.0000E+00  0.0000E+00  0.1200E+02  0.1200E+02
    -41.922  0.0000E+00  0.0000E+00  0.1200E+02  0.1200E+02
    -41.649  0.0000E+00  0.0000E+00  0.1200E+02  0.1200E+02
    -41.376  0.0000E+00  0.0000E+00  0.1200E+02  0.1200E+02
    -41.103  0.0000E+00  0.0000E+00  0.1200E+02  0.1200E+02
    -40.829  0.0000E+00  0.0000E+00  0.1200E+02  0.1200E+02
    -40.556  0.0000E+00  0.0000E+00  0.1200E+02  0.1200E+02
    -40.283  0.0000E+00  0.0000E+00  0.1200E+02  0.1200E+02
    -40.009  0.0000E+00  0.0000E+00  0.1200E+02  0.1200E+02
    -39.736  0.0000E+00  0.0000E+00  0.1200E+02  0.1200E+02
    -39.463  0.0000E+00  0.0000E+00  0.1200E+02  0.1200E+02
    -39.189  0.0000E+00  0.0000E+00  0.1200E+02  0.1200E+02
    -38.916  0.0000E+00  0.0000E+00  0.1200E+02  0.1200E+02
    -38.643  0.0000E+00  0.0000E+00  0.1200E+02  0.1200E+02
    -38.370  0.0000E+00  0.0000E+00  0.1200E+02  0.1200E+02
    -38.096  0.0000E+00  0.0000E+00  0.1200E+02  0.1200E+02
    -37.823  0.0000E+00  0.0000E+00  0.1200E+02  0.1200E+02
    -37.550  0.0000E+00  0.0000E+00  0.1200E+02  0.1200E+02
    -37.276  0.0000E+00  0.0000E+00  0.1200E+02  0.1200E+02
    -37.003  0.0000E+00  0.0000E+00  0.1200E+02  0.1200E+02
    -36.730  0.0000E+00  0.0000E+00  0.1200E+02  0.1200E+02
    -36.456  0.0000E+00  0.0000E+00  0.1200E+02  0.1200E+02
    -36.183  0.0000E+00  0.0000E+00  0.1200E+02  0.1200E+02
    -35.910  0.0000E+00  0.0000E+00  0.1200E+02  0.1200E+02
    -35.636  0.0000E+00  0.0000E+00  0.1200E+02  0.1200E+02
    -35.363  0.0000E+00  0.0000E+00  0.1200E+02  0.1200E+02
    -35.090  0.0000E+00  0.0000E+00  0.1200E+02  0.1200E+02
    -34.817  0.0000E+00  0.0000E+00  0.1200E+02  0.1200E+02
    -34.543  0.0000E+00  0.0000E+00  0.1200E+02  0.1200E+02
    -34.270  0.0000E+00  0.0000E+00  0.1200E+02  0.1200E+02
    -33.997  0.0000E+00  0.0000E+00  0.1200E+02  0.1200E+02
    -33.723  0.0000E+00  0.0000E+00  0.1200E+02  0.1200E+02
    -33.450  0.0000E+00  0.0000E+00  0.1200E+02  0.1200E+02
    -33.177  0.0000E+00  0.0000E+00  0.1200E+02  0.1200E+02
    -32.903  0.0000E+00  0.0000E+00  0.1200E+02  0.1200E+02
    -32.630  0.0000E+00  0.0000E+00  0.1200E+02  0.1200E+02
    -32.357  0.0000E+00  0.0000E+00  0.1200E+02  0.1200E+02
    -32.084  0.0000E+00  0.0000E+00  0.1200E+02  0.1200E+02
    -31.810  0.0000E+00  0.0000E+00  0.1200E+02  0.1200E+02
    -31.537  0.0000E+00  0.0000E+00  0.1200E+02  0.1200E+02
    -31.264  0.0000E+00  0.0000E+00  0.1200E+02  0.1200E+02
    -30.990  0.0000E+00  0.0000E+00  0.1200E+02  0.1200E+02
    -30.717  0.0000E+00  0.0000E+00  0.1200E+02  0.1200E+02
    -30.444  0.0000E+00  0.0000E+00  0.1200E+02  0.1200E+02
    -30.170  0.0000E+00  0.0000E+00  0.1200E+02  0.1200E+02
    -29.897  0.0000E+00  0.0000E+00  0.1200E+02  0.1200E+02
    -29.624  0.0000E+00  0.0000E+00  0.1200E+02  0.1200E+02
    -29.350  0.0000E+00  0.0000E+00  0.1200E+02  0.1200E+02
    -29.077  0.0000E+00  0.0000E+00  0.1200E+02  0.1200E+02
    -28.804  0.0000E+00  0.0000E+00  0.1200E+02  0.1200E+02
    -28.531  0.0000E+00  0.0000E+00  0.1200E+02  0.1200E+02
    -28.257  0.0000E+00  0.0000E+00  0.1200E+02  0.1200E+02
    -27.984  0.0000E+00  0.0000E+00  0.1200E+02  0.1200E+02
    -27.711  0.0000E+00  0.0000E+00  0.1200E+02  0.1200E+02
    -27.437  0.0000E+00  0.0000E+00  0.1200E+02  0.1200E+02
    -27.164  0.0000E+00  0.0000E+00  0.1200E+02  0.1200E+02
    -26.891  0.0000E+00  0.0000E+00  0.1200E+02  0.1200E+02
    -26.617  0.0000E+00  0.0000E+00  0.1200E+02  0.1200E+02
    -26.344  0.0000E+00  0.0000E+00  0.1200E+02  0.1200E+02
    -26.071  0.0000E+00  0.0000E+00  0.1200E+02  0.1200E+02
    -25.798  0.0000E+00  0.0000E+00  0.1200E+02  0.1200E+02
    -25.524  0.0000E+00  0.0000E+00  0.1200E+02  0.1200E+02
    -25.251  0.0000E+00  0.0000E+00  0.1200E+02  0.1200E+02
    -24.978  0.0000E+00  0.0000E+00  0.1200E+02  0.1200E+02
    -24.704  0.0000E+00  0.0000E+00  0.1200E+02  0.1200E+02
    -24.431  0.0000E+00  0.0000E+00  0.1200E+02  0.1200E+02
    -24.158  0.0000E+00  0.0000E+00  0.1200E+02  0.1200E+02
    -23.884  0.0000E+00  0.0000E+00  0.1200E+02  0.1200E+02
    -23.611  0.0000E+00  0.0000E+00  0.1200E+02  0.1200E+02
    -23.338  0.0000E+00  0.0000E+00  0.1200E+02  0.1200E+02
    -23.064  0.0000E+00  0.0000E+00  0.1200E+02  0.1200E+02
    -22.791  0.0000E+00  0.0000E+00  0.1200E+02  0.1200E+02
    -22.518  0.0000E+00  0.0000E+00  0.1200E+02  0.1200E+02
    -22.245  0.0000E+00  0.0000E+00  0.1200E+02  0.1200E+02
    -21.971  0.0000E+00  0.0000E+00  0.1200E+02  0.1200E+02
    -21.698  0.0000E+00  0.0000E+00  0.1200E+02  0.1200E+02
    -21.425  0.0000E+00  0.0000E+00  0.1200E+02  0.1200E+02
    -21.151  0.0000E+00  0.0000E+00  0.1200E+02  0.1200E+02
    -20.878  0.0000E+00  0.0000E+00  0.1200E+02  0.1200E+02
    -20.605  0.0000E+00  0.0000E+00  0.1200E+02  0.1200E+02
    -20.331  0.0000E+00  0.0000E+00  0.1200E+02  0.1200E+02
    -20.058  0.0000E+00  0.0000E+00  0.1200E+02  0.1200E+02
    -19.785  0.0000E+00  0.0000E+00  0.1200E+02  0.1200E+02
    -19.512  0.0000E+00  0.0000E+00  0.1200E+02  0.1200E+02
    -19.238  0.0000E+00  0.0000E+00  0.1200E+02  0.1200E+02
    -18.965  0.0000E+00  0.0000E+00  0.1200E+02  0.1200E+02
    -18.692  0.0000E+00  0.0000E+00  0.1200E+02  0.1200E+02
    -18.418  0.0000E+00  0.0000E+00  0.1200E+02  0.1200E+02
    -18.145  0.0000E+00  0.0000E+00  0.1200E+02  0.1200E+02
    -17.872  0.0000E+00  0.0000E+00  0.1200E+02  0.1200E+02
    -17.598  0.0000E+00  0.0000E+00  0.1200E+02  0.1200E+02
    -17.325  0.0000E+00  0.0000E+00  0.1200E+02  0.1200E+02
    -17.052  0.0000E+00  0.0000E+00  0.1200E+02  0.1200E+02
    -16.778  0.0000E+00  0.0000E+00  0.1200E+02  0.1200E+02
    -16.505  0.0000E+00  0.0000E+00  0.1200E+02  0.1200E+02
    -16.232  0.0000E+00  0.0000E+00  0.1200E+02  0.1200E+02
    -15.959  0.0000E+00  0.0000E+00  0.1200E+02  0.1200E+02
    -15.685  0.0000E+00  0.0000E+00  0.1200E+02  0.1200E+02
    -15.412  0.0000E+00  0.0000E+00  0.1200E+02  0.1200E+02
    -15.139  0.0000E+00  0.0000E+00  0.1200E+02  0.1200E+02
    -14.865  0.0000E+00  0.0000E+00  0.1200E+02  0.1200E+02
    -14.592  0.0000E+00  0.0000E+00  0.1200E+02  0.1200E+02
    -14.319  0.0000E+00  0.0000E+00  0.1200E+02  0.1200E+02
    -14.045  0.0000E+00  0.0000E+00  0.1200E+02  0.1200E+02
    -13.772  0.0000E+00  0.0000E+00  0.1200E+02  0.1200E+02
    -13.499  0.0000E+00  0.0000E+00  0.1200E+02  0.1200E+02
    -13.225  0.0000E+00  0.0000E+00  0.1200E+02  0.1200E+02
    -12.952  0.2636E-08  0.2636E-08  0.1200E+02  0.1200E+02
    -12.679  0.8292E-01  0.8292E-01  0.1202E+02  0.1202E+02
    -12.406  0.4700E+00  0.4700E+00  0.1215E+02  0.1215E+02
    -12.132  0.7671E+00  0.7671E+00  0.1236E+02  0.1236E+02
    -11.859  0.1222E+01  0.1222E+01  0.1269E+02  0.1269E+02
    -11.586  0.2180E+01  0.2180E+01  0.1329E+02  0.1329E+02
    -11.312  0.5165E+01  0.5165E+01  0.1470E+02  0.1470E+02
    -11.039  0.4707E+01  0.4707E+01  0.1599E+02  0.1599E+02
    -10.766  0.4108E-01  0.4108E-01  0.1600E+02  0.1600E+02
    -10.492  0.0000E+00  0.0000E+00  0.1600E+02  0.1600E+02
    -10.219  0.0000E+00  0.0000E+00  0.1600E+02  0.1600E+02
     -9.946  0.0000E+00  0.0000E+00  0.1600E+02  0.1600E+02
     -9.673  0.0000E+00  0.0000E+00  0.1600E+02  0.1600E+02
     -9.399  0.0000E+00  0.0000E+00  0.1600E+02  0.1600E+02
     -9.126  0.0000E+00  0.0000E+00  0.1600E+02  0.1600E+02
     -8.853  0.0000E+00  0.0000E+00  0.1600E+02  0.1600E+02
     -8.579  0.0000E+00  0.0000E+00  0.1600E+02  0.1600E+02
     -8.306  0.0000E+00  0.0000E+00  0.1600E+02  0.1600E+02
     -8.033  0.0000E+00  0.0000E+00  0.1600E+02  0.1600E+02
     -7.759  0.0000E+00  0.0000E+00  0.1600E+02  0.1600E+02
     -7.486  0.0000E+00  0.0000E+00  0.1600E+02  0.1600E+02
     -7.213  0.0000E+00  0.0000E+00  0.1600E+02  0.1600E+02
     -6.939  0.0000E+00  0.0000E+00  0.1600E+02  0.1600E+02
     -6.666  0.0000E+00  0.0000E+00  0.1600E+02  0.1600E+02
     -6.393  0.0000E+00  0.0000E+00  0.1600E+02  0.1600E+02
     -6.120  0.0000E+00  0.0000E+00  0.1600E+02  0.1600E+02
     -5.846  0.0000E+00  0.0000E+00  0.1600E+02  0.1600E+02
     -5.573  0.0000E+00  0.0000E+00  0.1600E+02  0.1600E+02
     -5.300  0.0000E+00  0.0000E+00  0.1600E+02  0.1600E+02
     -5.026  0.0000E+00  0.0000E+00  0.1600E+02  0.1600E+02
     -4.753  0.0000E+00  0.0000E+00  0.1600E+02  0.1600E+02
     -4.480  0.0000E+00  0.0000E+00  0.1600E+02  0.1600E+02
     -4.206  0.0000E+00  0.0000E+00  0.1600E+02  0.1600E+02
     -3.933  0.0000E+00  0.0000E+00  0.1600E+02  0.1600E+02
     -3.660  0.0000E+00  0.0000E+00  0.1600E+02  0.1600E+02
     -3.387  0.0000E+00  0.0000E+00  0.1600E+02  0.1600E+02
     -3.113  0.0000E+00  0.0000E+00  0.1600E+02  0.1600E+02
     -2.840  0.0000E+00  0.0000E+00  0.1600E+02  0.1600E+02
     -2.567  0.0000E+00  0.0000E+00  0.1600E+02  0.1600E+02
     -2.293  0.0000E+00  0.0000E+00  0.1600E+02  0.1600E+02
     -2.020  0.0000E+00  0.0000E+00  0.1600E+02  0.1600E+02
     -1.747  0.0000E+00  0.0000E+00  0.1600E+02  0.1600E+02
     -1.473  0.8008E-05  0.8008E-05  0.1600E+02  0.1600E+02
     -1.200  0.2839E+00  0.2839E+00  0.1608E+02  0.1608E+02
     -0.927  0.1743E+01  0.1743E+01  0.1655E+02  0.1655E+02
     -0.653  0.5580E+01  0.5580E+01  0.1808E+02  0.1808E+02
     -0.380  0.4334E+01  0.4334E+01  0.1926E+02  0.1926E+02
     -0.107  0.3969E+01  0.3969E+01  0.2035E+02  0.2035E+02
      0.166  0.3296E+01  0.3296E+01  0.2125E+02  0.2125E+02
      0.440  0.4045E+01  0.4045E+01  0.2235E+02  0.2235E+02
      0.713  0.3544E+01  0.3544E+01  0.2332E+02  0.2332E+02
      0.986  0.4043E+01  0.4043E+01  0.2443E+02  0.2443E+02
      1.260  0.3194E+01  0.3194E+01  0.2530E+02  0.2530E+02
      1.533  0.4051E+01  0.4051E+01  0.2641E+02  0.2641E+02
      1.806  0.4502E+01  0.4502E+01  0.2764E+02  0.2764E+02
      2.080  0.5721E+01  0.5721E+01  0.2920E+02  0.2920E+02
      2.353  0.3397E+01  0.3397E+01  0.3013E+02  0.3013E+02
      2.626  0.2606E+01  0.2606E+01  0.3084E+02  0.3084E+02
      2.899  0.5814E+01  0.5814E+01  0.3243E+02  0.3243E+02
      3.173  0.5740E+01  0.5740E+01  0.3400E+02  0.3400E+02
      3.446  0.5502E+01  0.5502E+01  0.3550E+02  0.3550E+02
      3.719  0.6257E+01  0.6257E+01  0.3721E+02  0.3721E+02
      3.993  0.7854E+01  0.7854E+01  0.3936E+02  0.3936E+02
      4.266  0.3737E+01  0.3737E+01  0.4038E+02  0.4038E+02
      4.539  0.1813E+01  0.1813E+01  0.4088E+02  0.4088E+02
      4.813  0.3615E+01  0.3615E+01  0.4187E+02  0.4187E+02
      5.086  0.2158E+01  0.2158E+01  0.4246E+02  0.4246E+02
      5.359  0.1544E+01  0.1544E+01  0.4288E+02  0.4288E+02
      5.633  0.1444E+01  0.1444E+01  0.4327E+02  0.4327E+02
      5.906  0.1399E+01  0.1399E+01  0.4365E+02  0.4365E+02
      6.179  0.1137E+01  0.1137E+01  0.4397E+02  0.4397E+02
      6.452  0.1272E+00  0.1272E+00  0.4400E+02  0.4400E+02
      6.726  0.0000E+00  0.0000E+00  0.4400E+02  0.4400E+02
      6.999  0.0000E+00  0.0000E+00  0.4400E+02  0.4400E+02
      7.272  0.0000E+00  0.0000E+00  0.4400E+02  0.4400E+02
      7.546  0.0000E+00  0.0000E+00  0.4400E+02  0.4400E+02
      7.819  0.0000E+00  0.0000E+00  0.4400E+02  0.4400E+02
      8.092  0.0000E+00  0.0000E+00  0.4400E+02  0.4400E+02
      8.366  0.0000E+00  0.0000E+00  0.4400E+02  0.4400E+02
      8.639  0.3154E-04  0.3154E-04  0.4400E+02  0.4400E+02
      8.912  0.3741E+00  0.3741E+00  0.4410E+02  0.4410E+02
      9.185  0.2516E+01  0.2516E+01  0.4479E+02  0.4479E+02
      9.459  0.2655E+01  0.2655E+01  0.4552E+02  0.4552E+02
      9.732  0.2914E+01  0.2914E+01  0.4631E+02  0.4631E+02
     10.005  0.1610E+01  0.1610E+01  0.4675E+02  0.4675E+02
     10.279  0.1771E+01  0.1771E+01  0.4724E+02  0.4724E+02
     10.552  0.1926E+01  0.1926E+01  0.4776E+02  0.4776E+02
     10.825  0.1316E+01  0.1316E+01  0.4812E+02  0.4812E+02
     11.099  0.1588E-01  0.1588E-01  0.4813E+02  0.4813E+02
     11.372  0.2096E+00  0.2096E+00  0.4818E+02  0.4818E+02
     11.645  0.4620E+00  0.4620E+00  0.4831E+02  0.4831E+02
     11.919  0.1011E-01  0.1011E-01  0.4831E+02  0.4831E+02
     12.192  0.3462E+00  0.3462E+00  0.4841E+02  0.4841E+02
     12.465  0.2284E+00  0.2284E+00  0.4847E+02  0.4847E+02
     12.738  0.6046E+00  0.6046E+00  0.4863E+02  0.4863E+02
     13.012  0.1065E+01  0.1065E+01  0.4893E+02  0.4893E+02
     13.285  0.2304E+00  0.2304E+00  0.4899E+02  0.4899E+02
     13.558  0.1023E+01  0.1023E+01  0.4927E+02  0.4927E+02
     13.832  0.1411E+01  0.1411E+01  0.4965E+02  0.4965E+02
     14.105  0.1305E+01  0.1305E+01  0.5001E+02  0.5001E+02
     14.378  0.1147E+01  0.1147E+01  0.5032E+02  0.5032E+02
     14.652  0.1309E+01  0.1309E+01  0.5068E+02  0.5068E+02
     14.925  0.1011E+01  0.1011E+01  0.5096E+02  0.5096E+02
     15.198  0.1383E+01  0.1383E+01  0.5134E+02  0.5134E+02
     15.471  0.5948E+00  0.5948E+00  0.5150E+02  0.5150E+02
     15.745  0.7245E+00  0.7245E+00  0.5170E+02  0.5170E+02
     16.018  0.9341E+00  0.9342E+00  0.5195E+02  0.5195E+02
     16.291  0.1751E+00  0.1751E+00  0.5200E+02  0.5200E+02
     16.565  0.0000E+00  0.0000E+00  0.5200E+02  0.5200E+02
     16.838  0.0000E+00  0.0000E+00  0.5200E+02  0.5200E+02
     17.111  0.0000E+00  0.0000E+00  0.5200E+02  0.5200E+02
     17.385  0.0000E+00  0.0000E+00  0.5200E+02  0.5200E+02
     17.658  0.0000E+00  0.0000E+00  0.5200E+02  0.5200E+02
     17.931  0.0000E+00  0.0000E+00  0.5200E+02  0.5200E+02
     18.205  0.0000E+00  0.0000E+00  0.5200E+02  0.5200E+02
     18.478  0.0000E+00  0.0000E+00  0.5200E+02  0.5200E+02
     18.751  0.0000E+00  0.0000E+00  0.5200E+02  0.5200E+02
     19.024  0.0000E+00  0.0000E+00  0.5200E+02  0.5200E+02
     19.298  0.0000E+00  0.0000E+00  0.5200E+02  0.5200E+02
     19.571  0.0000E+00  0.0000E+00  0.5200E+02  0.5200E+02
     19.844  0.0000E+00  0.0000E+00  0.5200E+02  0.5200E+02
     19.84436183    -62.14701944  301      6.52076237      1.00000000
    -62.147  0.0000E+00  0.0000E+00  0.0000E+00  0.0000E+00  0.0000E+00  0.0000E+00  0.0000E+00  0.0000E+00  0.0000E+00  0.0000E+00  0.0000E+00  0.0000E+00  0.0000E+00  0.0000E+00  0.0000E+00  0.0000E+00  0.0000E+00  0.0000E+00
    -61.874  0.0000E+00  0.0000E+00  0.0000E+00  0.0000E+00  0.0000E+00  0.0000E+00  0.0000E+00  0.0000E+00  0.0000E+00  0.0000E+00  0.0000E+00  0.0000E+00  0.0000E+00  0.0000E+00  0.0000E+00  0.0000E+00  0.0000E+00  0.0000E+00
    -61.600  0.0000E+00  0.0000E+00  0.0000E+00  0.0000E+00  0.0000E+00  0.0000E+00  0.0000E+00  0.0000E+00  0.0000E+00  0.0000E+00  0.0000E+00  0.0000E+00  0.0000E+00  0.0000E+00  0.0000E+00  0.0000E+00  0.0000E+00  0.0000E+00
    -61.327  0.0000E+00  0.0000E+00  0.0000E+00  0.0000E+00  0.0000E+00  0.0000E+00  0.0000E+00  0.0000E+00  0.0000E+00  0.0000E+00  0.0000E+00  0.0000E+00  0.0000E+00  0.0000E+00  0.0000E+00  0.0000E+00  0.0000E+00  0.0000E+00
    -61.054  0.0000E+00  0.0000E+00  0.0000E+00  0.0000E+00  0.0000E+00  0.0000E+00  0.0000E+00  0.0000E+00  0.0000E+00  0.0000E+00  0.0000E+00  0.0000E+00  0.0000E+00  0.0000E+00  0.0000E+00  0.0000E+00  0.0000E+00  0.0000E+00
    -60.780  0.0000E+00  0.0000E+00  0.0000E+00  0.0000E+00  0.0000E+00  0.0000E+00  0.0000E+00  0.0000E+00  0.0000E+00  0.0000E+00  0.0000E+00  0.0000E+00  0.0000E+00  0.0000E+00  0.0000E+00  0.0000E+00  0.0000E+00  0.0000E+00
    -60.507  0.0000E+00  0.0000E+00  0.0000E+00  0.0000E+00  0.0000E+00  0.0000E+00  0.0000E+00  0.0000E+00  0.0000E+00  0.0000E+00  0.0000E+00  0.0000E+00  0.0000E+00  0.0000E+00  0.0000E+00  0.0000E+00  0.0000E+00  0.0000E+00
    -60.234  0.0000E+00  0.0000E+00  0.0000E+00  0.0000E+00  0.0000E+00  0.0000E+00  0.0000E+00  0.0000E+00  0.0000E+00  0.0000E+00  0.0000E+00  0.0000E+00  0.0000E+00  0.0000E+00  0.0000E+00  0.0000E+00  0.0000E+00  0.0000E+00
    -59.961  0.0000E+00  0.0000E+00  0.0000E+00  0.0000E+00  0.0000E+00  0.0000E+00  0.0000E+00  0.0000E+00  0.0000E+00  0.0000E+00  0.0000E+00  0.0000E+00  0.0000E+00  0.0000E+00  0.0000E+00  0.0000E+00  0.0000E+00  0.0000E+00
    -59.687  0.0000E+00  0.0000E+00  0.0000E+00  0.0000E+00  0.0000E+00  0.0000E+00  0.0000E+00  0.0000E+00  0.0000E+00  0.0000E+00  0.0000E+00  0.0000E+00  0.0000E+00  0.0000E+00  0.0000E+00  0.0000E+00  0.0000E+00  0.0000E+00
    -59.414  0.0000E+00  0.0000E+00  0.0000E+00  0.0000E+00  0.0000E+00  0.0000E+00  0.0000E+00  0.0000E+00  0.0000E+00  0.0000E+00  0.0000E+00  0.0000E+00  0.0000E+00  0.0000E+00  0.0000E+00  0.0000E+00  0.0000E+00  0.0000E+00
    -59.141  0.0000E+00  0.0000E+00  0.0000E+00  0.0000E+00  0.0000E+00  0.0000E+00  0.0000E+00  0.0000E+00  0.0000E+00  0.0000E+00  0.0000E+00  0.0000E+00  0.0000E+00  0.0000E+00  0.0000E+00  0.0000E+00  0.0000E+00  0.0000E+00
    -58.867  0.0000E+00  0.0000E+00  0.0000E+00  0.0000E+00  0.0000E+00  0.0000E+00  0.0000E+00  0.0000E+00  0.0000E+00  0.0000E+00  0.0000E+00  0.0000E+00  0.0000E+00  0.0000E+00  0.0000E+00  0.0000E+00  0.0000E+00  0.0000E+00
    -58.594  0.7558E-13  0.2141E-12  0.6280E-06  0.3946E-11  0.6280E-06  0.3946E-11  0.6359E-06  0.1025E-10  0.3106E-14  0.1475E-12  0.1376E-12  0.5896E-14  0.2602E-13  0.4213E-13  0.3106E-14  0.1475E-12  0.2986E-13  0.4071E-13
    -58.321  0.4848E-06  0.9475E-06  0.3625E+01  0.2164E-04  0.3625E+01  0.2164E-04  0.3629E+01  0.4261E-04  0.1728E-07  0.8409E-06  0.8455E-06  0.2302E-07  0.1651E-06  0.2606E-06  0.1728E-07  0.8409E-06  0.1878E-06  0.2334E-06
    -58.047  0.2457E-08  0.3714E-08  0.1932E-01  0.9651E-07  0.1932E-01  0.9651E-07  0.1536E-01  0.1620E-06  0.7849E-10  0.3977E-08  0.4201E-08  0.9231E-10  0.8423E-09  0.1331E-08  0.7849E-10  0.3977E-08  0.9443E-09  0.1142E-08
    -57.774  0.0000E+00  0.0000E+00  0.0000E+00  0.0000E+00  0.0000E+00  0.0000E+00  0.0000E+00  0.0000E+00  0.0000E+00  0.0000E+00  0.0000E+00  0.0000E+00  0.0000E+00  0.0000E+00  0.0000E+00  0.0000E+00  0.0000E+00  0.0000E+00
    -57.501  0.0000E+00  0.0000E+00  0.0000E+00  0.0000E+00  0.0000E+00  0.0000E+00  0.0000E+00  0.0000E+00  0.0000E+00  0.0000E+00  0.0000E+00  0.0000E+00  0.0000E+00  0.0000E+00  0.0000E+00  0.0000E+00  0.0000E+00  0.0000E+00
    -57.228  0.0000E+00  0.0000E+00  0.0000E+00  0.0000E+00  0.0000E+00  0.0000E+00  0.0000E+00  0.0000E+00  0.0000E+00  0.0000E+00  0.0000E+00  0.0000E+00  0.0000E+00  0.0000E+00  0.0000E+00  0.0000E+00  0.0000E+00  0.0000E+00
    -56.954  0.0000E+00  0.0000E+00  0.0000E+00  0.0000E+00  0.0000E+00  0.0000E+00  0.0000E+00  0.0000E+00  0.0000E+00  0.0000E+00  0.0000E+00  0.0000E+00  0.0000E+00  0.0000E+00  0.0000E+00  0.0000E+00  0.0000E+00  0.0000E+00
    -56.681  0.0000E+00  0.0000E+00  0.0000E+00  0.0000E+00  0.0000E+00  0.0000E+00  0.0000E+00  0.0000E+00  0.0000E+00  0.0000E+00  0.0000E+00  0.0000E+00  0.0000E+00  0.0000E+00  0.0000E+00  0.0000E+00  0.0000E+00  0.0000E+00
    -56.408  0.1046E-10  0.3839E-11  0.1757E-09  0.2597E-04  0.1757E-09  0.2597E-04  0.4810E-09  0.2132E-04  0.6715E-11  0.1093E-12  0.2646E-12  0.6681E-11  0.2694E-11  0.9289E-12  0.6715E-11  0.1093E-12  0.2635E-11  0.1064E-11
    -56.134  0.1221E-05  0.5978E-06  0.2626E-04  0.3644E+01  0.2626E-04  0.3644E+01  0.5203E-04  0.3644E+01  0.1022E-05  0.1719E-07  0.2526E-07  0.1000E-05  0.4421E-06  0.1453E-06  0.1022E-05  0.1719E-07  0.3971E-06  0.1642E-06
    -55.861  0.4136E-09  0.2731E-09  0.1098E-07  0.1807E-02  0.1098E-07  0.1807E-02  0.1671E-07  0.1496E-02  0.4544E-09  0.7621E-11  0.8035E-11  0.4455E-09  0.2173E-09  0.6812E-10  0.4544E-09  0.7621E-11  0.1837E-09  0.7492E-10
    -55.588  0.0000E+00  0.0000E+00  0.0000E+00  0.0000E+00  0.0000E+00  0.0000E+00  0.0000E+00  0.0000E+00  0.0000E+00  0.0000E+00  0.0000E+00  0.0000E+00  0.0000E+00  0.0000E+00  0.0000E+00  0.0000E+00  0.0000E+00  0.0000E+00
    -55.314  0.0000E+00  0.0000E+00  0.0000E+00  0.0000E+00  0.0000E+00  0.0000E+00  0.0000E+00  0.0000E+00  0.0000E+00  0.0000E+00  0.0000E+00  0.0000E+00  0.0000E+00  0.0000E+00  0.0000E+00  0.0000E+00  0.0000E+00  0.0000E+00
    -55.041  0.0000E+00  0.0000E+00  0.0000E+00  0.0000E+00  0.0000E+00  0.0000E+00  0.0000E+00  0.0000E+00  0.0000E+00  0.0000E+00  0.0000E+00  0.0000E+00  0.0000E+00  0.0000E+00  0.0000E+00  0.0000E+00  0.0000E+00  0.0000E+00
    -54.768  0.0000E+00  0.0000E+00  0.0000E+00  0.0000E+00  0.0000E+00  0.0000E+00  0.0000E+00  0.0000E+00  0.0000E+00  0.0000E+00  0.0000E+00  0.0000E+00  0.0000E+00  0.0000E+00  0.0000E+00  0.0000E+00  0.0000E+00  0.0000E+00
    -54.494  0.0000E+00  0.0000E+00  0.0000E+00  0.0000E+00  0.0000E+00  0.0000E+00  0.0000E+00  0.0000E+00  0.0000E+00  0.0000E+00  0.0000E+00  0.0000E+00  0.0000E+00  0.0000E+00  0.0000E+00  0.0000E+00  0.0000E+00  0.0000E+00
    -54.221  0.0000E+00  0.0000E+00  0.0000E+00  0.0000E+00  0.0000E+00  0.0000E+00  0.0000E+00  0.0000E+00  0.0000E+00  0.0000E+00  0.0000E+00  0.0000E+00  0.0000E+00  0.0000E+00  0.0000E+00  0.0000E+00  0.0000E+00  0.0000E+00
    -53.948  0.0000E+00  0.0000E+00  0.0000E+00  0.0000E+00  0.0000E+00  0.0000E+00  0.0000E+00  0.0000E+00  0.0000E+00  0.0000E+00  0.0000E+00  0.0000E+00  0.0000E+00  0.0000E+00  0.0000E+00  0.0000E+00  0.0000E+00  0.0000E+00
    -53.675  0.0000E+00  0.0000E+00  0.0000E+00  0.0000E+00  0.0000E+00  0.0000E+00  0.0000E+00  0.0000E+00  0.0000E+00  0.0000E+00  0.0000E+00  0.0000E+00  0.0000E+00  0.0000E+00  0.0000E+00  0.0000E+00  0.0000E+00  0.0000E+00
    -53.401  0.0000E+00  0.0000E+00  0.0000E+00  0.0000E+00  0.0000E+00  0.0000E+00  0.0000E+00  0.0000E+00  0.0000E+00  0.0000E+00  0.0000E+00  0.0000E+00  0.0000E+00  0.0000E+00  0.0000E+00  0.0000E+00  0.0000E+00  0.0000E+00
    -53.128  0.0000E+00  0.0000E+00  0.0000E+00  0.0000E+00  0.0000E+00  0.0000E+00  0.0000E+00  0.0000E+00  0.0000E+00  0.0000E+00  0.0000E+00  0.0000E+00  0.0000E+00  0.0000E+00  0.0000E+00  0.0000E+00  0.0000E+00  0.0000E+00
    -52.855  0.0000E+00  0.0000E+00  0.0000E+00  0.0000E+00  0.0000E+00  0.0000E+00  0.0000E+00  0.0000E+00  0.0000E+00  0.0000E+00  0.0000E+00  0.0000E+00  0.0000E+00  0.0000E+00  0.0000E+00  0.0000E+00  0.0000E+00  0.0000E+00
    -52.581  0.0000E+00  0.0000E+00  0.0000E+00  0.0000E+00  0.0000E+00  0.0000E+00  0.0000E+00  0.0000E+00  0.0000E+00  0.0000E+00  0.0000E+00  0.0000E+00  0.0000E+00  0.0000E+00  0.0000E+00  0.0000E+00  0.0000E+00  0.0000E+00
    -52.308  0.0000E+00  0.0000E+00  0.0000E+00  0.0000E+00  0.0000E+00  0.0000E+00  0.0000E+00  0.0000E+00  0.0000E+00  0.0000E+00  0.0000E+00  0.0000E+00  0.0000E+00  0.0000E+00  0.0000E+00  0.0000E+00  0.0000E+00  0.0000E+00
    -52.035  0.0000E+00  0.0000E+00  0.0000E+00  0.0000E+00  0.0000E+00  0.0000E+00  0.0000E+00  0.0000E+00  0.0000E+00  0.0000E+00  0.0000E+00  0.0000E+00  0.0000E+00  0.0000E+00  0.0000E+00  0.0000E+00  0.0000E+00  0.0000E+00
    -51.761  0.0000E+00  0.0000E+00  0.0000E+00  0.0000E+00  0.0000E+00  0.0000E+00  0.0000E+00  0.0000E+00  0.0000E+00  0.0000E+00  0.0000E+00  0.0000E+00  0.0000E+00  0.0000E+00  0.0000E+00  0.0000E+00  0.0000E+00  0.0000E+00
    -51.488  0.0000E+00  0.0000E+00  0.0000E+00  0.0000E+00  0.0000E+00  0.0000E+00  0.0000E+00  0.0000E+00  0.0000E+00  0.0000E+00  0.0000E+00  0.0000E+00  0.0000E+00  0.0000E+00  0.0000E+00  0.0000E+00  0.0000E+00  0.0000E+00
    -51.215  0.0000E+00  0.0000E+00  0.0000E+00  0.0000E+00  0.0000E+00  0.0000E+00  0.0000E+00  0.0000E+00  0.0000E+00  0.0000E+00  0.0000E+00  0.0000E+00  0.0000E+00  0.0000E+00  0.0000E+00  0.0000E+00  0.0000E+00  0.0000E+00
    -50.942  0.0000E+00  0.0000E+00  0.0000E+00  0.0000E+00  0.0000E+00  0.0000E+00  0.0000E+00  0.0000E+00  0.0000E+00  0.0000E+00  0.0000E+00  0.0000E+00  0.0000E+00  0.0000E+00  0.0000E+00  0.0000E+00  0.0000E+00  0.0000E+00
    -50.668  0.0000E+00  0.0000E+00  0.0000E+00  0.0000E+00  0.0000E+00  0.0000E+00  0.0000E+00  0.0000E+00  0.0000E+00  0.0000E+00  0.0000E+00  0.0000E+00  0.0000E+00  0.0000E+00  0.0000E+00  0.0000E+00  0.0000E+00  0.0000E+00
    -50.395  0.0000E+00  0.0000E+00  0.0000E+00  0.0000E+00  0.0000E+00  0.0000E+00  0.0000E+00  0.0000E+00  0.0000E+00  0.0000E+00  0.0000E+00  0.0000E+00  0.0000E+00  0.0000E+00  0.0000E+00  0.0000E+00  0.0000E+00  0.0000E+00
    -50.122  0.0000E+00  0.0000E+00  0.0000E+00  0.0000E+00  0.0000E+00  0.0000E+00  0.0000E+00  0.0000E+00  0.0000E+00  0.0000E+00  0.0000E+00  0.0000E+00  0.0000E+00  0.0000E+00  0.0000E+00  0.0000E+00  0.0000E+00  0.0000E+00
    -49.848  0.0000E+00  0.0000E+00  0.0000E+00  0.0000E+00  0.0000E+00  0.0000E+00  0.0000E+00  0.0000E+00  0.0000E+00  0.0000E+00  0.0000E+00  0.0000E+00  0.0000E+00  0.0000E+00  0.0000E+00  0.0000E+00  0.0000E+00  0.0000E+00
    -49.575  0.0000E+00  0.0000E+00  0.0000E+00  0.0000E+00  0.0000E+00  0.0000E+00  0.0000E+00  0.0000E+00  0.0000E+00  0.0000E+00  0.0000E+00  0.0000E+00  0.0000E+00  0.0000E+00  0.0000E+00  0.0000E+00  0.0000E+00  0.0000E+00
    -49.302  0.0000E+00  0.0000E+00  0.0000E+00  0.0000E+00  0.0000E+00  0.0000E+00  0.0000E+00  0.0000E+00  0.0000E+00  0.0000E+00  0.0000E+00  0.0000E+00  0.0000E+00  0.0000E+00  0.0000E+00  0.0000E+00  0.0000E+00  0.0000E+00
    -49.028  0.0000E+00  0.0000E+00  0.0000E+00  0.0000E+00  0.0000E+00  0.0000E+00  0.0000E+00  0.0000E+00  0.0000E+00  0.0000E+00  0.0000E+00  0.0000E+00  0.0000E+00  0.0000E+00  0.0000E+00  0.0000E+00  0.0000E+00  0.0000E+00
    -48.755  0.0000E+00  0.0000E+00  0.0000E+00  0.0000E+00  0.0000E+00  0.0000E+00  0.0000E+00  0.0000E+00  0.0000E+00  0.0000E+00  0.0000E+00  0.0000E+00  0.0000E+00  0.0000E+00  0.0000E+00  0.0000E+00  0.0000E+00  0.0000E+00
    -48.482  0.0000E+00  0.0000E+00  0.0000E+00  0.0000E+00  0.0000E+00  0.0000E+00  0.0000E+00  0.0000E+00  0.0000E+00  0.0000E+00  0.0000E+00  0.0000E+00  0.0000E+00  0.0000E+00  0.0000E+00  0.0000E+00  0.0000E+00  0.0000E+00