    8    8    1    2
  0.9103145E+01  0.4176000E-09  0.4176000E-09  0.4176000E-09  0.5000000E-15
  1.000000000000000E-004
  CAR 
 bulk_NiO                                
     88     40     52
 
  0.6250000E-01  0.6250000E-01  0.6250000E-01  0.1562500E-01
    1      -58.418649    -58.418649   1.000000   1.000000
    2      -58.417946    -58.417946   1.000000   1.000000
    3      -58.415197    -58.415197   1.000000   1.000000
    4      -58.412631    -58.412631   1.000000   1.000000
    5      -58.406191    -58.406191   1.000000   1.000000
    6      -58.405430    -58.405430   1.000000   1.000000
    7      -56.259664    -56.259664   1.000000   1.000000
    8      -56.258861    -56.258861   1.000000   1.000000
    9      -56.253938    -56.253938   1.000000   1.000000
   10      -56.251312    -56.251312   1.000000   1.000000
   11      -56.245628    -56.245628   1.000000   1.000000
   12      -56.244729    -56.244729   1.000000   1.000000
   13      -12.763343    -12.763343   1.000000   1.000000
   14      -11.457128    -11.457128   1.000000   1.000000
   15      -11.330610    -11.330610   1.000000   1.000000
   16      -11.205585    -11.205585   1.000000   1.000000
   17        0.323850      0.323850   1.000000   1.000000
   18        0.333241      0.333241   1.000000   1.000000
   19        0.366389      0.366389   1.000000   1.000000
   20        0.452652      0.452652   1.000000   1.000000
   21        0.819304      0.819304   1.000000   1.000000
   22        0.871999      0.871999   1.000000   1.000000
   23        0.922280      0.922280   1.000000   1.000000
   24        0.963685      0.963685   1.000000   1.000000
   25        0.999056      0.999056   1.000000   1.000000
   26        1.338120      1.338120   1.000000   1.000000
   27        1.535240      1.535240   1.000000   1.000000
   28        1.539463      1.539463   1.000000   1.000000
   29        2.085770      2.085770   1.000000   1.000000
   30        2.150495      2.150495   1.000000   1.000000
   31        2.782295      2.782295   1.000000   1.000000
   32        2.906883      2.906883   1.000000   1.000000
   33        2.978752      2.978752   1.000000   1.000000
   34        2.981758      2.981758   1.000000   1.000000
   35        3.204948      3.204948   1.000000   1.000000
   36        3.335495      3.335495   1.000000   1.000000
   37        3.344112      3.344112   1.000000   1.000000
   38        3.373661      3.373661   1.000000   1.000000
   39        3.432573      3.432573   1.000000   1.000000
   40        3.456364      3.456364   1.000000   1.000000
   41        3.575374      3.575374   1.000000   1.000000
   42        4.446980      4.446980   1.000000   1.000000
   43        4.692647      4.692647   1.000000   1.000000
   44        4.702636      4.702636   1.000000   1.000000
   45        8.770491      8.770491   0.000000   0.000000
   46        9.003642      9.003642   0.000000   0.000000
   47        9.100593      9.100593   0.000000   0.000000
   48        9.143947      9.143947   0.000000   0.000000
   49        9.309225      9.309225   0.000000   0.000000
   50       13.226426     13.226426   0.000000   0.000000
   51       13.478114     13.478114   0.000000   0.000000
   52       13.719549     13.719549   0.000000   0.000000
 
  0.1875000E+00  0.6250000E-01  0.6250000E-01  0.1562500E-01
    1      -58.418477    -58.418477   1.000000   1.000000
    2      -58.417944    -58.417944   1.000000   1.000000
    3      -58.415020    -58.415020   1.000000   1.000000
    4      -58.412738    -58.412738   1.000000   1.000000
    5      -58.405972    -58.405972   1.000000   1.000000
    6      -58.405424    -58.405424   1.000000   1.000000
    7      -56.259521    -56.259521   1.000000   1.000000
    8      -56.258905    -56.258905   1.000000   1.000000
    9      -56.253841    -56.253841   1.000000   1.000000
   10      -56.251399    -56.251399   1.000000   1.000000
   11      -56.245400    -56.245400   1.000000   1.000000
   12      -56.244705    -56.244705   1.000000   1.000000
   13      -12.643556    -12.643556   1.000000   1.000000
   14      -11.432977    -11.432977   1.000000   1.000000
   15      -11.416230    -11.416230   1.000000   1.000000
   16      -11.159594    -11.159594   1.000000   1.000000
   17       -0.222963     -0.222963   1.000000   1.000000
   18        0.217172      0.217172   1.000000   1.000000
   19        0.305280      0.305280   1.000000   1.000000
   20        0.450405      0.450405   1.000000   1.000000
   21        0.502083      0.502083   1.000000   1.000000
   22        0.785035      0.785035   1.000000   1.000000
   23        0.846796      0.846796   1.000000   1.000000
   24        0.871473      0.871473   1.000000   1.000000
   25        1.236366      1.236366   1.000000   1.000000
   26        1.411438      1.411438   1.000000   1.000000
   27        1.491543      1.491543   1.000000   1.000000
   28        1.597791      1.597791   1.000000   1.000000
   29        2.094142      2.094142   1.000000   1.000000
   30        2.140678      2.140678   1.000000   1.000000
   31        2.691309      2.691309   1.000000   1.000000
   32        2.708884      2.708884   1.000000   1.000000
   33        2.867961      2.867961   1.000000   1.000000
   34        2.874435      2.874435   1.000000   1.000000
   35        3.014656      3.014656   1.000000   1.000000
   36        3.352818      3.352818   1.000000   1.000000
   37        3.458891      3.458891   1.000000   1.000000
   38        3.622941      3.622941   1.000000   1.000000
   39        3.736108      3.736108   1.000000   1.000000
   40        3.779946      3.779946   1.000000   1.000000
   41        3.786646      3.786646   1.000000   1.000000
   42        4.069092      4.069092   1.000000   1.000000
   43        4.714210      4.714210   1.000000   1.000000
   44        4.744361      4.744361   1.000000   1.000000
   45        8.768907      8.768907   0.000000   0.000000
   46        9.119843      9.119843   0.000000   0.000000
   47        9.310101      9.310101   0.000000   0.000000
   48        9.370831      9.370831   0.000000   0.000000
   49        9.948371      9.948371   0.000000   0.000000
   50       13.701778     13.701778   0.000000   0.000000
   51       13.728149     13.728149   0.000000   0.000000
   52       14.202760     14.202760   0.000000   0.000000
 
  0.6250000E-01  0.1875000E+00  0.6250000E-01  0.3125000E-01
    1      -58.418143    -58.418143   1.000000   1.000000
    2      -58.416320    -58.416320   1.000000   1.000000
    3      -58.414857    -58.414857   1.000000   1.000000
    4      -58.412774    -58.412774   1.000000   1.000000
    5      -58.407639    -58.407639   1.000000   1.000000
    6      -58.405867    -58.405867   1.000000   1.000000
    7      -56.259126    -56.259126   1.000000   1.000000
    8      -56.257054    -56.257054   1.000000   1.000000
    9      -56.253604    -56.253604   1.000000   1.000000
   10      -56.251468    -56.251468   1.000000   1.000000
   11      -56.247264    -56.247264   1.000000   1.000000
   12      -56.245232    -56.245232   1.000000   1.000000
   13      -12.642238    -12.642238   1.000000   1.000000
   14      -11.483702    -11.483702   1.000000   1.000000
   15      -11.296003    -11.296003   1.000000   1.000000
   16      -11.232112    -11.232112   1.000000   1.000000
   17       -0.184912     -0.184912   1.000000   1.000000
   18        0.129516      0.129516   1.000000   1.000000
   19        0.318839      0.318839   1.000000   1.000000
   20        0.327861      0.327861   1.000000   1.000000
   21        0.680023      0.680023   1.000000   1.000000
   22        0.780494      0.780494   1.000000   1.000000
   23        0.951886      0.951886   1.000000   1.000000
   24        0.955914      0.955914   1.000000   1.000000
   25        0.998608      0.998608   1.000000   1.000000
   26        1.484863      1.484863   1.000000   1.000000
   27        1.487546      1.487546   1.000000   1.000000
   28        1.592458      1.592458   1.000000   1.000000
   29        2.038434      2.038434   1.000000   1.000000
   30        2.077076      2.077076   1.000000   1.000000
   31        2.491391      2.491391   1.000000   1.000000
   32        2.894659      2.894659   1.000000   1.000000
   33        2.985098      2.985098   1.000000   1.000000
   34        3.078357      3.078357   1.000000   1.000000
   35        3.183442      3.183442   1.000000   1.000000
   36        3.295969      3.295969   1.000000   1.000000
   37        3.372995      3.372995   1.000000   1.000000
   38        3.461915      3.461915   1.000000   1.000000
   39        3.506085      3.506085   1.000000   1.000000
   40        3.804097      3.804097   1.000000   1.000000
   41        3.878255      3.878255   1.000000   1.000000
   42        4.080664      4.080664   1.000000   1.000000
   43        4.721449      4.721449   1.000000   1.000000
   44        4.746632      4.746632   1.000000   1.000000
   45        8.914620      8.914620   0.000000   0.000000
   46        9.102626      9.102626   0.000000   0.000000
   47        9.114894      9.114894   0.000000   0.000000
   48        9.438429      9.438429   0.000000   0.000000
   49        9.959108      9.959108   0.000000   0.000000
   50       13.548046     13.548046   0.000000   0.000000
   51       13.971515     13.971515   0.000000   0.000000
   52       14.112008     14.112008   0.000000   0.000000
 
  0.3125000E+00  0.6250000E-01  0.6250000E-01  0.1562500E-01
    1      -58.418573    -58.418573   1.000000   1.000000
    2      -58.417938    -58.417938   1.000000   1.000000
    3      -58.415035    -58.415035   1.000000   1.000000
    4      -58.412902    -58.412902   1.000000   1.000000
    5      -58.406001    -58.406001   1.000000   1.000000
    6      -58.405429    -58.405429   1.000000   1.000000
    7      -56.259666    -56.259666   1.000000   1.000000
    8      -56.258921    -56.258921   1.000000   1.000000
    9      -56.253950    -56.253950   1.000000   1.000000
   10      -56.251451    -56.251451   1.000000   1.000000
   11      -56.245417    -56.245417   1.000000   1.000000
   12      -56.244714    -56.244714   1.000000   1.000000
   13      -12.425822    -12.425822   1.000000   1.000000
   14      -11.586816    -11.586816   1.000000   1.000000
   15      -11.398510    -11.398510   1.000000   1.000000
   16      -11.093006    -11.093006   1.000000   1.000000
   17       -0.658680     -0.658680   1.000000   1.000000
   18       -0.242639     -0.242639   1.000000   1.000000
   19        0.272217      0.272217   1.000000   1.000000
   20        0.401957      0.401957   1.000000   1.000000
   21        0.446753      0.446753   1.000000   1.000000
   22        0.629422      0.629422   1.000000   1.000000
   23        0.734278      0.734278   1.000000   1.000000
   24        0.881287      0.881287   1.000000   1.000000
   25        1.160448      1.160448   1.000000   1.000000
   26        1.426100      1.426100   1.000000   1.000000
   27        1.461531      1.461531   1.000000   1.000000
   28        1.731238      1.731238   1.000000   1.000000
   29        2.100618      2.100618   1.000000   1.000000
   30        2.121069      2.121069   1.000000   1.000000
   31        2.405726      2.405726   1.000000   1.000000
   32        2.504118      2.504118   1.000000   1.000000
   33        2.639268      2.639268   1.000000   1.000000
   34        2.888139      2.888139   1.000000   1.000000
   35        2.982835      2.982835   1.000000   1.000000
   36        3.448174      3.448174   1.000000   1.000000
   37        3.592791      3.592791   1.000000   1.000000
   38        3.697411      3.697411   1.000000   1.000000
   39        3.780941      3.780941   1.000000   1.000000
   40        4.106487      4.106487   1.000000   1.000000
   41        4.131180      4.131180   1.000000   1.000000
   42        4.134513      4.134513   1.000000   1.000000
   43        4.718144      4.718144   1.000000   1.000000
   44        4.756349      4.756349   1.000000   1.000000
   45        8.766600      8.766600   0.000000   0.000000
   46        9.219701      9.219701   0.000000   0.000000
   47        9.309688      9.309688   0.000000   0.000000
   48        9.664709      9.664709   0.000000   0.000000
   49       11.149446     11.149446   0.000000   0.000000
   50       13.851860     13.851860   0.000000   0.000000
   51       14.592551     14.592551   0.000000   0.000000
   52       15.091054     15.091054   0.000000   0.000000
 
  0.6250000E-01  0.3125000E+00  0.6250000E-01  0.3125000E-01
    1      -58.416832    -58.416832   1.000000   1.000000
    2      -58.414516    -58.414516   1.000000   1.000000
    3      -58.414325    -58.414325   1.000000   1.000000
    4      -58.413173    -58.413173   1.000000   1.000000
    5      -58.409890    -58.409890   1.000000   1.000000
    6      -58.407200    -58.407200   1.000000   1.000000
    7      -56.257642    -56.257642   1.000000   1.000000
    8      -56.254755    -56.254755   1.000000   1.000000
    9      -56.253254    -56.253254   1.000000   1.000000
   10      -56.251908    -56.251908   1.000000   1.000000
   11      -56.249795    -56.249795   1.000000   1.000000
   12      -56.246710    -56.246710   1.000000   1.000000
   13      -12.420836    -12.420836   1.000000   1.000000
   14      -11.614041    -11.614041   1.000000   1.000000
   15      -11.246009    -11.246009   1.000000   1.000000
   16      -11.227433    -11.227433   1.000000   1.000000
   17       -0.621747     -0.621747   1.000000   1.000000
   18       -0.338225     -0.338225   1.000000   1.000000
   19        0.308333      0.308333   1.000000   1.000000
   20        0.312896      0.312896   1.000000   1.000000
   21        0.531959      0.531959   1.000000   1.000000
   22        0.598287      0.598287   1.000000   1.000000
   23        0.932992      0.932992   1.000000   1.000000
   24        0.951982      0.951982   1.000000   1.000000
   25        1.071641      1.071641   1.000000   1.000000
   26        1.391876      1.391876   1.000000   1.000000
   27        1.523499      1.523499   1.000000   1.000000
   28        1.656916      1.656916   1.000000   1.000000
   29        1.901311      1.901311   1.000000   1.000000
   30        2.029430      2.029430   1.000000   1.000000
   31        2.232343      2.232343   1.000000   1.000000
   32        2.800994      2.800994   1.000000   1.000000
   33        2.908200      2.908200   1.000000   1.000000
   34        2.983125      2.983125   1.000000   1.000000
   35        3.241296      3.241296   1.000000   1.000000
   36        3.244863      3.244863   1.000000   1.000000
   37        3.460918      3.460918   1.000000   1.000000
   38        3.464097      3.464097   1.000000   1.000000
   39        3.728899      3.728899   1.000000   1.000000
   40        4.006945      4.006945   1.000000   1.000000
   41        4.185170      4.185170   1.000000   1.000000
   42        4.219925      4.219925   1.000000   1.000000
   43        4.725734      4.725734   1.000000   1.000000
   44        4.784252      4.784252   1.000000   1.000000
   45        8.979181      8.979181   0.000000   0.000000
   46        9.099490      9.099490   0.000000   0.000000
   47        9.301251      9.301251   0.000000   0.000000
   48        9.567014      9.567014   0.000000   0.000000
   49       11.187257     11.187257   0.000000   0.000000
   50       13.768766     13.768766   0.000000   0.000000
   51       14.852317     14.852317   0.000000   0.000000
   52       14.905582     14.905582   0.000000   0.000000
 
  0.4375000E+00  0.6250000E-01  0.6250000E-01  0.1562500E-01
    1      -58.418559    -58.418559   1.000000   1.000000
    2      -58.417989    -58.417989   1.000000   1.000000
    3      -58.414928    -58.414928   1.000000   1.000000
    4      -58.412910    -58.412910   1.000000   1.000000
    5      -58.406202    -58.406202   1.000000   1.000000
    6      -58.405519    -58.405519   1.000000   1.000000
    7      -56.259599    -56.259599   1.000000   1.000000
    8      -56.259005    -56.259005   1.000000   1.000000
    9      -56.253932    -56.253932   1.000000   1.000000
   10      -56.251485    -56.251485   1.000000   1.000000
   11      -56.245582    -56.245582   1.000000   1.000000
   12      -56.244824    -56.244824   1.000000   1.000000
   13      -12.160016    -12.160016   1.000000   1.000000
   14      -11.820158    -11.820158   1.000000   1.000000
   15      -11.373892    -11.373892   1.000000   1.000000
   16      -11.044578    -11.044578   1.000000   1.000000
   17       -0.886901     -0.886901   1.000000   1.000000
   18       -0.558116     -0.558116   1.000000   1.000000
   19        0.255657      0.255657   1.000000   1.000000
   20        0.397213      0.397213   1.000000   1.000000
   21        0.443689      0.443689   1.000000   1.000000
   22        0.526850      0.526850   1.000000   1.000000
   23        0.624932      0.624932   1.000000   1.000000
   24        0.909995      0.909995   1.000000   1.000000
   25        1.053054      1.053054   1.000000   1.000000
   26        1.381460      1.381460   1.000000   1.000000
   27        1.480499      1.480499   1.000000   1.000000
   28        1.783881      1.783881   1.000000   1.000000
   29        2.103058      2.103058   1.000000   1.000000
   30        2.109723      2.109723   1.000000   1.000000
   31        2.192824      2.192824   1.000000   1.000000
   32        2.397807      2.397807   1.000000   1.000000
   33        2.401511      2.401511   1.000000   1.000000
   34        2.922681      2.922681   1.000000   1.000000
   35        3.063881      3.063881   1.000000   1.000000
   36        3.497870      3.497870   1.000000   1.000000
   37        3.670824      3.670824   1.000000   1.000000
   38        3.708430      3.708430   1.000000   1.000000
   39        3.749157      3.749157   1.000000   1.000000
   40        4.326702      4.326702   1.000000   1.000000
   41        4.370317      4.370317   1.000000   1.000000
   42        4.394529      4.394529   1.000000   1.000000
   43        4.667342      4.667342   1.000000   1.000000
   44        4.710975      4.710975   1.000000   1.000000
   45        8.764807      8.764807   0.000000   0.000000
   46        9.277473      9.277473   0.000000   0.000000
   47        9.308496      9.308496   0.000000   0.000000
   48        9.824557      9.824557   0.000000   0.000000
   49       12.311571     12.311571   0.000000   0.000000
   50       13.506422     13.506422   0.000000   0.000000
   51       15.420773     15.420773   0.000000   0.000000
   52       16.001733     16.001733   0.000000   0.000000
 
  0.6250000E-01  0.4375000E+00  0.6250000E-01  0.3125000E-01
    1      -58.414793    -58.414793   1.000000   1.000000
    2      -58.414189    -58.414189   1.000000   1.000000
    3      -58.413667    -58.413667   1.000000   1.000000
    4      -58.412449    -58.412449   1.000000   1.000000
    5      -58.411720    -58.411720   1.000000   1.000000
    6      -58.409366    -58.409366   1.000000   1.000000
    7      -56.255322    -56.255322   1.000000   1.000000
    8      -56.252925    -56.252925   1.000000   1.000000
    9      -56.252690    -56.252690   1.000000   1.000000
   10      -56.252388    -56.252388   1.000000   1.000000
   11      -56.251819    -56.251819   1.000000   1.000000
   12      -56.249205    -56.249205   1.000000   1.000000
   13      -12.139278    -12.139278   1.000000   1.000000
   14      -11.850746    -11.850746   1.000000   1.000000
   15      -11.209122    -11.209122   1.000000   1.000000
   16      -11.205462    -11.205462   1.000000   1.000000
   17       -0.807336     -0.807336   1.000000   1.000000
   18       -0.699328     -0.699328   1.000000   1.000000
   19        0.329506      0.329506   1.000000   1.000000
   20        0.347665      0.347665   1.000000   1.000000
   21        0.409574      0.409574   1.000000   1.000000
   22        0.444855      0.444855   1.000000   1.000000
   23        0.927648      0.927648   1.000000   1.000000
   24        0.937494      0.937494   1.000000   1.000000
   25        1.166788      1.166788   1.000000   1.000000
   26        1.277904      1.277904   1.000000   1.000000
   27        1.577534      1.577534   1.000000   1.000000
   28        1.678933      1.678933   1.000000   1.000000
   29        1.828464      1.828464   1.000000   1.000000
   30        1.922398      1.922398   1.000000   1.000000
   31        2.152868      2.152868   1.000000   1.000000
   32        2.338240      2.338240   1.000000   1.000000
   33        2.933900      2.933900   1.000000   1.000000
   34        2.960322      2.960322   1.000000   1.000000
   35        3.346861      3.346861   1.000000   1.000000
   36        3.386752      3.386752   1.000000   1.000000
   37        3.436198      3.436198   1.000000   1.000000
   38        3.475306      3.475306   1.000000   1.000000
   39        3.922652      3.922652   1.000000   1.000000
   40        4.010736      4.010736   1.000000   1.000000
   41        4.479608      4.479608   1.000000   1.000000
   42        4.522687      4.522687   1.000000   1.000000
   43        4.656440      4.656440   1.000000   1.000000
   44        4.719791      4.719791   1.000000   1.000000
   45        9.025552      9.025552   0.000000   0.000000
   46        9.066811      9.066811   0.000000   0.000000
   47        9.480094      9.480094   0.000000   0.000000
   48        9.580444      9.580444   0.000000   0.000000
   49       12.423746     12.423746   0.000000   0.000000
   50       13.385027     13.385027   0.000000   0.000000
   51       15.729094     15.729094   0.000000   0.000000
   52       15.740703     15.740703   0.000000   0.000000
 
  0.1875000E+00  0.1875000E+00  0.6250000E-01  0.3125000E-01
    1      -58.418230    -58.418230   1.000000   1.000000
    2      -58.416487    -58.416487   1.000000   1.000000
    3      -58.414948    -58.414948   1.000000   1.000000
    4      -58.413006    -58.413006   1.000000   1.000000
    5      -58.407749    -58.407749   1.000000   1.000000
    6      -58.405919    -58.405919   1.000000   1.000000
    7      -56.259208    -56.259208   1.000000   1.000000
    8      -56.257232    -56.257232   1.000000   1.000000
    9      -56.253762    -56.253762   1.000000   1.000000
   10      -56.251674    -56.251674   1.000000   1.000000
   11      -56.247370    -56.247370   1.000000   1.000000
   12      -56.245284    -56.245284   1.000000   1.000000
   13      -12.526691    -12.526691   1.000000   1.000000
   14      -11.454056    -11.454056   1.000000   1.000000
   15      -11.372612    -11.372612   1.000000   1.000000
   16      -11.190883    -11.190883   1.000000   1.000000
   17       -0.227344     -0.227344   1.000000   1.000000
   18       -0.202279     -0.202279   1.000000   1.000000
   19        0.142239      0.142239   1.000000   1.000000
   20        0.230044      0.230044   1.000000   1.000000
   21        0.409511      0.409511   1.000000   1.000000
   22        0.630890      0.630890   1.000000   1.000000
   23        0.703200      0.703200   1.000000   1.000000
   24        0.877205      0.877205   1.000000   1.000000
   25        1.012300      1.012300   1.000000   1.000000
   26        1.418074      1.418074   1.000000   1.000000
   27        1.623072      1.623072   1.000000   1.000000
   28        1.666939      1.666939   1.000000   1.000000
   29        2.084370      2.084370   1.000000   1.000000
   30        2.106535      2.106535   1.000000   1.000000
   31        2.680348      2.680348   1.000000   1.000000
   32        2.739221      2.739221   1.000000   1.000000
   33        2.801180      2.801180   1.000000   1.000000
   34        2.866189      2.866189   1.000000   1.000000
   35        3.143542      3.143542   1.000000   1.000000
   36        3.373680      3.373680   1.000000   1.000000
   37        3.538007      3.538007   1.000000   1.000000
   38        3.588566      3.588566   1.000000   1.000000
   39        3.755431      3.755431   1.000000   1.000000
   40        3.907187      3.907187   1.000000   1.000000
   41        3.923322      3.923322   1.000000   1.000000
   42        4.141025      4.141025   1.000000   1.000000
   43        4.740193      4.740193   1.000000   1.000000
   44        4.906984      4.906984   1.000000   1.000000
   45        8.927878      8.927878   0.000000   0.000000
   46        9.314855      9.314855   0.000000   0.000000
   47        9.432264      9.432264   0.000000   0.000000
   48        9.546025      9.546025   0.000000   0.000000
   49       10.414069     10.414069   0.000000   0.000000
   50       13.986428     13.986428   0.000000   0.000000
   51       14.130773     14.130773   0.000000   0.000000
   52       14.496732     14.496732   0.000000   0.000000
 
  0.6250000E-01  0.1875000E+00  0.1875000E+00  0.1562500E-01
    1      -58.418999    -58.418999   1.000000   1.000000
    2      -58.414834    -58.414834   1.000000   1.000000
    3      -58.414097    -58.414097   1.000000   1.000000
    4      -58.413007    -58.413007   1.000000   1.000000
    5      -58.410209    -58.410209   1.000000   1.000000
    6      -58.405200    -58.405200   1.000000   1.000000
    7      -56.260050    -56.260050   1.000000   1.000000
    8      -56.254531    -56.254531   1.000000   1.000000
    9      -56.253589    -56.253589   1.000000   1.000000
   10      -56.251698    -56.251698   1.000000   1.000000
   11      -56.250138    -56.250138   1.000000   1.000000
   12      -56.244518    -56.244518   1.000000   1.000000
   13      -12.525337    -12.525337   1.000000   1.000000
   14      -11.470997    -11.470997   1.000000   1.000000
   15      -11.279604    -11.279604   1.000000   1.000000
   16      -11.269687    -11.269687   1.000000   1.000000
   17       -0.242014     -0.242014   1.000000   1.000000
   18       -0.159064     -0.159064   1.000000   1.000000
   19       -0.006067     -0.006067   1.000000   1.000000
   20        0.214066      0.214066   1.000000   1.000000
   21        0.365627      0.365627   1.000000   1.000000
   22        0.696861      0.696861   1.000000   1.000000
   23        0.940453      0.940453   1.000000   1.000000
   24        1.014271      1.014271   1.000000   1.000000
   25        1.171353      1.171353   1.000000   1.000000
   26        1.302112      1.302112   1.000000   1.000000
   27        1.443930      1.443930   1.000000   1.000000
   28        1.580565      1.580565   1.000000   1.000000
   29        1.830138      1.830138   1.000000   1.000000
   30        2.130751      2.130751   1.000000   1.000000
   31        2.396643      2.396643   1.000000   1.000000
   32        2.873600      2.873600   1.000000   1.000000
   33        3.007656      3.007656   1.000000   1.000000
   34        3.155591      3.155591   1.000000   1.000000
   35        3.343451      3.343451   1.000000   1.000000
   36        3.435170      3.435170   1.000000   1.000000
   37        3.450829      3.450829   1.000000   1.000000
   38        3.534594      3.534594   1.000000   1.000000
   39        3.584366      3.584366   1.000000   1.000000
   40        3.789539      3.789539   1.000000   1.000000
   41        3.964130      3.964130   1.000000   1.000000
   42        4.096851      4.096851   1.000000   1.000000
   43        4.749952      4.749952   1.000000   1.000000
   44        4.904941      4.904941   1.000000   1.000000
   45        9.097313      9.097313   0.000000   0.000000
   46        9.163821      9.163821   0.000000   0.000000
   47        9.366929      9.366929   0.000000   0.000000
   48        9.593714      9.593714   0.000000   0.000000
   49       10.424494     10.424494   0.000000   0.000000
   50       13.891479     13.891479   0.000000   0.000000
   51       14.354799     14.354799   0.000000   0.000000
   52       14.365953     14.365953   0.000000   0.000000
 
  0.3125000E+00  0.1875000E+00  0.6250000E-01  0.3125000E-01
    1      -58.418172    -58.418172   1.000000   1.000000
    2      -58.416451    -58.416451   1.000000   1.000000
    3      -58.414777    -58.414777   1.000000   1.000000
    4      -58.413015    -58.413015   1.000000   1.000000
    5      -58.407720    -58.407720   1.000000   1.000000
    6      -58.405855    -58.405855   1.000000   1.000000
    7      -56.259164    -56.259164   1.000000   1.000000
    8      -56.257225    -56.257225   1.000000   1.000000
    9      -56.253683    -56.253683   1.000000   1.000000
   10      -56.251645    -56.251645   1.000000   1.000000
   11      -56.247325    -56.247325   1.000000   1.000000
   12      -56.245206    -56.245206   1.000000   1.000000
   13      -12.317333    -12.317333   1.000000   1.000000
   14      -11.527188    -11.527188   1.000000   1.000000
   15      -11.412129    -11.412129   1.000000   1.000000
   16      -11.130016    -11.130016   1.000000   1.000000
   17       -0.658310     -0.658310   1.000000   1.000000
   18       -0.322698     -0.322698   1.000000   1.000000
   19       -0.121370     -0.121370   1.000000   1.000000
   20        0.123076      0.123076   1.000000   1.000000
   21        0.208546      0.208546   1.000000   1.000000
   22        0.450091      0.450091   1.000000   1.000000
   23        0.689426      0.689426   1.000000   1.000000
   24        0.708970      0.708970   1.000000   1.000000
   25        0.855757      0.855757   1.000000   1.000000
   26        1.327297      1.327297   1.000000   1.000000
   27        1.737849      1.737849   1.000000   1.000000
   28        1.791171      1.791171   1.000000   1.000000
   29        2.121799      2.121799   1.000000   1.000000
   30        2.142539      2.142539   1.000000   1.000000
   31        2.510272      2.510272   1.000000   1.000000
   32        2.594105      2.594105   1.000000   1.000000
   33        2.712295      2.712295   1.000000   1.000000
   34        2.822930      2.822930   1.000000   1.000000
   35        2.919930      2.919930   1.000000   1.000000