 vasp.6.2.0 18Jan21 (build Aug 12 2022 13:00:08) complex                        
  
 executed on             LinuxIFC date 2024.11.12  08:35:53
 running on    4 total cores
 distrk:  each k-point on    4 cores,    1 groups
 distr:  one band on NCORE=   1 cores,    4 groups


--------------------------------------------------------------------------------------------------------


 INCAR:
   SYSTEM = bulk_NiO
   ISTART = 0
   ICHARG = 2
   ISMEAR = 0
   SIGMA = 0.05
   ENCUT = 500
   ISIF = 2
   IBRION = -1
   ISPIN = 2
   MAGMOM = 3 3 -3 -3 4*0
   NSW = 0
   PREC = Accurate
   ALGO = Normal
   EDIFF = 0.1E-05
   EDIFFG = -0.001
   LORBIT = 11
   LMAXMIX = 4
   LREAL = Auto
   LDAU = .TRUE.
   LDAUTYPE = 2
   LDAUL = 2 0
   LDAUU = 6.2 0
   LDAUJ = 0 0
   LDAUPRINT = 0

 POTCAR:    PAW_PBE Ni_pv 06Sep2000               
 POTCAR:    PAW_PBE O 08Apr2002                   
 POTCAR:    PAW_PBE Ni_pv 06Sep2000               
   VRHFIN =Ni:                                                                                      
   LEXCH  = PE                                                                                      
   EATOM  =  3501.1230 eV,  257.3253 Ry                                                             
                                                                                                    
   TITEL  = PAW_PBE Ni_pv 06Sep2000                                                                 
   LULTRA =        F    use ultrasoft PP ?                                                          
   IUNSCR =        1    unscreen: 0-lin 1-nonlin 2-no                                               
   RPACOR =    1.500    partial core radius                                                         
   POMASS =   58.690; ZVAL   =   16.000    mass and valenz                                          
   RCORE  =    2.000    outmost cutoff radius                                                       
   RWIGS  =    2.000; RWIGS  =    1.058    wigner-seitz radius (au A)                               
   ENMAX  =  367.986; ENMIN  =  275.989 eV                                                          
   RCLOC  =    1.301    cutoff for local pot                                                        
   LCOR   =        T    correct aug charges                                                         
   LPAW   =        T    paw PP                                                                      
   EAUG   =  703.443                                                                                
   DEXC   =    0.000                                                                                
   RMAX   =    2.041    core radius for proj-oper                                                   
   RAUG   =    1.300    factor for augmentation sphere                                              
   RDEP   =    2.103    radius for radial grids                                                     
   RDEPT  =    1.618    core radius for aug-charge                                                  
                                                                                                    
   Atomic configuration                                                                             
    8 entries                                                                                       
     n  l   j            E        occ.                                                              
     1  0  0.50     -8206.4253   2.0000                                                             
     2  0  0.50      -976.1748   2.0000                                                             
     2  1  1.50      -839.0571   6.0000                                                             
     3  0  0.50      -105.9991   2.0000                                                             
     3  1  1.50       -66.4603   6.0000                                                             
     3  2  2.50        -4.6458   9.0000                                                             
     4  0  0.50        -4.4926   1.0000                                                             
     4  3  2.50        -1.3606   0.0000                                                             
   Description                                                                                      
     l       E           TYP  RCUT    TYP  RCUT                                                     
     1    -66.4602962     23  1.700                                                                 
     1     -1.3605826     23  1.700                                                                 
     2     -4.6457867     23  2.000                                                                 
     2     -6.0063693     23  2.000                                                                 
     0     -4.4925576     23  1.900                                                                 
     0     16.3626226     23  1.900                                                                 
  local pseudopotential read in
  partial core-charges read in
  partial kinetic energy density read in
  atomic valenz-charges read in
  non local Contribution for L=           1  read in
    real space projection operators read in
  non local Contribution for L=           1  read in
    real space projection operators read in
  non local Contribution for L=           2  read in
    real space projection operators read in
  non local Contribution for L=           2  read in
    real space projection operators read in
  non local Contribution for L=           0  read in
    real space projection operators read in
  non local Contribution for L=           0  read in
    real space projection operators read in
    PAW grid and wavefunctions read in
 
   number of l-projection  operators is LMAX  =           6
   number of lm-projection operators is LMMAX =          18
 
 POTCAR:    PAW_PBE O 08Apr2002                   
   VRHFIN =O: s2p4                                                                                  
   LEXCH  = PE                                                                                      
   EATOM  =   432.3788 eV,   31.7789 Ry                                                             
                                                                                                    
   TITEL  = PAW_PBE O 08Apr2002                                                                     
   LULTRA =        F    use ultrasoft PP ?                                                          
   IUNSCR =        1    unscreen: 0-lin 1-nonlin 2-no                                               
   RPACOR =    1.200    partial core radius                                                         
   POMASS =   16.000; ZVAL   =    6.000    mass and valenz                                          
   RCORE  =    1.520    outmost cutoff radius                                                       
   RWIGS  =    1.550; RWIGS  =    0.820    wigner-seitz radius (au A)                               
   ENMAX  =  400.000; ENMIN  =  300.000 eV                                                          
   ICORE  =        2    local potential                                                             
   LCOR   =        T    correct aug charges                                                         
   LPAW   =        T    paw PP                                                                      
   EAUG   =  605.392                                                                                
   DEXC   =    0.000                                                                                
   RMAX   =    1.553    core radius for proj-oper                                                   
   RAUG   =    1.300    factor for augmentation sphere                                              
   RDEP   =    1.550    radius for radial grids                                                     
   RDEPT  =    1.329    core radius for aug-charge                                                  
                                                                                                    
   Atomic configuration                                                                             
    4 entries                                                                                       
     n  l   j            E        occ.                                                              
     1  0  0.50      -514.6923   2.0000                                                             
     2  0  0.50       -23.9615   2.0000                                                             
     2  1  0.50        -9.0305   4.0000                                                             
     3  2  1.50        -9.5241   0.0000                                                             
   Description                                                                                      
     l       E           TYP  RCUT    TYP  RCUT                                                     
     0    -23.9615318     23  1.200                                                                 
     0     -9.5240782     23  1.200                                                                 
     1     -9.0304911     23  1.520                                                                 
     1      8.1634956     23  1.520                                                                 
     2     -9.5240782      7  1.500                                                                 
  local pseudopotential read in
  partial core-charges read in
  partial kinetic energy density read in
  kinetic energy density of atom read in
  atomic valenz-charges read in
  non local Contribution for L=           0  read in
    real space projection operators read in
  non local Contribution for L=           0  read in
    real space projection operators read in
  non local Contribution for L=           1  read in
    real space projection operators read in
  non local Contribution for L=           1  read in
    real space projection operators read in
    PAW grid and wavefunctions read in
 
   number of l-projection  operators is LMAX  =           4
   number of lm-projection operators is LMMAX =           8
 
 -----------------------------------------------------------------------------
|                                                                             |
|               ----> ADVICE to this user running VASP <----                  |
|                                                                             |
|     You have a (more or less) 'small supercell' and for smaller cells       |
|     it is recommended to use the reciprocal-space projection scheme!        |
|     The real-space optimization is not efficient for small cells and it     |
|     is also less accurate ...                                               |
|     Therefore, set LREAL=.FALSE. in the INCAR file.                         |
|                                                                             |
 -----------------------------------------------------------------------------

 Optimization of the real space projectors (new method)

 maximal supplied QI-value         = 18.90
 optimisation between [QCUT,QGAM] = [ 11.34, 22.87] = [ 36.00,146.41] Ry 
 Optimized for a Real-space Cutoff    1.39 Angstroem

   l    n(q)    QCUT    max X(q) W(low)/X(q) W(high)/X(q)  e(spline) 
   1      9    11.338     2.836    0.28E-04    0.31E-04    0.11E-06
   1      9    11.338     4.023    0.94E-04    0.75E-04    0.25E-06
   2      9    11.338    73.368    0.15E-03    0.23E-03    0.35E-06
   2      9    11.338    69.010    0.15E-03    0.23E-03    0.36E-06
   0     10    11.338    54.797    0.38E-04    0.54E-04    0.83E-07
   0     10    11.338    24.266    0.28E-04    0.48E-04    0.74E-07
 Optimization of the real space projectors (new method)

 maximal supplied QI-value         = 24.76
 optimisation between [QCUT,QGAM] = [ 11.39, 22.77] = [ 36.31,145.25] Ry 
 Optimized for a Real-space Cutoff    1.10 Angstroem

   l    n(q)    QCUT    max X(q) W(low)/X(q) W(high)/X(q)  e(spline) 
   0      7    11.387    20.381    0.22E-03    0.48E-03    0.18E-06
   0      7    11.387    15.268    0.22E-03    0.52E-03    0.19E-06
   1      7    11.387     5.964    0.22E-03    0.73E-03    0.24E-06
   1      7    11.387     5.382    0.19E-03    0.60E-03    0.21E-06
  PAW_PBE Ni_pv 06Sep2000               :
 energy of atom  1       EATOM=-3501.1230
 kinetic energy error for atom=    0.0690 (will be added to EATOM!!)
  PAW_PBE O 08Apr2002                   :
 energy of atom  2       EATOM= -432.3788
 kinetic energy error for atom=    0.0224 (will be added to EATOM!!)
 
 
 POSCAR: Ni4 O4
  positions in direct lattice
  velocities in cartesian coordinates
 exchange correlation table for  LEXCH =        8
   RHO(1)=    0.500       N(1)  =     2000
   RHO(2)=  100.500       N(2)  =     4000
 


--------------------------------------------------------------------------------------------------------


 ion  position               nearest neighbor table
   1  0.000  0.000  0.000-   5 2.09   7 2.09   8 2.09   7 2.09   8 2.09   5 2.09
   2  0.000  0.500  0.500-   6 2.09   7 2.09   8 2.09   8 2.09   7 2.09   6 2.09
   3  0.500  0.000  0.500-   5 2.09   6 2.09   7 2.09   5 2.09   6 2.09   7 2.09
   4  0.500  0.500  0.000-   5 2.09   6 2.09   8 2.09   6 2.09   5 2.09   8 2.09
   5  0.500  0.000  0.000-   1 2.09   3 2.09   4 2.09   3 2.09   4 2.09   1 2.09
   6  0.500  0.500  0.500-   2 2.09   3 2.09   4 2.09   4 2.09   3 2.09   2 2.09
   7  0.000  0.000  0.500-   1 2.09   2 2.09   3 2.09   1 2.09   2 2.09   3 2.09
   8  0.000  0.500  0.000-   1 2.09   2 2.09   4 2.09   2 2.09   1 2.09   4 2.09
 
  LATTYP: Found a simple cubic cell.
 ALAT       =     4.1760000000
  
  Lattice vectors:
  
 A1 = (   4.1760000000,   0.0000000000,   0.0000000000)
 A2 = (   0.0000000000,   4.1760000000,   0.0000000000)
 A3 = (   0.0000000000,   0.0000000000,   4.1760000000)


Analysis of symmetry for initial positions (statically):
=====================================================================
 Subroutine PRICEL returns following result:
 
  LATTYP: Found a face centered cubic cell.
 ALAT       =     4.1760000000
  
  Lattice vectors:
  
 A1 = (   2.0880000000,  -2.0880000000,   0.0000000000)
 A2 = (   2.0880000000,   0.0000000000,   2.0880000000)
 A3 = (   0.0000000000,  -2.0880000000,   2.0880000000)
 
   4 primitive cells build up your supercell.
 

 Routine SETGRP: Setting up the symmetry group for a 
 simple cubic supercell.


 Subroutine GETGRP returns: Found 48 space group operations
 (whereof 48 operations were pure point group operations)
 out of a pool of 48 trial point group operations.


The static configuration has the point symmetry O_h .


Analysis of symmetry for dynamics (positions and initial velocities):
=====================================================================
 Subroutine PRICEL returns following result:
 
  LATTYP: Found a face centered cubic cell.
 ALAT       =     4.1760000000
  
  Lattice vectors:
  
 A1 = (   2.0880000000,  -2.0880000000,   0.0000000000)
 A2 = (   2.0880000000,   0.0000000000,   2.0880000000)
 A3 = (   0.0000000000,  -2.0880000000,   2.0880000000)
 
   4 primitive cells build up your supercell.
 

 Routine SETGRP: Setting up the symmetry group for a 
 simple cubic supercell.


 Subroutine GETGRP returns: Found 48 space group operations
 (whereof 48 operations were pure point group operations)
 out of a pool of 48 trial point group operations.


The dynamic configuration has the point symmetry O_h .


Analysis of structural, dynamic, and magnetic symmetry:
=====================================================================
 Subroutine PRICEL returns following result:
 
  LATTYP: Found a face centered cubic cell.
 ALAT       =     4.1760000000
  
  Lattice vectors:
  
 A1 = (   2.0880000000,  -2.0880000000,   0.0000000000)
 A2 = (   2.0880000000,   0.0000000000,   2.0880000000)
 A3 = (   0.0000000000,  -2.0880000000,   2.0880000000)
 
   4 primitive cells build up your supercell.
 

 Routine SETGRP: Setting up the symmetry group for a 
 simple cubic supercell.


 Subroutine GETGRP returns: Found 16 space group operations
 (whereof 16 operations were pure point group operations)
 out of a pool of 48 trial point group operations.


The overall configuration has the point symmetry D_4h.


 Subroutine INISYM returns: Found 16 space group operations
 (whereof 16 operations are pure point group operations),
 and found     4 'primitive' translations


----------------------------------------------------------------------------------------

                                     Primitive cell                                     

  volume of cell :      18.2063

  direct lattice vectors                    reciprocal lattice vectors
     2.088000000 -2.088000000  0.000000000     0.239463602 -0.239463602 -0.239463602
     2.088000000  0.000000000  2.088000000     0.239463602  0.239463602  0.239463602
     0.000000000 -2.088000000  2.088000000    -0.239463602 -0.239463602  0.239463602

  length of vectors
     2.952877918  2.952877918  2.952877918     0.414763124  0.414763124  0.414763124

  position of ions in fractional coordinates (direct lattice)
     0.000000000  0.000000000  0.000000000
     0.500000000  0.500000000  0.500000000

  ion indices of the primitive-cell ions
   primitive index   ion index
                 1           1
                 2           5

----------------------------------------------------------------------------------------

 
 
 KPOINTS: K-Points                                

Automatic generation of k-mesh.
 Grid dimensions read from file:
 generate k-points for:    8    8    8

 Generating k-lattice:

  Cartesian coordinates                     Fractional coordinates (reciprocal lattice)
     0.029932950  0.000000000  0.000000000     0.125000000  0.000000000  0.000000000
     0.000000000  0.029932950  0.000000000     0.000000000  0.125000000  0.000000000
     0.000000000  0.000000000  0.029932950     0.000000000  0.000000000  0.125000000

  Length of vectors
     0.029932950  0.029932950  0.029932950

  Shift w.r.t. Gamma in fractional coordinates (k-lattice)
     0.500000000  0.500000000  0.500000000

 
 Subroutine IBZKPT returns following result:
 ===========================================
 
 Found     40 irreducible k-points:
 
 Following reciprocal coordinates:
            Coordinates               Weight
  0.062500  0.062500  0.062500      8.000000
  0.187500  0.062500  0.062500      8.000000
  0.062500  0.187500  0.062500     16.000000
  0.312500  0.062500  0.062500      8.000000
  0.062500  0.312500  0.062500     16.000000
  0.437500  0.062500  0.062500      8.000000
  0.062500  0.437500  0.062500     16.000000
  0.187500  0.187500  0.062500     16.000000
  0.062500  0.187500  0.187500      8.000000
  0.312500  0.187500  0.062500     16.000000
  0.062500  0.312500  0.187500     16.000000
  0.187500  0.062500  0.312500     16.000000
  0.437500  0.187500  0.062500     16.000000
  0.062500  0.437500  0.187500     16.000000
  0.187500  0.062500  0.437500     16.000000
  0.312500  0.312500  0.062500     16.000000
  0.062500  0.312500  0.312500      8.000000
  0.437500  0.312500  0.062500     16.000000
  0.062500  0.437500  0.312500     16.000000
  0.312500  0.062500  0.437500     16.000000
  0.437500  0.437500  0.062500     16.000000
  0.062500  0.437500  0.437500      8.000000
  0.187500  0.187500  0.187500      8.000000
  0.312500  0.187500  0.187500      8.000000
  0.187500  0.312500  0.187500     16.000000
  0.437500  0.187500  0.187500      8.000000
  0.187500  0.437500  0.187500     16.000000
  0.312500  0.312500  0.187500     16.000000
  0.187500  0.312500  0.312500      8.000000
  0.437500  0.312500  0.187500     16.000000
  0.187500  0.437500  0.312500     16.000000
  0.312500  0.187500  0.437500     16.000000
  0.437500  0.437500  0.187500     16.000000
  0.187500  0.437500  0.437500      8.000000
  0.312500  0.312500  0.312500      8.000000
  0.437500  0.312500  0.312500      8.000000
  0.312500  0.437500  0.312500     16.000000
  0.437500  0.437500  0.312500     16.000000
  0.312500  0.437500  0.437500      8.000000
  0.437500  0.437500  0.437500      8.000000
 
 Following cartesian coordinates:
            Coordinates               Weight
  0.014966  0.014966  0.014966      8.000000
  0.044899  0.014966  0.014966      8.000000
  0.014966  0.044899  0.014966     16.000000
  0.074832  0.014966  0.014966      8.000000
  0.014966  0.074832  0.014966     16.000000
  0.104765  0.014966  0.014966      8.000000
  0.014966  0.104765  0.014966     16.000000
  0.044899  0.044899  0.014966     16.000000
  0.014966  0.044899  0.044899      8.000000
  0.074832  0.044899  0.014966     16.000000
  0.014966  0.074832  0.044899     16.000000
  0.044899  0.014966  0.074832     16.000000
  0.104765  0.044899  0.014966     16.000000
  0.014966  0.104765  0.044899     16.000000
  0.044899  0.014966  0.104765     16.000000
  0.074832  0.074832  0.014966     16.000000
  0.014966  0.074832  0.074832      8.000000
  0.104765  0.074832  0.014966     16.000000
  0.014966  0.104765  0.074832     16.000000
  0.074832  0.014966  0.104765     16.000000
  0.104765  0.104765  0.014966     16.000000
  0.014966  0.104765  0.104765      8.000000
  0.044899  0.044899  0.044899      8.000000
  0.074832  0.044899  0.044899      8.000000
  0.044899  0.074832  0.044899     16.000000
  0.104765  0.044899  0.044899      8.000000
  0.044899  0.104765  0.044899     16.000000
  0.074832  0.074832  0.044899     16.000000
  0.044899  0.074832  0.074832      8.000000
  0.104765  0.074832  0.044899     16.000000
  0.044899  0.104765  0.074832     16.000000
  0.074832  0.044899  0.104765     16.000000
  0.104765  0.104765  0.044899     16.000000
  0.044899  0.104765  0.104765      8.000000
  0.074832  0.074832  0.074832      8.000000
  0.104765  0.074832  0.074832      8.000000
  0.074832  0.104765  0.074832     16.000000
  0.104765  0.104765  0.074832     16.000000
  0.074832  0.104765  0.104765      8.000000
  0.104765  0.104765  0.104765      8.000000
 


--------------------------------------------------------------------------------------------------------




 Dimension of arrays:
   k-points           NKPTS =     40   k-points in BZ     NKDIM =     40   number of bands    NBANDS=     52
   number of dos      NEDOS =    301   number of ions     NIONS =      8
   non local maximal  LDIM  =      6   non local SUM 2l+1 LMDIM =     18
   total plane-waves  NPLWV =  27000
   max r-space proj   IRMAX =   4218   max aug-charges    IRDMAX=   8384
   dimension x,y,z NGX =    30 NGY =   30 NGZ =   30
   dimension x,y,z NGXF=    60 NGYF=   60 NGZF=   60
   support grid    NGXF=    60 NGYF=   60 NGZF=   60
   ions per type =               4   4
   NGX,Y,Z   is equivalent  to a cutoff of  11.94, 11.94, 11.94 a.u.
   NGXF,Y,Z  is equivalent  to a cutoff of  23.89, 23.89, 23.89 a.u.

 SYSTEM =  bulk_NiO                                
 POSCAR =  Ni4 O4                                  

 Startparameter for this run:
   NWRITE =      2    write-flag & timer
   PREC   = accura    normal or accurate (medium, high low for compatibility)
   ISTART =      0    job   : 0-new  1-cont  2-samecut
   ICHARG =      2    charge: 1-file 2-atom 10-const
   ISPIN  =      2    spin polarized calculation?
   LNONCOLLINEAR =      F non collinear calculations
   LSORBIT =      F    spin-orbit coupling
   INIWAV =      1    electr: 0-lowe 1-rand  2-diag
   LASPH  =      F    aspherical Exc in radial PAW
   METAGGA=      F    non-selfconsistent MetaGGA calc.

 Electronic Relaxation 1
   ENCUT  =  500.0 eV  36.75 Ry    6.06 a.u.   7.61  7.61  7.61*2*pi/ulx,y,z
   ENINI  =  500.0     initial cutoff
   ENAUG  =  703.4 eV  augmentation charge cutoff
   NELM   =     60;   NELMIN=  2; NELMDL= -5     # of ELM steps 
   EDIFF  = 0.1E-05   stopping-criterion for ELM
   LREAL  =      T    real-space projection
   NLSPLINE    = F    spline interpolate recip. space projectors
   LCOMPAT=      F    compatible to vasp.4.4
   GGA_COMPAT  = T    GGA compatible to vasp.4.4-vasp.4.6
   LMAXPAW     = -100 max onsite density
   LMAXMIX     =    4 max onsite mixed and CHGCAR
   VOSKOWN=      0    Vosko Wilk Nusair interpolation
   ROPT   =   -0.00025  -0.00025
 Ionic relaxation
   EDIFFG = -.1E-02   stopping-criterion for IOM
   NSW    =      0    number of steps for IOM
   NBLOCK =      1;   KBLOCK =      1    inner block; outer block 
   IBRION =     -1    ionic relax: 0-MD 1-quasi-New 2-CG
   NFREE  =      0    steps in history (QN), initial steepest desc. (CG)
   ISIF   =      2    stress and relaxation
   IWAVPR =     10    prediction:  0-non 1-charg 2-wave 3-comb
   ISYM   =      2    0-nonsym 1-usesym 2-fastsym
   LCORR  =      T    Harris-Foulkes like correction to forces

   POTIM  = 0.5000    time-step for ionic-motion
   TEIN   =    0.0    initial temperature
   TEBEG  =    0.0;   TEEND  =   0.0 temperature during run
   SMASS  =  -3.00    Nose mass-parameter (am)
   estimated Nose-frequenzy (Omega)   =  0.10E-29 period in steps = 0.13E+47 mass=  -0.399E-27a.u.
   SCALEE = 1.0000    scale energy and forces
   NPACO  =    256;   APACO  = 16.0  distance and # of slots for P.C.
   PSTRESS=    0.0 pullay stress

  Mass of Ions in am
   POMASS =  58.69 16.00
  Ionic Valenz
   ZVAL   =  16.00  6.00
  Atomic Wigner-Seitz radii
   RWIGS  =  -1.00 -1.00
  virtual crystal weights 
   VCA    =   1.00  1.00
   NELECT =      88.0000    total number of electrons
   NUPDOWN=      -1.0000    fix difference up-down

 DOS related values:
   EMIN   =  10.00;   EMAX   =-10.00  energy-range for DOS
   EFERMI =   0.00
   ISMEAR =     0;   SIGMA  =   0.05  broadening in eV -4-tet -1-fermi 0-gaus

 Electronic relaxation 2 (details)
   IALGO  =     38    algorithm
   LDIAG  =      T    sub-space diagonalisation (order eigenvalues)
   LSUBROT=      F    optimize rotation matrix (better conditioning)
   TURBO    =      0    0=normal 1=particle mesh
   IRESTART =      0    0=no restart 2=restart with 2 vectors
   NREBOOT  =      0    no. of reboots
   NMIN     =      0    reboot dimension
   EREF     =   0.00    reference energy to select bands
   IMIX   =      4    mixing-type and parameters
     AMIX     =   0.40;   BMIX     =  1.00
     AMIX_MAG =   1.60;   BMIX_MAG =  1.00
     AMIN     =   0.10
     WC   =   100.;   INIMIX=   1;  MIXPRE=   1;  MAXMIX= -45

 Intra band minimization:
   WEIMIN = 0.0000     energy-eigenvalue tresh-hold
   EBREAK =  0.48E-08  absolut break condition
   DEPER  =   0.30     relativ break condition  

   TIME   =   0.40     timestep for ELM

  volume/ion in A,a.u.               =       9.10        61.43
  Fermi-wavevector in a.u.,A,eV,Ry     =   1.743714  3.295141 41.369034  3.040538
  Thomas-Fermi vector in A             =   2.815733
 
 Write flags
   LWAVE        =      T    write WAVECAR
   LDOWNSAMPLE  =      F    k-point downsampling of WAVECAR
   LCHARG       =      T    write CHGCAR
   LVTOT        =      F    write LOCPOT, total local potential
   LVHAR        =      F    write LOCPOT, Hartree potential only
   LELF         =      F    write electronic localiz. function (ELF)
   LORBIT       =     11    0 simple, 1 ext, 2 COOP (PROOUT), +10 PAW based schemes


 Dipole corrections
   LMONO  =      F    monopole corrections only (constant potential shift)
   LDIPOL =      F    correct potential (dipole corrections)
   IDIPOL =      0    1-x, 2-y, 3-z, 4-all directions 
   EPSILON=  1.0000000 bulk dielectric constant

 LDA+U is selected, type is set to LDAUTYPE =  2
   angular momentum for each species LDAUL =     2    0
   U (eV)           for each species LDAUU =   6.2  0.0
   J (eV)           for each species LDAUJ =   0.0  0.0
 Exchange correlation treatment:
   GGA     =    --    GGA type
   LEXCH   =     8    internal setting for exchange type
   VOSKOWN=      0    Vosko Wilk Nusair interpolation
   LHFCALC =     F    Hartree Fock is set to
   LHFONE  =     F    Hartree Fock one center treatment
   AEXX    =    0.0000 exact exchange contribution

 Linear response parameters
   LEPSILON=     F    determine dielectric tensor
   LRPA    =     F    only Hartree local field effects (RPA)
   LNABLA  =     F    use nabla operator in PAW spheres
   LVEL    =     F    velocity operator in full k-point grid
   LINTERFAST=   F  fast interpolation
   KINTER  =     0    interpolate to denser k-point grid
   CSHIFT  =0.1000    complex shift for real part using Kramers Kronig
   OMEGAMAX=  -1.0    maximum frequency
   DEG_THRESHOLD= 0.2000000E-02 threshold for treating states as degnerate
   RTIME   =   -0.100 relaxation time in fs
  (WPLASMAI=    0.000 imaginary part of plasma frequency in eV, 0.658/RTIME)
   DFIELD  = 0.0000000 0.0000000 0.0000000 field for delta impulse in time
 
 Orbital magnetization related:
   ORBITALMAG=     F  switch on orbital magnetization
   LCHIMAG   =     F  perturbation theory with respect to B field
   DQ        =  0.001000  dq finite difference perturbation B field
   LLRAUG    =     F  two centre corrections for induced B field



--------------------------------------------------------------------------------------------------------


 Static calculation
 charge density and potential will be updated during run
 spin polarized calculation
 Variant of blocked Davidson
 Davidson routine will perform the subspace rotation
 perform sub-space diagonalisation
    after iterative eigenvector-optimisation
 modified Broyden-mixing scheme, WC =      100.0
 initial mixing is a Kerker type mixing with AMIX =  0.4000 and BMIX =      1.0000
 Hartree-type preconditioning will be used
 using additional bands            8
 real space projection scheme for non local part
 use partial core corrections
 calculate Harris-corrections to forces 
   (improved forces if not selfconsistent)
 use gradient corrections 
 use of overlap-Matrix (Vanderbilt PP)
 Gauss-broadening in eV      SIGMA  =   0.05


--------------------------------------------------------------------------------------------------------


  energy-cutoff  :      500.00
  volume of cell :       72.83
      direct lattice vectors                 reciprocal lattice vectors
     4.176000000  0.000000000  0.000000000     0.239463602  0.000000000  0.000000000
     0.000000000  4.176000000  0.000000000     0.000000000  0.239463602  0.000000000
     0.000000000  0.000000000  4.176000000     0.000000000  0.000000000  0.239463602

  length of vectors
     4.176000000  4.176000000  4.176000000     0.239463602  0.239463602  0.239463602


 
 k-points in units of 2pi/SCALE and weight: K-Points                                
   0.01496648  0.01496648  0.01496648       0.016
   0.04489943  0.01496648  0.01496648       0.016
   0.01496648  0.04489943  0.01496648       0.031
   0.07483238  0.01496648  0.01496648       0.016
   0.01496648  0.07483238  0.01496648       0.031
   0.10476533  0.01496648  0.01496648       0.016
   0.01496648  0.10476533  0.01496648       0.031
   0.04489943  0.04489943  0.01496648       0.031
   0.01496648  0.04489943  0.04489943       0.016
   0.07483238  0.04489943  0.01496648       0.031
   0.01496648  0.07483238  0.04489943       0.031
   0.04489943  0.01496648  0.07483238       0.031
   0.10476533  0.04489943  0.01496648       0.031
   0.01496648  0.10476533  0.04489943       0.031
   0.04489943  0.01496648  0.10476533       0.031
   0.07483238  0.07483238  0.01496648       0.031
   0.01496648  0.07483238  0.07483238       0.016
   0.10476533  0.07483238  0.01496648       0.031
   0.01496648  0.10476533  0.07483238       0.031
   0.07483238  0.01496648  0.10476533       0.031
   0.10476533  0.10476533  0.01496648       0.031
   0.01496648  0.10476533  0.10476533       0.016
   0.04489943  0.04489943  0.04489943       0.016
   0.07483238  0.04489943  0.04489943       0.016
   0.04489943  0.07483238  0.04489943       0.031
   0.10476533  0.04489943  0.04489943       0.016
   0.04489943  0.10476533  0.04489943       0.031
   0.07483238  0.07483238  0.04489943       0.031
   0.04489943  0.07483238  0.07483238       0.016
   0.10476533  0.07483238  0.04489943       0.031
   0.04489943  0.10476533  0.07483238       0.031
   0.07483238  0.04489943  0.10476533       0.031
   0.10476533  0.10476533  0.04489943       0.031
   0.04489943  0.10476533  0.10476533       0.016
   0.07483238  0.07483238  0.07483238       0.016
   0.10476533  0.07483238  0.07483238       0.016
   0.07483238  0.10476533  0.07483238       0.031
   0.10476533  0.10476533  0.07483238       0.031
   0.07483238  0.10476533  0.10476533       0.016
   0.10476533  0.10476533  0.10476533       0.016
 
 k-points in reciprocal lattice and weights: K-Points                                
   0.06250000  0.06250000  0.06250000       0.016
   0.18750000  0.06250000  0.06250000       0.016
   0.06250000  0.18750000  0.06250000       0.031
   0.31250000  0.06250000  0.06250000       0.016
   0.06250000  0.31250000  0.06250000       0.031
   0.43750000  0.06250000  0.06250000       0.016
   0.06250000  0.43750000  0.06250000       0.031
   0.18750000  0.18750000  0.06250000       0.031
   0.06250000  0.18750000  0.18750000       0.016
   0.31250000  0.18750000  0.06250000       0.031
   0.06250000  0.31250000  0.18750000       0.031
   0.18750000  0.06250000  0.31250000       0.031
   0.43750000  0.18750000  0.06250000       0.031
   0.06250000  0.43750000  0.18750000       0.031
   0.18750000  0.06250000  0.43750000       0.031
   0.31250000  0.31250000  0.06250000       0.031
   0.06250000  0.31250000  0.31250000       0.016
   0.43750000  0.31250000  0.06250000       0.031
   0.06250000  0.43750000  0.31250000       0.031
   0.31250000  0.06250000  0.43750000       0.031
   0.43750000  0.43750000  0.06250000       0.031
   0.06250000  0.43750000  0.43750000       0.016
   0.18750000  0.18750000  0.18750000       0.016
   0.31250000  0.18750000  0.18750000       0.016
   0.18750000  0.31250000  0.18750000       0.031
   0.43750000  0.18750000  0.18750000       0.016
   0.18750000  0.43750000  0.18750000       0.031
   0.31250000  0.31250000  0.18750000       0.031
   0.18750000  0.31250000  0.31250000       0.016
   0.43750000  0.31250000  0.18750000       0.031
   0.18750000  0.43750000  0.31250000       0.031
   0.31250000  0.18750000  0.43750000       0.031
   0.43750000  0.43750000  0.18750000       0.031
   0.18750000  0.43750000  0.43750000       0.016
   0.31250000  0.31250000  0.31250000       0.016
   0.43750000  0.31250000  0.31250000       0.016
   0.31250000  0.43750000  0.31250000       0.031
   0.43750000  0.43750000  0.31250000       0.031
   0.31250000  0.43750000  0.43750000       0.016
   0.43750000  0.43750000  0.43750000       0.016
 
 position of ions in fractional coordinates (direct lattice) 
   0.00000000  0.00000000  0.00000000
   0.00000000  0.50000000  0.50000000
   0.50000000  0.00000000  0.50000000
   0.50000000  0.50000000  0.00000000
   0.50000000  0.00000000  0.00000000
   0.50000000  0.50000000  0.50000000
   0.00000000  0.00000000  0.50000000
   0.00000000  0.50000000  0.00000000
 
 position of ions in cartesian coordinates  (Angst):
   0.00000000  0.00000000  0.00000000
   0.00000000  2.08800000  2.08800000
   2.08800000  0.00000000  2.08800000
   2.08800000  2.08800000  0.00000000
   2.08800000  0.00000000  0.00000000
   2.08800000  2.08800000  2.08800000
   0.00000000  0.00000000  2.08800000
   0.00000000  2.08800000  0.00000000
 


--------------------------------------------------------------------------------------------------------


 k-point   1 :   0.0625 0.0625 0.0625  plane waves:    1860
 k-point   2 :   0.1875 0.0625 0.0625  plane waves:    1847
 k-point   3 :   0.0625 0.1875 0.0625  plane waves:    1847
 k-point   4 :   0.3125 0.0625 0.0625  plane waves:    1851
 k-point   5 :   0.0625 0.3125 0.0625  plane waves:    1851
 k-point   6 :   0.4375 0.0625 0.0625  plane waves:    1856
 k-point   7 :   0.0625 0.4375 0.0625  plane waves:    1856
 k-point   8 :   0.1875 0.1875 0.0625  plane waves:    1863
 k-point   9 :   0.0625 0.1875 0.1875  plane waves:    1863
 k-point  10 :   0.3125 0.1875 0.0625  plane waves:    1852
 k-point  11 :   0.0625 0.3125 0.1875  plane waves:    1852
 k-point  12 :   0.1875 0.0625 0.3125  plane waves:    1852
 k-point  13 :   0.4375 0.1875 0.0625  plane waves:    1848
 k-point  14 :   0.0625 0.4375 0.1875  plane waves:    1848
 k-point  15 :   0.1875 0.0625 0.4375  plane waves:    1848
 k-point  16 :   0.3125 0.3125 0.0625  plane waves:    1848
 k-point  17 :   0.0625 0.3125 0.3125  plane waves:    1848
 k-point  18 :   0.4375 0.3125 0.0625  plane waves:    1851
 k-point  19 :   0.0625 0.4375 0.3125  plane waves:    1851
 k-point  20 :   0.3125 0.0625 0.4375  plane waves:    1851
 k-point  21 :   0.4375 0.4375 0.0625  plane waves:    1847
 k-point  22 :   0.0625 0.4375 0.4375  plane waves:    1847
 k-point  23 :   0.1875 0.1875 0.1875  plane waves:    1857
 k-point  24 :   0.3125 0.1875 0.1875  plane waves:    1852
 k-point  25 :   0.1875 0.3125 0.1875  plane waves:    1852
 k-point  26 :   0.4375 0.1875 0.1875  plane waves:    1848
 k-point  27 :   0.1875 0.4375 0.1875  plane waves:    1848
 k-point  28 :   0.3125 0.3125 0.1875  plane waves:    1847
 k-point  29 :   0.1875 0.3125 0.3125  plane waves:    1847
 k-point  30 :   0.4375 0.3125 0.1875  plane waves:    1846
 k-point  31 :   0.1875 0.4375 0.3125  plane waves:    1846
 k-point  32 :   0.3125 0.1875 0.4375  plane waves:    1846
 k-point  33 :   0.4375 0.4375 0.1875  plane waves:    1828
 k-point  34 :   0.1875 0.4375 0.4375  plane waves:    1828
 k-point  35 :   0.3125 0.3125 0.3125  plane waves:    1836
 k-point  36 :   0.4375 0.3125 0.3125  plane waves:    1843
 k-point  37 :   0.3125 0.4375 0.3125  plane waves:    1843
 k-point  38 :   0.4375 0.4375 0.3125  plane waves:    1841
 k-point  39 :   0.3125 0.4375 0.4375  plane waves:    1841
 k-point  40 :   0.4375 0.4375 0.4375  plane waves:    1862

 maximum and minimum number of plane-waves per node :      1863     1828

 maximum number of plane-waves:      1863
 maximum index in each direction: 
   IXMAX=    7   IYMAX=    7   IZMAX=    7
   IXMIN=   -8   IYMIN=   -8   IZMIN=   -8


 serial   3D FFT for wavefunctions
 parallel 3D FFT for charge:
    minimum data exchange during FFTs selected (reduces bandwidth)


 total amount of memory used by VASP MPI-rank0    75215. kBytes
=======================================================================

   base      :      30000. kBytes
   nonlr-proj:       3610. kBytes
   fftplans  :       1986. kBytes
   grid      :       6624. kBytes
   one-center:        248. kBytes
   wavefun   :      32747. kBytes
 
     INWAV:  cpu time    0.0000: real time    0.0006
 Broyden mixing: mesh for mixing (old mesh)
   NGX = 15   NGY = 15   NGZ = 15
  (NGX  = 60   NGY  = 60   NGZ  = 60)
  gives a total of   3375 points

 initial charge density was supplied:
 charge density of overlapping atoms calculated
 number of electron      88.0000000 magnetization       0.0000000
 keeping initial charge density in first step


--------------------------------------------------------------------------------------------------------


 Maximum index for non-local projection operator         3959
 Maximum index for augmentation-charges         2062 (set IRDMAX)


--------------------------------------------------------------------------------------------------------


 First call to EWALD:  gamma=   0.424
 Maximum number of real-space cells 3x 3x 3
 Maximum number of reciprocal cells 3x 3x 3

    FEWALD:  cpu time    0.0010: real time    0.0131


--------------------------------------- Iteration      1(   1)  ---------------------------------------


    POTLOK:  cpu time    0.0590: real time    0.2961
    SETDIJ:  cpu time    0.0120: real time    0.1279
     EDDAV:  cpu time    6.0181: real time    6.5748
       DOS:  cpu time    0.0020: real time    0.0446
    --------------------------------------------
      LOOP:  cpu time    6.0921: real time    7.0436

 eigenvalue-minimisations  :  9408
 total energy-change (2. order) : 0.1305084E+04  (-0.5569548E+04)
 number of electron      88.0000000 magnetization       0.0000000
 augmentation part       88.0000000 magnetization       0.0000000

 Free energy of the ion-electron system (eV)
  ---------------------------------------------------
  alpha Z        PSCENC =       620.95558523
  Ewald energy   TEWEN  =    -10675.76284260
  -Hartree energ DENC   =     -4472.87740086
  -exchange      EXHF   =         0.00000000
  -V(xc)+E(xc)   XCENC  =       470.41179419
  PAW double counting   =     13038.34031942   -13517.26574471
  entropy T*S    EENTRO =        -0.00204429
  eigenvalues    EBANDS =       107.64261903
  atomic energy  EATOM  =     15733.64188381
  Solvation  Ediel_sol  =         0.00000000
  ---------------------------------------------------
  free energy    TOTEN  =      1305.08416921 eV

  energy without entropy =     1305.08621350  energy(sigma->0) =     1305.08519136


--------------------------------------------------------------------------------------------------------




--------------------------------------- Iteration      1(   2)  ---------------------------------------


     EDDAV:  cpu time    5.5931: real time    5.6237
       DOS:  cpu time    0.0030: real time    0.0026
    --------------------------------------------
      LOOP:  cpu time    5.5961: real time    5.6264

 eigenvalue-minimisations  :  8600
 total energy-change (2. order) :-0.1210268E+04  (-0.1174105E+04)
 number of electron      88.0000000 magnetization       0.0000000
 augmentation part       88.0000000 magnetization       0.0000000

 Free energy of the ion-electron system (eV)
  ---------------------------------------------------
  alpha Z        PSCENC =       620.95558523
  Ewald energy   TEWEN  =    -10675.76284260
  -Hartree energ DENC   =     -4472.87740086
  -exchange      EXHF   =         0.00000000
  -V(xc)+E(xc)   XCENC  =       470.41179419
  PAW double counting   =     13038.34031942   -13517.26574471
  entropy T*S    EENTRO =        -0.00582446
  eigenvalues    EBANDS =     -1102.62167166
  atomic energy  EATOM  =     15733.64188381
  Solvation  Ediel_sol  =         0.00000000
  ---------------------------------------------------
  free energy    TOTEN  =        94.81609835 eV

  energy without entropy =       94.82192281  energy(sigma->0) =       94.81901058


--------------------------------------------------------------------------------------------------------




--------------------------------------- Iteration      1(   3)  ---------------------------------------


     EDDAV:  cpu time    5.8331: real time    5.8499
       DOS:  cpu time    0.0020: real time    0.0025
    --------------------------------------------
      LOOP:  cpu time    5.8351: real time    5.8524

 eigenvalue-minimisations  :  9012
 total energy-change (2. order) :-0.1243436E+03  (-0.1208813E+03)
 number of electron      88.0000000 magnetization       0.0000000
 augmentation part       88.0000000 magnetization       0.0000000

 Free energy of the ion-electron system (eV)
  ---------------------------------------------------
  alpha Z        PSCENC =       620.95558523
  Ewald energy   TEWEN  =    -10675.76284260
  -Hartree energ DENC   =     -4472.87740086
  -exchange      EXHF   =         0.00000000
  -V(xc)+E(xc)   XCENC  =       470.41179419
  PAW double counting   =     13038.34031942   -13517.26574471
  entropy T*S    EENTRO =        -0.01501126
  eigenvalues    EBANDS =     -1226.95606115
  atomic energy  EATOM  =     15733.64188381
  Solvation  Ediel_sol  =         0.00000000
  ---------------------------------------------------
  free energy    TOTEN  =       -29.52747793 eV

  energy without entropy =      -29.51246668  energy(sigma->0) =      -29.51997231


--------------------------------------------------------------------------------------------------------




--------------------------------------- Iteration      1(   4)  ---------------------------------------


     EDDAV:  cpu time    5.8391: real time    5.8926
       DOS:  cpu time    0.0030: real time    0.0027
    --------------------------------------------
      LOOP:  cpu time    5.8411: real time    5.8954

 eigenvalue-minimisations  :  9108
 total energy-change (2. order) :-0.5733698E+01  (-0.5652537E+01)
 number of electron      88.0000000 magnetization       0.0000000
 augmentation part       88.0000000 magnetization       0.0000000

 Free energy of the ion-electron system (eV)
  ---------------------------------------------------
  alpha Z        PSCENC =       620.95558523
  Ewald energy   TEWEN  =    -10675.76284260
  -Hartree energ DENC   =     -4472.87740086
  -exchange      EXHF   =         0.00000000
  -V(xc)+E(xc)   XCENC  =       470.41179419
  PAW double counting   =     13038.34031942   -13517.26574471
  entropy T*S    EENTRO =        -0.01303140
  eigenvalues    EBANDS =     -1232.69173949
  atomic energy  EATOM  =     15733.64188381
  Solvation  Ediel_sol  =         0.00000000
  ---------------------------------------------------
  free energy    TOTEN  =       -35.26117642 eV

  energy without entropy =      -35.24814502  energy(sigma->0) =      -35.25466072


--------------------------------------------------------------------------------------------------------




--------------------------------------- Iteration      1(   5)  ---------------------------------------


     EDDAV:  cpu time    5.8651: real time    5.8797
       DOS:  cpu time    0.0010: real time    0.0025
    CHARGE:  cpu time    0.3709: real time    0.3825
    MIXING:  cpu time    0.0020: real time    0.0244
    --------------------------------------------
      LOOP:  cpu time    6.2391: real time    6.2892

 eigenvalue-minimisations  :  9136
 total energy-change (2. order) :-0.1365672E+00  (-0.1362617E+00)
 number of electron      88.0000201 magnetization      -0.0000000
 augmentation part       39.5579061 magnetization      -0.0000000

 Broyden mixing:
  rms(total) = 0.33757E+01    rms(broyden)= 0.33567E+01
  rms(prec ) = 0.55456E+01
  weight for this iteration     100.00

 Free energy of the ion-electron system (eV)
  ---------------------------------------------------
  alpha Z        PSCENC =       620.95558523
  Ewald energy   TEWEN  =    -10675.76284260
  -Hartree energ DENC   =     -4472.87740086
  -exchange      EXHF   =         0.00000000
  -V(xc)+E(xc)   XCENC  =       470.41179419
  PAW double counting   =     13038.34031942   -13517.26574471
  entropy T*S    EENTRO =        -0.01308769
  eigenvalues    EBANDS =     -1232.82825042
  atomic energy  EATOM  =     15733.64188381
  Solvation  Ediel_sol  =         0.00000000
  ---------------------------------------------------
  free energy    TOTEN  =       -35.39774364 eV

  energy without entropy =      -35.38465595  energy(sigma->0) =      -35.39119980


--------------------------------------------------------------------------------------------------------




--------------------------------------- Iteration      1(   6)  ---------------------------------------


    POTLOK:  cpu time    0.0630: real time    0.1032
    SETDIJ:  cpu time    0.0110: real time    0.0109
     EDDAV:  cpu time    7.0539: real time    7.0563
       DOS:  cpu time    0.0020: real time    0.0011
    CHARGE:  cpu time    0.3509: real time    0.3516
    MIXING:  cpu time    0.0020: real time    0.0013
    --------------------------------------------
      LOOP:  cpu time    7.4829: real time    7.5244

 eigenvalue-minimisations  : 11508
 total energy-change (2. order) : 0.1119870E+01  (-0.1120758E+02)
 number of electron      88.0000196 magnetization      -0.0000000
 augmentation part       41.3169471 magnetization      -0.0000000

 Broyden mixing:
  rms(total) = 0.35030E+01    rms(broyden)= 0.34990E+01
  rms(prec ) = 0.37409E+01
  weight for this iteration     100.00

 eigenvalues of (default mixing * dielectric matrix)
  average eigenvalue GAMMA=   0.5184
  0.5184

 Free energy of the ion-electron system (eV)
  ---------------------------------------------------
  alpha Z        PSCENC =       620.95558523
  Ewald energy   TEWEN  =    -10675.76284260
  -Hartree energ DENC   =     -4333.76098149
  -exchange      EXHF   =         0.00000000
  -V(xc)+E(xc)   XCENC  =       467.10508471
  PAW double counting   =     13189.75113496   -13641.79034965
  entropy T*S    EENTRO =        -0.00000000
  eigenvalues    EBANDS =     -1394.41738881
  atomic energy  EATOM  =     15733.64188381
  Solvation  Ediel_sol  =         0.00000000
  ---------------------------------------------------
  free energy    TOTEN  =       -34.27787383 eV

  energy without entropy =      -34.27787383  energy(sigma->0) =      -34.27787383


--------------------------------------------------------------------------------------------------------




--------------------------------------- Iteration      1(   7)  ---------------------------------------


    POTLOK:  cpu time    0.0670: real time    0.0790
    SETDIJ:  cpu time    0.0110: real time    0.0110
     EDDAV:  cpu time    6.0271: real time    6.0273
       DOS:  cpu time    0.0000: real time    0.0011
    CHARGE:  cpu time    0.3489: real time    0.3486
    MIXING:  cpu time    0.0010: real time    0.0013
    --------------------------------------------
      LOOP:  cpu time    6.4550: real time    6.4683

 eigenvalue-minimisations  :  9392
 total energy-change (2. order) :-0.1804953E+01  (-0.1024593E+01)
 number of electron      88.0000191 magnetization       0.0000000
 augmentation part       40.6757136 magnetization       0.0000000

 Broyden mixing:
  rms(total) = 0.17144E+01    rms(broyden)= 0.17139E+01
  rms(prec ) = 0.18169E+01
  weight for this iteration     100.00

 eigenvalues of (default mixing * dielectric matrix)
  average eigenvalue GAMMA=   0.7244
  0.7244  0.7244

 Free energy of the ion-electron system (eV)
  ---------------------------------------------------
  alpha Z        PSCENC =       620.95558523
  Ewald energy   TEWEN  =    -10675.76284260
  -Hartree energ DENC   =     -4374.74062453
  -exchange      EXHF   =         0.00000000
  -V(xc)+E(xc)   XCENC  =       468.05578902
  PAW double counting   =     13715.29430333   -14192.06164544
  entropy T*S    EENTRO =        -0.00000000
  eigenvalues    EBANDS =     -1331.46527605
  atomic energy  EATOM  =     15733.64188381
  Solvation  Ediel_sol  =         0.00000000
  ---------------------------------------------------
  free energy    TOTEN  =       -36.08282722 eV

  energy without entropy =      -36.08282722  energy(sigma->0) =      -36.08282722


--------------------------------------------------------------------------------------------------------




--------------------------------------- Iteration      1(   8)  ---------------------------------------


    POTLOK:  cpu time    0.0670: real time    0.0799
    SETDIJ:  cpu time    0.0110: real time    0.0109
     EDDAV:  cpu time    6.6490: real time    6.6988
       DOS:  cpu time    0.0010: real time    0.0011
    CHARGE:  cpu time    0.3469: real time    0.3476
    MIXING:  cpu time    0.0020: real time    0.0013
    --------------------------------------------
      LOOP:  cpu time    7.0769: real time    7.1397

 eigenvalue-minimisations  : 10780
 total energy-change (2. order) :-0.7794099E+00  (-0.2043961E+00)
 number of electron      88.0000189 magnetization      -0.0000000
 augmentation part       40.5307916 magnetization      -0.0000000

 Broyden mixing:
  rms(total) = 0.11989E+01    rms(broyden)= 0.11986E+01
  rms(prec ) = 0.12878E+01
  weight for this iteration     100.00

 eigenvalues of (default mixing * dielectric matrix)
  average eigenvalue GAMMA=   1.0453
  1.7134  0.8536  0.5688

 Free energy of the ion-electron system (eV)
  ---------------------------------------------------
  alpha Z        PSCENC =       620.95558523
  Ewald energy   TEWEN  =    -10675.76284260
  -Hartree energ DENC   =     -4371.13482512
  -exchange      EXHF   =         0.00000000
  -V(xc)+E(xc)   XCENC  =       467.95445503
  PAW double counting   =     14027.44034107   -14506.00592428
  entropy T*S    EENTRO =        -0.00000000
  eigenvalues    EBANDS =     -1333.95091027
  atomic energy  EATOM  =     15733.64188381
  Solvation  Ediel_sol  =         0.00000000
  ---------------------------------------------------
  free energy    TOTEN  =       -36.86223714 eV

  energy without entropy =      -36.86223714  energy(sigma->0) =      -36.86223714


--------------------------------------------------------------------------------------------------------




--------------------------------------- Iteration      1(   9)  ---------------------------------------


    POTLOK:  cpu time    0.0640: real time    0.0786
    SETDIJ:  cpu time    0.0110: real time    0.0109
     EDDAV:  cpu time    6.8280: real time    6.8290
       DOS:  cpu time    0.0000: real time    0.0011
    CHARGE:  cpu time    0.3469: real time    0.3470
    MIXING:  cpu time    0.0020: real time    0.0014
    --------------------------------------------
      LOOP:  cpu time    7.2519: real time    7.2681

 eigenvalue-minimisations  : 11104
 total energy-change (2. order) :-0.4945941E+00  (-0.3449841E-01)
 number of electron      88.0000189 magnetization       0.0000000
 augmentation part       40.5810320 magnetization       0.0000000

 Broyden mixing:
  rms(total) = 0.27697E+00    rms(broyden)= 0.27687E+00
  rms(prec ) = 0.34491E+00
  weight for this iteration     100.00

 eigenvalues of (default mixing * dielectric matrix)
  average eigenvalue GAMMA=   1.1281
  2.4498  0.6894  0.6894  0.6837

 Free energy of the ion-electron system (eV)
  ---------------------------------------------------
  alpha Z        PSCENC =       620.95558523
  Ewald energy   TEWEN  =    -10675.76284260
  -Hartree energ DENC   =     -4355.61570519
  -exchange      EXHF   =         0.00000000
  -V(xc)+E(xc)   XCENC  =       467.96070516
  PAW double counting   =     14429.80726979   -14913.69473781
  entropy T*S    EENTRO =        -0.00000000
  eigenvalues    EBANDS =     -1344.64898959
  atomic energy  EATOM  =     15733.64188381
  Solvation  Ediel_sol  =         0.00000000
  ---------------------------------------------------
  free energy    TOTEN  =       -37.35683120 eV

  energy without entropy =      -37.35683120  energy(sigma->0) =      -37.35683120


--------------------------------------------------------------------------------------------------------




--------------------------------------- Iteration      1(  10)  ---------------------------------------


    POTLOK:  cpu time    0.0670: real time    0.0829
    SETDIJ:  cpu time    0.0110: real time    0.0112
     EDDAV:  cpu time    6.6660: real time    6.6685
       DOS:  cpu time    0.0010: real time    0.0011
    CHARGE:  cpu time    0.3469: real time    0.3467
    MIXING:  cpu time    0.0010: real time    0.0014
    --------------------------------------------
      LOOP:  cpu time    7.0939: real time    7.1116

 eigenvalue-minimisations  : 10772
 total energy-change (2. order) :-0.5227202E-01  (-0.2641460E-01)
 number of electron      88.0000189 magnetization       0.0000000
 augmentation part       40.5970517 magnetization       0.0000000

 Broyden mixing:
  rms(total) = 0.53891E-01    rms(broyden)= 0.53834E-01
  rms(prec ) = 0.62411E-01
  weight for this iteration     100.00

 eigenvalues of (default mixing * dielectric matrix)
  average eigenvalue GAMMA=   1.0715
  2.5153  0.7138  0.7138  0.7992  0.6153

 Free energy of the ion-electron system (eV)
  ---------------------------------------------------
  alpha Z        PSCENC =       620.95558523
  Ewald energy   TEWEN  =    -10675.76284260
  -Hartree energ DENC   =     -4352.73807354
  -exchange      EXHF   =         0.00000000
  -V(xc)+E(xc)   XCENC  =       467.95372914
  PAW double counting   =     14540.40009095   -15026.93826134
  entropy T*S    EENTRO =        -0.00000000
  eigenvalues    EBANDS =     -1344.92121487
  atomic energy  EATOM  =     15733.64188381
  Solvation  Ediel_sol  =         0.00000000
  ---------------------------------------------------
  free energy    TOTEN  =       -37.40910322 eV

  energy without entropy =      -37.40910322  energy(sigma->0) =      -37.40910322


--------------------------------------------------------------------------------------------------------




--------------------------------------- Iteration      1(  11)  ---------------------------------------


    POTLOK:  cpu time    0.0640: real time    0.0802
    SETDIJ:  cpu time    0.0120: real time    0.0113
     EDDAV:  cpu time    5.6161: real time    5.6177
       DOS:  cpu time    0.0020: real time    0.0011
    CHARGE:  cpu time    0.3459: real time    0.3461
    MIXING:  cpu time    0.0000: real time    0.0014
    --------------------------------------------
      LOOP:  cpu time    6.0401: real time    6.0579

 eigenvalue-minimisations  :  8692
 total energy-change (2. order) :-0.4580500E-02  (-0.4339999E-02)
 number of electron      88.0000189 magnetization       0.0000000
 augmentation part       40.5739462 magnetization       0.0000000

 Broyden mixing:
  rms(total) = 0.33570E-01    rms(broyden)= 0.33552E-01
  rms(prec ) = 0.37568E-01
  weight for this iteration     100.00

 eigenvalues of (default mixing * dielectric matrix)
  average eigenvalue GAMMA=   1.0351
  2.5524  0.9638  0.7278  0.7278  0.6195  0.6195

 Free energy of the ion-electron system (eV)
  ---------------------------------------------------
  alpha Z        PSCENC =       620.95558523
  Ewald energy   TEWEN  =    -10675.76284260
  -Hartree energ DENC   =     -4353.74759910
  -exchange      EXHF   =         0.00000000
  -V(xc)+E(xc)   XCENC  =       467.96933805
  PAW double counting   =     14528.88244800   -15015.36024976
  entropy T*S    EENTRO =        -0.00000000
  eigenvalues    EBANDS =     -1343.99224735
  atomic energy  EATOM  =     15733.64188381
  Solvation  Ediel_sol  =         0.00000000
  ---------------------------------------------------
  free energy    TOTEN  =       -37.41368372 eV

  energy without entropy =      -37.41368372  energy(sigma->0) =      -37.41368372


--------------------------------------------------------------------------------------------------------




--------------------------------------- Iteration      1(  12)  ---------------------------------------


    POTLOK:  cpu time    0.0620: real time    0.0753
    SETDIJ:  cpu time    0.0110: real time    0.0108
     EDDAV:  cpu time    5.8371: real time    5.8385
       DOS:  cpu time    0.0010: real time    0.0011
    CHARGE:  cpu time    0.3459: real time    0.3458
    MIXING:  cpu time    0.0010: real time    0.0014
    --------------------------------------------
      LOOP:  cpu time    6.2570: real time    6.2728

 eigenvalue-minimisations  :  9168
 total energy-change (2. order) :-0.8568186E-03  (-0.1083240E-03)
 number of electron      88.0000189 magnetization       0.0000000
 augmentation part       40.5784216 magnetization       0.0000000

 Broyden mixing:
  rms(total) = 0.16106E-01    rms(broyden)= 0.16105E-01
  rms(prec ) = 0.18089E-01
  weight for this iteration     100.00

 eigenvalues of (default mixing * dielectric matrix)
  average eigenvalue GAMMA=   1.0370
  2.6156  1.1575  0.7118  0.7118  0.8473  0.6076  0.6076

 Free energy of the ion-electron system (eV)
  ---------------------------------------------------
  alpha Z        PSCENC =       620.95558523
  Ewald energy   TEWEN  =    -10675.76284260
  -Hartree energ DENC   =     -4353.25580813
  -exchange      EXHF   =         0.00000000
  -V(xc)+E(xc)   XCENC  =       467.95059603
  PAW double counting   =     14530.10387222   -15016.57415684
  entropy T*S    EENTRO =        -0.00000000
  eigenvalues    EBANDS =     -1344.47367026
  atomic energy  EATOM  =     15733.64188381
  Solvation  Ediel_sol  =         0.00000000
  ---------------------------------------------------
  free energy    TOTEN  =       -37.41454054 eV

  energy without entropy =      -37.41454054  energy(sigma->0) =      -37.41454054


--------------------------------------------------------------------------------------------------------




--------------------------------------- Iteration      1(  13)  ---------------------------------------


    POTLOK:  cpu time    0.0680: real time    0.0789
    SETDIJ:  cpu time    0.0110: real time    0.0108
     EDDAV:  cpu time    6.4450: real time    6.4474
       DOS:  cpu time    0.0010: real time    0.0012
    CHARGE:  cpu time    0.3459: real time    0.3462
    MIXING:  cpu time    0.0020: real time    0.0015
    --------------------------------------------
      LOOP:  cpu time    6.8730: real time    6.8860

 eigenvalue-minimisations  : 10376
 total energy-change (2. order) :-0.3939688E-03  (-0.3460191E-04)
 number of electron      88.0000189 magnetization      -0.0000000
 augmentation part       40.5808228 magnetization      -0.0000000

 Broyden mixing:
  rms(total) = 0.72683E-02    rms(broyden)= 0.72679E-02
  rms(prec ) = 0.80454E-02
  weight for this iteration     100.00

 eigenvalues of (default mixing * dielectric matrix)
  average eigenvalue GAMMA=   1.1621
  2.8150  2.1098  1.0120  0.7194  0.7194  0.6536  0.6536  0.6141

 Free energy of the ion-electron system (eV)
  ---------------------------------------------------
  alpha Z        PSCENC =       620.95558523
  Ewald energy   TEWEN  =    -10675.76284260
  -Hartree energ DENC   =     -4352.91760294
  -exchange      EXHF   =         0.00000000
  -V(xc)+E(xc)   XCENC  =       467.94768581
  PAW double counting   =     14532.24962621   -15018.74853893
  entropy T*S    EENTRO =        -0.00000000
  eigenvalues    EBANDS =     -1344.78073109
  atomic energy  EATOM  =     15733.64188381
  Solvation  Ediel_sol  =         0.00000000
  ---------------------------------------------------
  free energy    TOTEN  =       -37.41493450 eV

  energy without entropy =      -37.41493450  energy(sigma->0) =      -37.41493450


--------------------------------------------------------------------------------------------------------




--------------------------------------- Iteration      1(  14)  ---------------------------------------


    POTLOK:  cpu time    0.0620: real time    0.0763
    SETDIJ:  cpu time    0.0100: real time    0.0108
     EDDAV:  cpu time    5.6741: real time    5.6761
       DOS:  cpu time    0.0010: real time    0.0011
    CHARGE:  cpu time    0.3479: real time    0.3474
    MIXING:  cpu time    0.0010: real time    0.0015
    --------------------------------------------
      LOOP:  cpu time    6.0961: real time    6.1132

 eigenvalue-minimisations  :  8852
 total energy-change (2. order) :-0.5803522E-04  (-0.1586030E-04)
 number of electron      88.0000189 magnetization       0.0000000
 augmentation part       40.5804315 magnetization       0.0000000

 Broyden mixing:
  rms(total) = 0.24144E-02    rms(broyden)= 0.24120E-02
  rms(prec ) = 0.26002E-02
  weight for this iteration     100.00

 eigenvalues of (default mixing * dielectric matrix)
  average eigenvalue GAMMA=   1.1687
  2.7961  2.3050  1.1126  0.9383  0.7184  0.7184  0.7041  0.6127  0.6127

 Free energy of the ion-electron system (eV)
  ---------------------------------------------------
  alpha Z        PSCENC =       620.95558523
  Ewald energy   TEWEN  =    -10675.76284260
  -Hartree energ DENC   =     -4352.89758521
  -exchange      EXHF   =         0.00000000
  -V(xc)+E(xc)   XCENC  =       467.94879676
  PAW double counting   =     14530.84083167   -15017.30940064
  entropy T*S    EENTRO =        -0.00000000
  eigenvalues    EBANDS =     -1344.83226156
  atomic energy  EATOM  =     15733.64188381
  Solvation  Ediel_sol  =         0.00000000
  ---------------------------------------------------
  free energy    TOTEN  =       -37.41499254 eV

  energy without entropy =      -37.41499254  energy(sigma->0) =      -37.41499254


--------------------------------------------------------------------------------------------------------




--------------------------------------- Iteration      1(  15)  ---------------------------------------


    POTLOK:  cpu time    0.0670: real time    0.0802
    SETDIJ:  cpu time    0.0110: real time    0.0109
     EDDAV:  cpu time    5.0102: real time    5.0121
       DOS:  cpu time    0.0010: real time    0.0011
    CHARGE:  cpu time    0.3479: real time    0.3475
    MIXING:  cpu time    0.0010: real time    0.0015
    --------------------------------------------
      LOOP:  cpu time    5.4392: real time    5.4533

 eigenvalue-minimisations  :  7404
 total energy-change (2. order) :-0.3420479E-05  (-0.1265664E-05)
 number of electron      88.0000189 magnetization      -0.0000000
 augmentation part       40.5800921 magnetization      -0.0000000

 Broyden mixing:
  rms(total) = 0.10339E-02    rms(broyden)= 0.10336E-02
  rms(prec ) = 0.10829E-02
  weight for this iteration     100.00

 eigenvalues of (default mixing * dielectric matrix)
  average eigenvalue GAMMA=   1.1664
  2.7560  2.4378  1.2649  0.9375  0.9375  0.7205  0.7205  0.6427  0.6427  0.6034

 Free energy of the ion-electron system (eV)
  ---------------------------------------------------
  alpha Z        PSCENC =       620.95558523
  Ewald energy   TEWEN  =    -10675.76284260
  -Hartree energ DENC   =     -4352.95493956
  -exchange      EXHF   =         0.00000000
  -V(xc)+E(xc)   XCENC  =       467.94951452
  PAW double counting   =     14529.79812544   -15016.25374298
  entropy T*S    EENTRO =        -0.00000000
  eigenvalues    EBANDS =     -1344.78857981
  atomic energy  EATOM  =     15733.64188381
  Solvation  Ediel_sol  =         0.00000000
  ---------------------------------------------------
  free energy    TOTEN  =       -37.41499596 eV

  energy without entropy =      -37.41499596  energy(sigma->0) =      -37.41499596


--------------------------------------------------------------------------------------------------------




--------------------------------------- Iteration      1(  16)  ---------------------------------------


    POTLOK:  cpu time    0.0670: real time    0.0793
    SETDIJ:  cpu time    0.0110: real time    0.0108
     EDDAV:  cpu time    3.6254: real time    3.6273
       DOS:  cpu time    0.0010: real time    0.0011
    --------------------------------------------
      LOOP:  cpu time    3.7034: real time    3.7184

 eigenvalue-minimisations  :  4516
 total energy-change (2. order) :-0.2696906E-06  (-0.7451644E-07)
 number of electron      88.0000189 magnetization      -0.0000000
 augmentation part       40.5800921 magnetization      -0.0000000

 Free energy of the ion-electron system (eV)
  ---------------------------------------------------
  alpha Z        PSCENC =       620.95558523
  Ewald energy   TEWEN  =    -10675.76284260
  -Hartree energ DENC   =     -4352.96687812
  -exchange      EXHF   =         0.00000000
  -V(xc)+E(xc)   XCENC  =       467.94966018
  PAW double counting   =     14529.41674332   -15015.86220527
  entropy T*S    EENTRO =        -0.00000000
  eigenvalues    EBANDS =     -1344.78694277
  atomic energy  EATOM  =     15733.64188381
  Solvation  Ediel_sol  =         0.00000000
  ---------------------------------------------------
  free energy    TOTEN  =       -37.41499623 eV

  energy without entropy =      -37.41499623  energy(sigma->0) =      -37.41499623


--------------------------------------------------------------------------------------------------------




 average (electrostatic) potential at core
  the test charge radii are     0.8614  0.7215
  (the norm of the test charge is              1.0000)
       1 -80.9772       2 -80.9772       3 -80.9772       4 -80.9772       5 -68.3122
       6 -68.3122       7 -68.3122       8 -68.3122
 
 
 
 E-fermi :   6.5208     XC(G=0): -12.9529     alpha+bet :-12.9968

 Fermi energy:         6.5207623737

 spin component 1

 k-point     1 :       0.0625    0.0625    0.0625
  band No.  band energies     occupation 
      1     -58.4186      1.00000
      2     -58.4179      1.00000
      3     -58.4152      1.00000
      4     -58.4126      1.00000
      5     -58.4062      1.00000
      6     -58.4054      1.00000
      7     -56.2597      1.00000
      8     -56.2589      1.00000
      9     -56.2539      1.00000
     10     -56.2513      1.00000
     11     -56.2456      1.00000
     12     -56.2447      1.00000
     13     -12.7633      1.00000
     14     -11.4571      1.00000
     15     -11.3306      1.00000
     16     -11.2056      1.00000
     17       0.3239      1.00000
     18       0.3332      1.00000
     19       0.3664      1.00000
     20       0.4527      1.00000
     21       0.8193      1.00000
     22       0.8720      1.00000
     23       0.9223      1.00000
     24       0.9637      1.00000
     25       0.9991      1.00000
     26       1.3381      1.00000
     27       1.5352      1.00000
     28       1.5395      1.00000
     29       2.0858      1.00000
     30       2.1505      1.00000
     31       2.7823      1.00000
     32       2.9069      1.00000
     33       2.9788      1.00000
     34       2.9818      1.00000
     35       3.2049      1.00000
     36       3.3355      1.00000
     37       3.3441      1.00000
     38       3.3737      1.00000
     39       3.4326      1.00000
     40       3.4564      1.00000
     41       3.5754      1.00000
     42       4.4470      1.00000
     43       4.6926      1.00000
     44       4.7026      1.00000
     45       8.7705      0.00000
     46       9.0036      0.00000
     47       9.1006      0.00000
     48       9.1439      0.00000
     49       9.3092      0.00000
     50      13.2264      0.00000
     51      13.4781      0.00000
     52      13.7195      0.00000

 k-point     2 :       0.1875    0.0625    0.0625
  band No.  band energies     occupation 
      1     -58.4185      1.00000
      2     -58.4179      1.00000
      3     -58.4150      1.00000
      4     -58.4127      1.00000
      5     -58.4060      1.00000
      6     -58.4054      1.00000
      7     -56.2595      1.00000
      8     -56.2589      1.00000
      9     -56.2538      1.00000
     10     -56.2514      1.00000
     11     -56.2454      1.00000
     12     -56.2447      1.00000
     13     -12.6436      1.00000
     14     -11.4330      1.00000
     15     -11.4162      1.00000
     16     -11.1596      1.00000
     17      -0.2230      1.00000
     18       0.2172      1.00000
     19       0.3053      1.00000
     20       0.4504      1.00000
     21       0.5021      1.00000
     22       0.7850      1.00000
     23       0.8468      1.00000
     24       0.8715      1.00000
     25       1.2364      1.00000
     26       1.4114      1.00000
     27       1.4915      1.00000
     28       1.5978      1.00000
     29       2.0941      1.00000
     30       2.1407      1.00000
     31       2.6913      1.00000
     32       2.7089      1.00000
     33       2.8680      1.00000
     34       2.8744      1.00000
     35       3.0147      1.00000
     36       3.3528      1.00000
     37       3.4589      1.00000
     38       3.6229      1.00000
     39       3.7361      1.00000
     40       3.7799      1.00000
     41       3.7866      1.00000
     42       4.0691      1.00000
     43       4.7142      1.00000
     44       4.7444      1.00000
     45       8.7689      0.00000
     46       9.1198      0.00000
     47       9.3101      0.00000
     48       9.3708      0.00000
     49       9.9484      0.00000
     50      13.7018      0.00000
     51      13.7281      0.00000
     52      14.2028      0.00000

 k-point     3 :       0.0625    0.1875    0.0625
  band No.  band energies     occupation 
      1     -58.4181      1.00000
      2     -58.4163      1.00000
      3     -58.4149      1.00000
      4     -58.4128      1.00000
      5     -58.4076      1.00000
      6     -58.4059      1.00000
      7     -56.2591      1.00000
      8     -56.2571      1.00000
      9     -56.2536      1.00000
     10     -56.2515      1.00000
     11     -56.2473      1.00000
     12     -56.2452      1.00000
     13     -12.6422      1.00000
     14     -11.4837      1.00000
     15     -11.2960      1.00000
     16     -11.2321      1.00000
     17      -0.1849      1.00000
     18       0.1295      1.00000
     19       0.3188      1.00000
     20       0.3279      1.00000
     21       0.6800      1.00000
     22       0.7805      1.00000
     23       0.9519      1.00000
     24       0.9559      1.00000
     25       0.9986      1.00000
     26       1.4849      1.00000
     27       1.4875      1.00000
     28       1.5925      1.00000
     29       2.0384      1.00000
     30       2.0771      1.00000
     31       2.4914      1.00000
     32       2.8947      1.00000
     33       2.9851      1.00000
     34       3.0784      1.00000
     35       3.1834      1.00000
     36       3.2960      1.00000
     37       3.3730      1.00000
     38       3.4619      1.00000
     39       3.5061      1.00000
     40       3.8041      1.00000
     41       3.8783      1.00000
     42       4.0807      1.00000
     43       4.7214      1.00000
     44       4.7466      1.00000
     45       8.9146      0.00000
     46       9.1026      0.00000
     47       9.1149      0.00000
     48       9.4384      0.00000
     49       9.9591      0.00000
     50      13.5480      0.00000
     51      13.9715      0.00000
     52      14.1120      0.00000

 k-point     4 :       0.3125    0.0625    0.0625
  band No.  band energies     occupation 
      1     -58.4186      1.00000
      2     -58.4179      1.00000
      3     -58.4150      1.00000
      4     -58.4129      1.00000
      5     -58.4060      1.00000
      6     -58.4054      1.00000
      7     -56.2597      1.00000
      8     -56.2589      1.00000
      9     -56.2540      1.00000
     10     -56.2515      1.00000
     11     -56.2454      1.00000
     12     -56.2447      1.00000
     13     -12.4258      1.00000
     14     -11.5868      1.00000
     15     -11.3985      1.00000
     16     -11.0930      1.00000
     17      -0.6587      1.00000
     18      -0.2426      1.00000
     19       0.2722      1.00000
     20       0.4020      1.00000
     21       0.4468      1.00000
     22       0.6294      1.00000
     23       0.7343      1.00000
     24       0.8813      1.00000
     25       1.1604      1.00000
     26       1.4261      1.00000
     27       1.4615      1.00000
     28       1.7312      1.00000
     29       2.1006      1.00000
     30       2.1211      1.00000
     31       2.4057      1.00000
     32       2.5041      1.00000
     33       2.6393      1.00000
     34       2.8881      1.00000
     35       2.9828      1.00000
     36       3.4482      1.00000
     37       3.5928      1.00000
     38       3.6974      1.00000
     39       3.7809      1.00000
     40       4.1065      1.00000
     41       4.1312      1.00000
     42       4.1345      1.00000
     43       4.7181      1.00000
     44       4.7563      1.00000
     45       8.7666      0.00000
     46       9.2197      0.00000
     47       9.3097      0.00000
     48       9.6647      0.00000
     49      11.1494      0.00000
     50      13.8519      0.00000
     51      14.5926      0.00000
     52      15.0911      0.00000

 k-point     5 :       0.0625    0.3125    0.0625
  band No.  band energies     occupation 
      1     -58.4168      1.00000
      2     -58.4145      1.00000
      3     -58.4143      1.00000
      4     -58.4132      1.00000
      5     -58.4099      1.00000
      6     -58.4072      1.00000
      7     -56.2576      1.00000
      8     -56.2548      1.00000
      9     -56.2533      1.00000
     10     -56.2519      1.00000
     11     -56.2498      1.00000
     12     -56.2467      1.00000
     13     -12.4208      1.00000
     14     -11.6140      1.00000
     15     -11.2460      1.00000
     16     -11.2274      1.00000
     17      -0.6217      1.00000
     18      -0.3382      1.00000
     19       0.3083      1.00000
     20       0.3129      1.00000
     21       0.5320      1.00000
     22       0.5983      1.00000
     23       0.9330      1.00000
     24       0.9520      1.00000
     25       1.0716      1.00000
     26       1.3919      1.00000
     27       1.5235      1.00000
     28       1.6569      1.00000
     29       1.9013      1.00000
     30       2.0294      1.00000
     31       2.2323      1.00000
     32       2.8010      1.00000
     33       2.9082      1.00000
     34       2.9831      1.00000
     35       3.2413      1.00000
     36       3.2449      1.00000
     37       3.4609      1.00000
     38       3.4641      1.00000
     39       3.7289      1.00000
     40       4.0069      1.00000
     41       4.1852      1.00000
     42       4.2199      1.00000
     43       4.7257      1.00000
     44       4.7843      1.00000
     45       8.9792      0.00000
     46       9.0995      0.00000
     47       9.3013      0.00000
     48       9.5670      0.00000
     49      11.1873      0.00000
     50      13.7688      0.00000
     51      14.8523      0.00000
     52      14.9056      0.00000

 k-point     6 :       0.4375    0.0625    0.0625
  band No.  band energies     occupation 
      1     -58.4186      1.00000
      2     -58.4180      1.00000
      3     -58.4149      1.00000
      4     -58.4129      1.00000
      5     -58.4062      1.00000
      6     -58.4055      1.00000
      7     -56.2596      1.00000
      8     -56.2590      1.00000
      9     -56.2539      1.00000
     10     -56.2515      1.00000
     11     -56.2456      1.00000
     12     -56.2448      1.00000
     13     -12.1600      1.00000
     14     -11.8202      1.00000
     15     -11.3739      1.00000
     16     -11.0446      1.00000
     17      -0.8869      1.00000
     18      -0.5581      1.00000
     19       0.2557      1.00000
     20       0.3972      1.00000
     21       0.4437      1.00000
     22       0.5269      1.00000
     23       0.6249      1.00000
     24       0.9100      1.00000
     25       1.0531      1.00000
     26       1.3815      1.00000
     27       1.4805      1.00000
     28       1.7839      1.00000
     29       2.1031      1.00000
     30       2.1097      1.00000
     31       2.1928      1.00000
     32       2.3978      1.00000
     33       2.4015      1.00000
     34       2.9227      1.00000
     35       3.0639      1.00000
     36       3.4979      1.00000
     37       3.6708      1.00000
     38       3.7084      1.00000
     39       3.7492      1.00000
     40       4.3267      1.00000
     41       4.3703      1.00000
     42       4.3945      1.00000
     43       4.6673      1.00000
     44       4.7110      1.00000
     45       8.7648      0.00000
     46       9.2775      0.00000
     47       9.3085      0.00000
     48       9.8246      0.00000
     49      12.3116      0.00000
     50      13.5064      0.00000
     51      15.4208      0.00000
     52      16.0017      0.00000

 k-point     7 :       0.0625    0.4375    0.0625
  band No.  band energies     occupation 
      1     -58.4148      1.00000
      2     -58.4142      1.00000
      3     -58.4137      1.00000
      4     -58.4124      1.00000
      5     -58.4117      1.00000
      6     -58.4094      1.00000
      7     -56.2553      1.00000
      8     -56.2529      1.00000
      9     -56.2527      1.00000
     10     -56.2524      1.00000
     11     -56.2518      1.00000
     12     -56.2492      1.00000
     13     -12.1393      1.00000
     14     -11.8507      1.00000
     15     -11.2091      1.00000
[...]
      6     -58.4042      1.00000
      7     -56.2611      1.00000
      8     -56.2607      1.00000
      9     -56.2526      1.00000
     10     -56.2525      1.00000
     11     -56.2438      1.00000
     12     -56.2434      1.00000
     13     -11.5194      1.00000
     14     -11.4315      1.00000
     15     -11.3298      1.00000
     16     -11.3070      1.00000
     17      -1.1963      1.00000
     18      -1.1851      1.00000
     19      -1.0523      1.00000
     20      -0.9980      1.00000
     21      -0.8099      1.00000
     22      -0.8078      1.00000
     23      -0.5781      1.00000
     24      -0.5733      1.00000
     25       1.3985      1.00000
     26       1.4341      1.00000
     27       1.6182      1.00000
     28       1.6224      1.00000
     29       1.9831      1.00000
     30       2.0124      1.00000
     31       2.9473      1.00000
     32       2.9611      1.00000
     33       3.4549      1.00000
     34       3.4652      1.00000
     35       3.4843      1.00000
     36       3.5291      1.00000
     37       3.7365      1.00000
     38       3.7373      1.00000
     39       4.0025      1.00000
     40       4.0141      1.00000
     41       5.6828      1.00000
     42       5.6941      1.00000
     43       6.0718      1.00000
     44       6.1474      1.00000
     45      10.2378      0.00000
     46      10.2434      0.00000
     47      10.7055      0.00000
     48      10.7521      0.00000
     49      12.9151      0.00000
     50      13.4448      0.00000
     51      13.4493      0.00000
     52      13.6825      0.00000

 k-point    40 :       0.4375    0.4375    0.4375
  band No.  band energies     occupation 
      1     -58.4201      1.00000
      2     -58.4197      1.00000
      3     -58.4141      1.00000
      4     -58.4140      1.00000
      5     -58.4046      1.00000
      6     -58.4043      1.00000
      7     -56.2613      1.00000
      8     -56.2607      1.00000
      9     -56.2528      1.00000
     10     -56.2527      1.00000
     11     -56.2439      1.00000
     12     -56.2435      1.00000
     13     -11.4405      1.00000
     14     -11.4002      1.00000
     15     -11.3051      1.00000
     16     -11.2778      1.00000
     17      -1.3439      1.00000
     18      -1.3259      1.00000
     19      -1.2946      1.00000
     20      -1.2520      1.00000
     21      -0.8444      1.00000
     22      -0.8382      1.00000
     23      -0.8357      1.00000
     24      -0.8289      1.00000
     25       1.3136      1.00000
     26       1.3500      1.00000
     27       1.8361      1.00000
     28       1.8444      1.00000
     29       2.0145      1.00000
     30       2.0435      1.00000
     31       2.9398      1.00000
     32       2.9577      1.00000
     33       3.3237      1.00000
     34       3.3474      1.00000
     35       3.5954      1.00000
     36       3.6495      1.00000
     37       3.8421      1.00000
     38       3.8464      1.00000
     39       4.0555      1.00000
     40       4.0627      1.00000
     41       6.1301      1.00000
     42       6.1645      1.00000
     43       6.1666      1.00000
     44       6.2099      1.00000
     45      10.6930      0.00000
     46      10.7081      0.00000
     47      10.7264      0.00000
     48      10.7543      0.00000
     49      12.7210      0.00000
     50      12.9700      0.00000
     51      13.0200      0.00000
     52      13.0622      0.00000


--------------------------------------------------------------------------------------------------------


 soft charge-density along one line, spin component           1
         0         1         2         3         4         5         6         7         8         9
 total charge-density along one line
 
 soft charge-density along one line, spin component           2
         0         1         2         3         4         5         6         7         8         9
 total charge-density along one line
 
 pseudopotential strength for first ion, spin component:           1
-62.093  -0.000   0.000  10.627   0.000  -0.000  -0.000   0.000
 -0.000 -62.093  -0.000   0.000  10.627   0.000  -0.000  -0.000
  0.000  -0.000 -62.094  -0.000   0.000  10.628  -0.000  -0.000
 10.627   0.000  -0.000   5.322  -0.000   0.000   0.000  -0.000
  0.000  10.627   0.000  -0.000   5.322  -0.000   0.000   0.000
 -0.000   0.000  10.628   0.000  -0.000   5.322   0.000   0.000
 -0.000  -0.000  -0.000   0.000   0.000   0.000  -9.741  -0.000
  0.000  -0.000  -0.000  -0.000   0.000   0.000  -0.000  -9.740
  0.000   0.000   0.000  -0.000  -0.000  -0.000  -0.000  -0.000
 -0.000  -0.000   0.000   0.000   0.000  -0.000  -0.000   0.000
  0.000   0.000  -0.000  -0.000  -0.000   0.000   0.000   0.000
 -0.000  -0.000  -0.000   0.000   0.000   0.000 -10.389  -0.000
  0.000  -0.000  -0.000  -0.000   0.000   0.000  -0.000 -10.388
  0.000   0.000   0.000  -0.000  -0.000  -0.000  -0.000  -0.000
 -0.000  -0.000   0.000   0.000   0.000  -0.000  -0.000   0.000
  0.000   0.000  -0.000  -0.000  -0.000   0.000   0.000   0.000
  0.000  -0.000   0.000   0.000  -0.000   0.000  -0.000   0.000
  0.000  -0.000   0.000   0.000  -0.000   0.000  -0.000   0.000
 pseudopotential strength for first ion, spin component:           2
-60.613  -0.000   0.000   9.954   0.000  -0.000  -0.000   0.000
 -0.000 -60.613  -0.000   0.000   9.954   0.000  -0.000  -0.000
  0.000  -0.000 -60.613  -0.000   0.000   9.954  -0.000  -0.000
  9.954   0.000  -0.000   5.552  -0.000   0.000   0.000  -0.000
  0.000   9.954   0.000  -0.000   5.552  -0.000   0.000   0.000
 -0.000   0.000   9.954   0.000  -0.000   5.552   0.000   0.000
 -0.000  -0.000  -0.000   0.000   0.000   0.000  -8.744  -0.000
  0.000  -0.000  -0.000  -0.000   0.000   0.000  -0.000  -8.743
  0.000   0.000   0.000  -0.000  -0.000  -0.000  -0.000  -0.000
 -0.000  -0.000   0.000   0.000   0.000  -0.000  -0.000  -0.000
  0.000   0.000  -0.000  -0.000  -0.000   0.000  -0.000   0.000
 -0.000  -0.000  -0.000   0.000   0.000   0.000  -9.403  -0.000
  0.000  -0.000  -0.000  -0.000   0.000   0.000  -0.000  -9.402
  0.000   0.000   0.000  -0.000  -0.000  -0.000  -0.000  -0.000
 -0.000  -0.000   0.000   0.000   0.000  -0.000  -0.000  -0.000
  0.000   0.000  -0.000  -0.000  -0.000   0.000  -0.000   0.000
  0.000  -0.000   0.000   0.000  -0.000   0.000  -0.000   0.000
  0.000  -0.000   0.000   0.000  -0.000   0.000  -0.000   0.000
 total augmentation occupancy for first ion, spin component:           1
  1.996  -0.000   0.000  -0.020  -0.000  -0.000   0.000  -0.000  -0.000   0.000   0.000  -0.000   0.000   0.000   0.000   0.000
 -0.000   1.996   0.000  -0.000  -0.020   0.000  -0.000   0.000  -0.000  -0.000   0.000   0.000   0.000   0.000   0.000  -0.000
  0.000   0.000   1.996   0.000  -0.000  -0.020   0.000   0.000   0.000   0.000   0.000   0.000   0.000   0.000   0.000   0.000
 -0.020  -0.000   0.000   0.096   0.000   0.000   0.000  -0.000  -0.000  -0.000   0.000   0.000   0.000   0.000   0.000   0.000
 -0.000  -0.020  -0.000   0.000   0.096  -0.000   0.000  -0.000  -0.000  -0.000   0.000  -0.000  -0.000   0.000   0.000   0.000
 -0.000   0.000  -0.020   0.000  -0.000   0.096  -0.000   0.000   0.000   0.000   0.000   0.000   0.000   0.000   0.000   0.000
  0.000  -0.000   0.000   0.000   0.000  -0.000   5.186   0.000  -0.000  -0.000  -0.000  -2.549   0.000   0.000   0.000   0.000
 -0.000   0.000   0.000  -0.000  -0.000   0.000   0.000   5.184  -0.000   0.000   0.000   0.000  -2.547   0.000  -0.000  -0.000
 -0.000  -0.000   0.000  -0.000   0.000   0.000  -0.000  -0.000   8.810   0.000  -0.005   0.000  -0.000  -6.987  -0.000   0.005
  0.000  -0.000   0.000  -0.000  -0.000   0.000  -0.000   0.000  -0.000   5.186  -0.000  -0.000  -0.000   0.000  -2.549  -0.000
 -0.000   0.000   0.000   0.000   0.000   0.000  -0.000  -0.000  -0.005   0.000   8.816  -0.000  -0.000   0.005  -0.000  -6.993
 -0.000   0.000   0.000   0.000  -0.000   0.000  -2.549   0.000   0.000  -0.000  -0.000   2.022  -0.000  -0.000   0.000   0.000
  0.000   0.000   0.000   0.000  -0.000   0.000   0.000  -2.547   0.000  -0.000  -0.000  -0.000   2.020  -0.000   0.000  -0.000
  0.000   0.000   0.000   0.000  -0.000   0.000   0.000   0.000  -6.987   0.000   0.005  -0.000   0.000   6.366   0.000  -0.005
  0.000   0.000   0.000   0.000   0.000   0.000   0.000  -0.000  -0.000  -2.549  -0.000   0.000   0.000  -0.000   2.022  -0.000
  0.000   0.000   0.000  -0.000   0.000   0.000   0.000  -0.000   0.005   0.000  -6.993   0.000  -0.000  -0.005  -0.000   6.371
  0.000   0.000  -0.000   0.000   0.000   0.000  -0.000  -0.000   0.004  -0.000  -0.007   0.000  -0.000  -0.003  -0.000   0.004
 -0.000  -0.000   0.000   0.000   0.000  -0.000   0.000  -0.000  -0.000  -0.000   0.000  -0.000   0.000   0.000   0.000  -0.000
 total augmentation occupancy for first ion, spin component:           2
 -0.001   0.000  -0.000  -0.006   0.000   0.000  -0.000   0.000   0.000  -0.000   0.000  -0.000   0.000   0.000  -0.000   0.000
  0.000  -0.001   0.000  -0.000  -0.006   0.000  -0.000  -0.000   0.000   0.000   0.000  -0.000   0.000   0.000   0.000   0.000
 -0.000   0.000  -0.001   0.000  -0.000  -0.006   0.000   0.000   0.000   0.000   0.000   0.000  -0.000   0.000   0.000  -0.000
 -0.006  -0.000   0.000   0.006   0.000   0.000   0.000   0.000  -0.000  -0.000   0.000   0.000   0.000   0.000   0.000   0.000
  0.000  -0.006  -0.000   0.000   0.006  -0.000  -0.000   0.000  -0.000  -0.000   0.000   0.000   0.000  -0.000   0.000  -0.000
  0.000   0.000  -0.006   0.000  -0.000   0.007   0.000  -0.000   0.000  -0.000  -0.000   0.000   0.000   0.000   0.000  -0.000
 -0.000  -0.000   0.000   0.000  -0.000   0.000   0.815  -0.000  -0.000   0.000  -0.000  -0.500   0.000  -0.000  -0.000   0.000
  0.000  -0.000   0.000   0.000   0.000  -0.000  -0.000   0.769  -0.000  -0.000   0.000   0.000  -0.458   0.000   0.000   0.000
  0.000   0.000   0.000  -0.000  -0.000   0.000   0.000  -0.000   7.188  -0.000  -0.001   0.000  -0.000  -4.888   0.000   0.002
 -0.000   0.000   0.000  -0.000  -0.000  -0.000   0.000  -0.000  -0.000   0.815   0.000  -0.000   0.000  -0.000  -0.500  -0.000
  0.000   0.000   0.000   0.000   0.000   0.000  -0.000   0.000  -0.001   0.000   7.190  -0.000   0.000   0.002  -0.000  -4.890
 -0.000  -0.000   0.000   0.000   0.000   0.000  -0.500   0.000   0.000  -0.000  -0.000   0.205  -0.000  -0.000   0.000  -0.000
  0.000   0.000  -0.000   0.000   0.000   0.000   0.000  -0.458  -0.000   0.000   0.000  -0.000   0.165   0.000   0.000   0.000
 -0.000   0.000   0.000   0.000  -0.000   0.000  -0.000   0.000  -4.888  -0.000   0.002  -0.000   0.000   3.597   0.000  -0.004
 -0.000   0.000   0.000   0.000   0.000   0.000  -0.000   0.000   0.000  -0.500  -0.000   0.000   0.000  -0.000   0.205  -0.000
  0.000   0.000   0.000   0.000  -0.000  -0.000   0.000   0.000   0.002  -0.000  -4.890  -0.000   0.000  -0.004  -0.000   3.601
 -0.000   0.000  -0.000  -0.000  -0.000   0.000   0.000   0.000   0.004  -0.000  -0.008  -0.000  -0.000  -0.004  -0.000   0.008
  0.000  -0.000   0.000   0.000   0.000  -0.000  -0.000   0.000  -0.000   0.000   0.000   0.000   0.000   0.000   0.000  -0.000


------------------------ aborting loop because EDIFF is reached ----------------------------------------





 total charge

# of ion       s       p       d       tot
------------------------------------------
    1        0.219   6.188   7.910  14.317
    2        0.219   6.188   7.910  14.317
    3        0.219   6.188   7.910  14.317
    4        0.219   6.188   7.910  14.317
    5        1.550   3.493   0.000   5.042
    6        1.550   3.493   0.000   5.042
    7        1.550   3.493   0.000   5.042
    8        1.550   3.493   0.000   5.042
--------------------------------------------------
tot          7.073  38.724  31.640  77.438



 magnetization (x)

# of ion       s       p       d       tot
------------------------------------------
    1        0.013   0.013   1.769   1.795
    2        0.013   0.013   1.769   1.795
    3       -0.013  -0.013  -1.769  -1.795
    4       -0.013  -0.013  -1.769  -1.795
    5       -0.008  -0.056   0.000  -0.064
    6       -0.008  -0.056   0.000  -0.064
    7        0.008   0.056   0.000   0.064
    8        0.008   0.056   0.000   0.064
--------------------------------------------------
tot          0.000   0.000   0.000   0.000
 
    CHARGE:  cpu time    0.3459: real time    0.3462
    FORLOC:  cpu time    0.0030: real time    0.0032
    FORNL :  cpu time    1.8127: real time    1.8134
    STRESS:  cpu time    5.4282: real time    5.4286
    FORCOR:  cpu time    0.0560: real time    0.0560
    FORHAR:  cpu time    0.0060: real time    0.0063
    MIXING:  cpu time    0.0010: real time    0.0014
    OFIELD:  cpu time    0.0000: real time    0.0001

  FORCE on cell =-STRESS in cart. coord.  units (eV):
  Direction    XX          YY          ZZ          XY          YZ          ZX
  --------------------------------------------------------------------------------------
  Alpha Z   620.95559   620.95559   620.95559
  Ewald   -3558.59198 -3558.59198 -3558.59198    -0.00000    -0.00000    -0.00000
  Hartree  1450.84504  1451.06483  1451.06483    -0.00000    -0.00000    -0.00000
  E(xc)    -595.72209  -595.71632  -595.71632    -0.00000    -0.00000    -0.00000
  Local     375.06124   374.64520   374.64520     0.00000     0.00000     0.00000
  n-local  -455.55971  -455.08089  -455.87200     0.09036     0.10125     0.06727
  augment   743.50571   743.60061   743.60061    -0.00000    -0.00000     0.00000
  Kinetic  1422.71455  1420.16093  1425.36105    -2.65096    -2.60153    -2.56389
  Fock        0.00000     0.00000     0.00000     0.00000     0.00000     0.00000
  -------------------------------------------------------------------------------------
  Total       3.20834     3.24247     3.24247     0.00000     0.00000     0.00000
  in kB      70.58461    71.33529    71.33529     0.00000     0.00000     0.00000
  external pressure =       71.09 kB  Pullay stress =        0.00 kB


 VOLUME and BASIS-vectors are now :
 -----------------------------------------------------------------------------
  energy-cutoff  :      500.00
  volume of cell :       72.83
      direct lattice vectors                 reciprocal lattice vectors
     4.176000000  0.000000000  0.000000000     0.239463602  0.000000000  0.000000000
     0.000000000  4.176000000  0.000000000     0.000000000  0.239463602  0.000000000
     0.000000000  0.000000000  4.176000000     0.000000000  0.000000000  0.239463602

  length of vectors
     4.176000000  4.176000000  4.176000000     0.239463602  0.239463602  0.239463602


 FORCES acting on ions
    electron-ion (+dipol)            ewald-force                    non-local-force                 convergence-correction
 -----------------------------------------------------------------------------------------------
   0.377E-13 0.101E-12 -.787E-13   -.268E-13 -.107E-13 -.212E-13   -.290E-23 0.331E-23 0.000E+00   -.368E-12 0.183E-12 -.462E-12
   0.372E-13 0.788E-12 0.607E-12   -.278E-13 0.248E-13 0.718E-14   0.165E-23 0.165E-23 0.000E+00   -.380E-12 0.172E-12 0.299E-12
   0.719E-12 0.928E-13 -.360E-11   0.219E-13 -.236E-13 0.746E-14   0.000E+00 0.000E+00 -.165E-23   0.399E-12 0.175E-12 0.304E-12
   0.736E-12 0.787E-11 -.349E-11   0.209E-13 0.119E-13 -.133E-13   -.124E-23 0.165E-23 -.207E-24   0.352E-12 0.111E-12 -.434E-12
   0.792E-13 0.318E-13 0.403E-12   0.109E-13 -.483E-14 0.234E-14   0.879E-24 0.000E+00 0.000E+00   0.663E-13 0.324E-13 -.149E-12
   0.774E-13 0.162E-11 -.877E-12   0.107E-13 0.591E-14 0.108E-13   -.414E-24 0.165E-23 0.000E+00   0.717E-13 0.464E-14 0.130E-12
   -.758E-14 0.106E-13 0.737E-13   -.562E-14 -.409E-14 0.107E-13   0.465E-24 0.165E-23 0.000E+00   -.139E-12 0.177E-13 0.119E-12
   -.810E-14 0.968E-13 -.144E-13   -.584E-14 0.665E-14 0.700E-15   -.165E-23 -.248E-23 0.517E-24   -.139E-12 0.545E-14 -.150E-12
 -----------------------------------------------------------------------------------------------
   0.167E-11 0.106E-10 -.698E-11   -.164E-14 0.610E-14 0.467E-14   -.321E-23 0.744E-23 -.134E-23   -.136E-12 0.702E-12 -.343E-12
 
 
 POSITION                                       TOTAL-FORCE (eV/Angst)
 -----------------------------------------------------------------------------------
      0.00000      0.00000      0.00000         0.000000      0.000000      0.000000
      0.00000      2.08800      2.08800         0.000000     -0.000000     -0.000000
      2.08800      0.00000      2.08800        -0.000000     -0.000000     -0.000000
      2.08800      2.08800      0.00000        -0.000000      0.000000      0.000000
      2.08800      0.00000      0.00000         0.000000     -0.000000      0.000000
      2.08800      2.08800      2.08800         0.000000      0.000000      0.000000
      0.00000      0.00000      2.08800         0.000000     -0.000000      0.000000
      0.00000      2.08800      0.00000         0.000000      0.000000      0.000000
 -----------------------------------------------------------------------------------
    total drift:                                0.000000      0.000000     -0.000000


--------------------------------------------------------------------------------------------------------



  FREE ENERGIE OF THE ION-ELECTRON SYSTEM (eV)
  ---------------------------------------------------
  free  energy   TOTEN  =       -37.41499623 eV

  energy  without entropy=      -37.41499623  energy(sigma->0) =      -37.41499623
 


--------------------------------------------------------------------------------------------------------


    POTLOK:  cpu time    0.0680: real time    0.0708


--------------------------------------------------------------------------------------------------------


 writing wavefunctions
     LOOP+:  cpu time  108.3805: real time  116.0102
    4ORBIT:  cpu time    0.0000: real time    0.0000



 total charge

# of ion       s       p       d       tot
------------------------------------------
    1        0.219   6.188   7.910  14.317
    2        0.219   6.188   7.910  14.317
    3        0.219   6.188   7.910  14.317
    4        0.219   6.188   7.910  14.317
    5        1.550   3.493   0.000   5.042
    6        1.550   3.493   0.000   5.042
    7        1.550   3.493   0.000   5.042
    8        1.550   3.493   0.000   5.042
--------------------------------------------------
tot          7.073  38.724  31.640  77.438



 magnetization (x)

# of ion       s       p       d       tot
------------------------------------------
    1        0.013   0.013   1.769   1.795
    2        0.013   0.013   1.769   1.795
    3       -0.013  -0.013  -1.769  -1.795
    4       -0.013  -0.013  -1.769  -1.795
    5       -0.008  -0.056   0.000  -0.064
    6       -0.008  -0.056   0.000  -0.064
    7        0.008   0.056   0.000   0.064
    8        0.008   0.056   0.000   0.064
--------------------------------------------------
tot          0.000   0.000   0.000   0.000
 

 total amount of memory used by VASP MPI-rank0    75215. kBytes
=======================================================================

   base      :      30000. kBytes
   nonlr-proj:       3610. kBytes
   fftplans  :       1986. kBytes
   grid      :       6624. kBytes
   one-center:        248. kBytes
   wavefun   :      32747. kBytes
 
  
  
 General timing and accounting informations for this job:
 ========================================================
  
                  Total CPU time used (sec):      113.723
                            User time (sec):      110.817
                          System time (sec):        2.906
                         Elapsed time (sec):      136.598
  
                   Maximum memory used (kb):       92848.
                   Average memory used (kb):          N/A
  
                          Minor page faults:        12804
                          Major page faults:          126
                 Voluntary context switches:       514047
