PROCAR lm decomposed
# of k-points:   40         # of bands:   52         # of ions:    8

 k-point     1 :    0.06250000 0.06250000 0.06250000     weight = 0.01562500

band     1 # energy  -58.41864894 # occ.  1.00000000
 
ion      s     py     pz     px    dxy    dyz    dz2    dxz  x2-y2    tot
    1  0.000  0.249  0.249  0.000  0.000  0.000  0.000  0.000  0.000  0.498
    2  0.000  0.249  0.249  0.000  0.000  0.000  0.000  0.000  0.000  0.498
    3  0.000  0.000  0.000  0.000  0.000  0.000  0.000  0.000  0.000  0.000
    4  0.000  0.000  0.000  0.000  0.000  0.000  0.000  0.000  0.000  0.000
    5  0.000  0.000  0.000  0.000  0.000  0.000  0.000  0.000  0.000  0.000
    6  0.000  0.000  0.000  0.000  0.000  0.000  0.000  0.000  0.000  0.000
    7  0.000  0.000  0.000  0.000  0.000  0.000  0.000  0.000  0.000  0.000
    8  0.000  0.000  0.000  0.000  0.000  0.000  0.000  0.000  0.000  0.000
tot    0.000  0.498  0.498  0.000  0.000  0.000  0.000  0.000  0.000  0.996
 
band     2 # energy  -58.41794560 # occ.  1.00000000
 
ion      s     py     pz     px    dxy    dyz    dz2    dxz  x2-y2    tot
    1  0.000  0.249  0.249  0.000  0.000  0.000  0.000  0.000  0.000  0.498
    2  0.000  0.249  0.249  0.000  0.000  0.000  0.000  0.000  0.000  0.498
    3  0.000  0.000  0.000  0.000  0.000  0.000  0.000  0.000  0.000  0.000
    4  0.000  0.000  0.000  0.000  0.000  0.000  0.000  0.000  0.000  0.000
    5  0.000  0.000  0.000  0.000  0.000  0.000  0.000  0.000  0.000  0.000
    6  0.000  0.000  0.000  0.000  0.000  0.000  0.000  0.000  0.000  0.000
    7  0.000  0.000  0.000  0.000  0.000  0.000  0.000  0.000  0.000  0.000
    8  0.000  0.000  0.000  0.000  0.000  0.000  0.000  0.000  0.000  0.000
tot    0.000  0.498  0.498  0.000  0.000  0.000  0.000  0.000  0.000  0.996
 
band     3 # energy  -58.41519738 # occ.  1.00000000
 
ion      s     py     pz     px    dxy    dyz    dz2    dxz  x2-y2    tot
    1  0.000  0.000  0.000  0.498  0.000  0.000  0.000  0.000  0.000  0.498
    2  0.000  0.000  0.000  0.498  0.000  0.000  0.000  0.000  0.000  0.498
    3  0.000  0.000  0.000  0.000  0.000  0.000  0.000  0.000  0.000  0.000
    4  0.000  0.000  0.000  0.000  0.000  0.000  0.000  0.000  0.000  0.000
    5  0.000  0.000  0.000  0.000  0.000  0.000  0.000  0.000  0.000  0.000
    6  0.000  0.000  0.000  0.000  0.000  0.000  0.000  0.000  0.000  0.000
    7  0.000  0.000  0.000  0.000  0.000  0.000  0.000  0.000  0.000  0.000
    8  0.000  0.000  0.000  0.000  0.000  0.000  0.000  0.000  0.000  0.000
tot    0.000  0.000  0.000  0.996  0.000  0.000  0.000  0.000  0.000  0.996
 
band     4 # energy  -58.41263099 # occ.  1.00000000
 
ion      s     py     pz     px    dxy    dyz    dz2    dxz  x2-y2    tot
    1  0.000  0.000  0.000  0.498  0.000  0.000  0.000  0.000  0.000  0.498
    2  0.000  0.000  0.000  0.498  0.000  0.000  0.000  0.000  0.000  0.498
    3  0.000  0.000  0.000  0.000  0.000  0.000  0.000  0.000  0.000  0.000
    4  0.000  0.000  0.000  0.000  0.000  0.000  0.000  0.000  0.000  0.000
    5  0.000  0.000  0.000  0.000  0.000  0.000  0.000  0.000  0.000  0.000
    6  0.000  0.000  0.000  0.000  0.000  0.000  0.000  0.000  0.000  0.000
    7  0.000  0.000  0.000  0.000  0.000  0.000  0.000  0.000  0.000  0.000
    8  0.000  0.000  0.000  0.000  0.000  0.000  0.000  0.000  0.000  0.000
tot    0.000  0.000  0.000  0.996  0.000  0.000  0.000  0.000  0.000  0.996
 
band     5 # energy  -58.40619082 # occ.  1.00000000
 
ion      s     py     pz     px    dxy    dyz    dz2    dxz  x2-y2    tot
    1  0.000  0.249  0.249  0.000  0.000  0.000  0.000  0.000  0.000  0.498
    2  0.000  0.249  0.249  0.000  0.000  0.000  0.000  0.000  0.000  0.498
    3  0.000  0.000  0.000  0.000  0.000  0.000  0.000  0.000  0.000  0.000
    4  0.000  0.000  0.000  0.000  0.000  0.000  0.000  0.000  0.000  0.000
    5  0.000  0.000  0.000  0.000  0.000  0.000  0.000  0.000  0.000  0.000
    6  0.000  0.000  0.000  0.000  0.000  0.000  0.000  0.000  0.000  0.000
    7  0.000  0.000  0.000  0.000  0.000  0.000  0.000  0.000  0.000  0.000
    8  0.000  0.000  0.000  0.000  0.000  0.000  0.000  0.000  0.000  0.000
tot    0.000  0.498  0.498  0.000  0.000  0.000  0.000  0.000  0.000  0.996
 
band     6 # energy  -58.40542966 # occ.  1.00000000
 
ion      s     py     pz     px    dxy    dyz    dz2    dxz  x2-y2    tot
    1  0.000  0.249  0.249  0.000  0.000  0.000  0.000  0.000  0.000  0.498
    2  0.000  0.249  0.249  0.000  0.000  0.000  0.000  0.000  0.000  0.498
    3  0.000  0.000  0.000  0.000  0.000  0.000  0.000  0.000  0.000  0.000
    4  0.000  0.000  0.000  0.000  0.000  0.000  0.000  0.000  0.000  0.000
    5  0.000  0.000  0.000  0.000  0.000  0.000  0.000  0.000  0.000  0.000
    6  0.000  0.000  0.000  0.000  0.000  0.000  0.000  0.000  0.000  0.000
    7  0.000  0.000  0.000  0.000  0.000  0.000  0.000  0.000  0.000  0.000
    8  0.000  0.000  0.000  0.000  0.000  0.000  0.000  0.000  0.000  0.000
tot    0.000  0.498  0.498  0.000  0.000  0.000  0.000  0.000  0.000  0.996
 
band     7 # energy  -56.25966447 # occ.  1.00000000
 
ion      s     py     pz     px    dxy    dyz    dz2    dxz  x2-y2    tot
    1  0.000  0.000  0.000  0.000  0.000  0.000  0.000  0.000  0.000  0.000
    2  0.000  0.000  0.000  0.000  0.000  0.000  0.000  0.000  0.000  0.000
    3  0.000  0.249  0.249  0.000  0.000  0.000  0.000  0.000  0.000  0.498
    4  0.000  0.249  0.249  0.000  0.000  0.000  0.000  0.000  0.000  0.498
    5  0.000  0.000  0.000  0.000  0.000  0.000  0.000  0.000  0.000  0.000
    6  0.000  0.000  0.000  0.000  0.000  0.000  0.000  0.000  0.000  0.000
    7  0.000  0.000  0.000  0.000  0.000  0.000  0.000  0.000  0.000  0.000
    8  0.000  0.000  0.000  0.000  0.000  0.000  0.000  0.000  0.000  0.000
tot    0.000  0.498  0.498  0.000  0.000  0.000  0.000  0.000  0.000  0.996
 
band     8 # energy  -56.25886065 # occ.  1.00000000
 
ion      s     py     pz     px    dxy    dyz    dz2    dxz  x2-y2    tot
    1  0.000  0.000  0.000  0.000  0.000  0.000  0.000  0.000  0.000  0.000
    2  0.000  0.000  0.000  0.000  0.000  0.000  0.000  0.000  0.000  0.000
    3  0.000  0.249  0.249  0.000  0.000  0.000  0.000  0.000  0.000  0.498
    4  0.000  0.249  0.249  0.000  0.000  0.000  0.000  0.000  0.000  0.498
    5  0.000  0.000  0.000  0.000  0.000  0.000  0.000  0.000  0.000  0.000
    6  0.000  0.000  0.000  0.000  0.000  0.000  0.000  0.000  0.000  0.000
    7  0.000  0.000  0.000  0.000  0.000  0.000  0.000  0.000  0.000  0.000
    8  0.000  0.000  0.000  0.000  0.000  0.000  0.000  0.000  0.000  0.000
tot    0.000  0.498  0.498  0.000  0.000  0.000  0.000  0.000  0.000  0.996
 
band     9 # energy  -56.25393760 # occ.  1.00000000
 
ion      s     py     pz     px    dxy    dyz    dz2    dxz  x2-y2    tot
    1  0.000  0.000  0.000  0.000  0.000  0.000  0.000  0.000  0.000  0.000
    2  0.000  0.000  0.000  0.000  0.000  0.000  0.000  0.000  0.000  0.000
    3  0.000  0.000  0.000  0.498  0.000  0.000  0.000  0.000  0.000  0.498
    4  0.000  0.000  0.000  0.498  0.000  0.000  0.000  0.000  0.000  0.498
    5  0.000  0.000  0.000  0.000  0.000  0.000  0.000  0.000  0.000  0.000
    6  0.000  0.000  0.000  0.000  0.000  0.000  0.000  0.000  0.000  0.000
    7  0.000  0.000  0.000  0.000  0.000  0.000  0.000  0.000  0.000  0.000
    8  0.000  0.000  0.000  0.000  0.000  0.000  0.000  0.000  0.000  0.000
tot    0.000  0.000  0.000  0.996  0.000  0.000  0.000  0.000  0.000  0.996
 
band    10 # energy  -56.25131224 # occ.  1.00000000
 
ion      s     py     pz     px    dxy    dyz    dz2    dxz  x2-y2    tot
    1  0.000  0.000  0.000  0.000  0.000  0.000  0.000  0.000  0.000  0.000
    2  0.000  0.000  0.000  0.000  0.000  0.000  0.000  0.000  0.000  0.000
    3  0.000  0.000  0.000  0.498  0.000  0.000  0.000  0.000  0.000  0.498
    4  0.000  0.000  0.000  0.498  0.000  0.000  0.000  0.000  0.000  0.498
    5  0.000  0.000  0.000  0.000  0.000  0.000  0.000  0.000  0.000  0.000
    6  0.000  0.000  0.000  0.000  0.000  0.000  0.000  0.000  0.000  0.000
    7  0.000  0.000  0.000  0.000  0.000  0.000  0.000  0.000  0.000  0.000
    8  0.000  0.000  0.000  0.000  0.000  0.000  0.000  0.000  0.000  0.000
tot    0.000  0.000  0.000  0.997  0.000  0.000  0.000  0.000  0.000  0.997
 
band    11 # energy  -56.24562774 # occ.  1.00000000
 
ion      s     py     pz     px    dxy    dyz    dz2    dxz  x2-y2    tot
    1  0.000  0.000  0.000  0.000  0.000  0.000  0.000  0.000  0.000  0.000
    2  0.000  0.000  0.000  0.000  0.000  0.000  0.000  0.000  0.000  0.000
    3  0.000  0.249  0.249  0.000  0.000  0.000  0.000  0.000  0.000  0.498
    4  0.000  0.249  0.249  0.000  0.000  0.000  0.000  0.000  0.000  0.498
    5  0.000  0.000  0.000  0.000  0.000  0.000  0.000  0.000  0.000  0.000
    6  0.000  0.000  0.000  0.000  0.000  0.000  0.000  0.000  0.000  0.000
    7  0.000  0.000  0.000  0.000  0.000  0.000  0.000  0.000  0.000  0.000
    8  0.000  0.000  0.000  0.000  0.000  0.000  0.000  0.000  0.000  0.000
tot    0.000  0.498  0.498  0.000  0.000  0.000  0.000  0.000  0.000  0.997
 
band    12 # energy  -56.24472924 # occ.  1.00000000
 
ion      s     py     pz     px    dxy    dyz    dz2    dxz  x2-y2    tot
    1  0.000  0.000  0.000  0.000  0.000  0.000  0.000  0.000  0.000  0.000
    2  0.000  0.000  0.000  0.000  0.000  0.000  0.000  0.000  0.000  0.000
    3  0.000  0.249  0.249  0.000  0.000  0.000  0.000  0.000  0.000  0.498
    4  0.000  0.249  0.249  0.000  0.000  0.000  0.000  0.000  0.000  0.498
    5  0.000  0.000  0.000  0.000  0.000  0.000  0.000  0.000  0.000  0.000
    6  0.000  0.000  0.000  0.000  0.000  0.000  0.000  0.000  0.000  0.000
    7  0.000  0.000  0.000  0.000  0.000  0.000  0.000  0.000  0.000  0.000
    8  0.000  0.000  0.000  0.000  0.000  0.000  0.000  0.000  0.000  0.000
tot    0.000  0.498  0.498  0.000  0.000  0.000  0.000  0.000  0.000  0.997
 
band    13 # energy  -12.76334258 # occ.  1.00000000
 
ion      s     py     pz     px    dxy    dyz    dz2    dxz  x2-y2    tot
    1  0.016  0.000  0.000  0.000  0.000  0.000  0.000  0.000  0.000  0.016
    2  0.016  0.000  0.000  0.000  0.000  0.000  0.000  0.000  0.000  0.016
    3  0.014  0.000  0.000  0.000  0.000  0.000  0.000  0.000  0.000  0.014
    4  0.014  0.000  0.000  0.000  0.000  0.000  0.000  0.000  0.000  0.014
    5  0.151  0.000  0.000  0.000  0.000  0.000  0.000  0.000  0.000  0.151
    6  0.151  0.000  0.000  0.000  0.000  0.000  0.000  0.000  0.000  0.151
    7  0.180  0.000  0.000  0.000  0.000  0.000  0.000  0.000  0.000  0.180
    8  0.180  0.000  0.000  0.000  0.000  0.000  0.000  0.000  0.000  0.180
tot    0.721  0.000  0.000  0.000  0.000  0.000  0.000  0.000  0.000  0.722
 
band    14 # energy  -11.45712848 # occ.  1.00000000
 
ion      s     py     pz     px    dxy    dyz    dz2    dxz  x2-y2    tot
    1  0.000  0.000  0.000  0.000  0.000  0.000  0.017  0.000  0.006  0.024
    2  0.000  0.000  0.000  0.000  0.000  0.000  0.017  0.000  0.006  0.024
    3  0.003  0.000  0.000  0.000  0.000  0.000  0.001  0.000  0.002  0.007
    4  0.003  0.000  0.000  0.000  0.000  0.000  0.001  0.000  0.002  0.007
    5  0.000  0.000  0.000  0.000  0.000  0.000  0.000  0.000  0.000  0.000
    6  0.000  0.000  0.000  0.000  0.000  0.000  0.000  0.000  0.000  0.000
    7  0.375  0.000  0.000  0.000  0.000  0.000  0.000  0.000  0.000  0.375
    8  0.375  0.000  0.000  0.000  0.000  0.000  0.000  0.000  0.000  0.375
tot    0.756  0.000  0.000  0.000  0.000  0.000  0.036  0.000  0.016  0.810
 
band    15 # energy  -11.33060974 # occ.  1.00000000
 
ion      s     py     pz     px    dxy    dyz    dz2    dxz  x2-y2    tot
    1  0.001  0.000  0.000  0.000  0.000  0.000  0.004  0.000  0.012  0.018
    2  0.001  0.000  0.000  0.000  0.000  0.000  0.004  0.000  0.012  0.018
    3  0.002  0.000  0.000  0.000  0.000  0.000  0.002  0.000  0.005  0.009
    4  0.002  0.000  0.000  0.000  0.000  0.000  0.002  0.000  0.005  0.009
    5  0.203  0.000  0.000  0.000  0.000  0.000  0.000  0.000  0.000  0.203
    6  0.203  0.000  0.000  0.000  0.000  0.000  0.000  0.000  0.000  0.203
    7  0.175  0.000  0.000  0.000  0.000  0.000  0.000  0.000  0.000  0.175
    8  0.175  0.000  0.000  0.000  0.000  0.000  0.000  0.000  0.000  0.175
tot    0.763  0.000  0.000  0.000  0.000  0.000  0.011  0.000  0.034  0.808
 
band    16 # energy  -11.20558547 # occ.  1.00000000
 
ion      s     py     pz     px    dxy    dyz    dz2    dxz  x2-y2    tot
    1  0.004  0.000  0.000  0.000  0.000  0.000  0.002  0.000  0.006  0.012
    2  0.004  0.000  0.000  0.000  0.000  0.000  0.002  0.000  0.006  0.012
    3  0.000  0.000  0.000  0.000  0.000  0.000  0.007  0.000  0.002  0.010
    4  0.000  0.000  0.000  0.000  0.000  0.000  0.007  0.000  0.002  0.010
    5  0.381  0.000  0.000  0.000  0.000  0.000  0.000  0.000  0.000  0.381
    6  0.381  0.000  0.000  0.000  0.000  0.000  0.000  0.000  0.000  0.381
    7  0.000  0.000  0.000  0.000  0.000  0.000  0.000  0.000  0.000  0.000
    8  0.000  0.000  0.000  0.000  0.000  0.000  0.000  0.000  0.000  0.000
tot    0.770  0.000  0.000  0.000  0.000  0.000  0.019  0.000  0.017  0.808
 
band    17 # energy    0.32385004 # occ.  1.00000000
 
ion      s     py     pz     px    dxy    dyz    dz2    dxz  x2-y2    tot
    1  0.001  0.000  0.000  0.019  0.004  0.000  0.031  0.004  0.094  0.151
    2  0.001  0.000  0.000  0.019  0.004  0.000  0.031  0.004  0.094  0.151
    3  0.001  0.000  0.000  0.017  0.001  0.000  0.000  0.001  0.000  0.019
    4  0.001  0.000  0.000  0.017  0.001  0.000  0.000  0.001  0.000  0.019
    5  0.001  0.000  0.000  0.093  0.000  0.000  0.000  0.000  0.000  0.094
    6  0.001  0.000  0.000  0.093  0.000  0.000  0.000  0.000  0.000  0.094
    7  0.001  0.000  0.000  0.072  0.000  0.000  0.000  0.000  0.000  0.073
    8  0.001  0.000  0.000  0.072  0.000  0.000  0.000  0.000  0.000  0.073
tot    0.006  0.000  0.000  0.401  0.009  0.000  0.062  0.009  0.187  0.675
 
band    18 # energy    0.33324121 # occ.  1.00000000
 
ion      s     py     pz     px    dxy    dyz    dz2    dxz  x2-y2    tot
    1  0.000  0.011  0.011  0.000  0.003  0.000  0.064  0.003  0.021  0.114
    2  0.000  0.011  0.011  0.000  0.003  0.000  0.064  0.003  0.021  0.114
    3  0.001  0.009  0.009  0.000  0.000  0.002  0.000  0.000  0.000  0.021
    4  0.001  0.009  0.009  0.000  0.000  0.002  0.000  0.000  0.000  0.021
    5  0.000  0.039  0.039  0.000  0.000  0.000  0.000  0.000  0.000  0.078
    6  0.000  0.039  0.039  0.000  0.000  0.000  0.000  0.000  0.000  0.078
    7  0.002  0.053  0.053  0.000  0.000  0.000  0.000  0.000  0.000  0.109
    8  0.002  0.053  0.053  0.000  0.000  0.000  0.000  0.000  0.000  0.109
tot    0.006  0.224  0.224  0.000  0.007  0.004  0.129  0.007  0.043  0.644
 
band    19 # energy    0.36638869 # occ.  1.00000000
 
ion      s     py     pz     px    dxy    dyz    dz2    dxz  x2-y2    tot
    1  0.001  0.010  0.010  0.000  0.003  0.008  0.027  0.003  0.082  0.145
    2  0.001  0.010  0.010  0.000  0.003  0.008  0.027  0.003  0.082  0.145
    3  0.000  0.008  0.008  0.000  0.000  0.000  0.000  0.000  0.000  0.016
    4  0.000  0.008  0.008  0.000  0.000  0.000  0.000  0.000  0.000  0.016
    5  0.001  0.033  0.033  0.001  0.000  0.000  0.000  0.000  0.000  0.068
    6  0.001  0.033  0.033  0.001  0.000  0.000  0.000  0.000  0.000  0.068
    7  0.000  0.052  0.052  0.000  0.000  0.000  0.000  0.000  0.000  0.104
    8  0.000  0.052  0.052  0.000  0.000  0.000  0.000  0.000  0.000  0.104
tot    0.004  0.207  0.207  0.002  0.006  0.015  0.055  0.006  0.164  0.666
 
band    20 # energy    0.45265228 # occ.  1.00000000
 
ion      s     py     pz     px    dxy    dyz    dz2    dxz  x2-y2    tot
    1  0.000  0.000  0.000  0.000  0.000  0.000  0.351  0.000  0.117  0.469
    2  0.000  0.000  0.000  0.000  0.000  0.000  0.351  0.000  0.117  0.469
    3  0.000  0.000  0.000  0.000  0.000  0.000  0.000  0.000  0.000  0.000
    4  0.000  0.000  0.000  0.000  0.000  0.000  0.000  0.000  0.000  0.000
    5  0.000  0.000  0.000  0.000  0.000  0.000  0.000  0.000  0.000  0.000
    6  0.000  0.000  0.000  0.000  0.000  0.000  0.000  0.000  0.000  0.000
    7  0.000  0.004  0.004  0.000  0.000  0.000  0.000  0.000  0.000  0.008
    8  0.000  0.004  0.004  0.000  0.000  0.000  0.000  0.000  0.000  0.008
tot    0.000  0.009  0.009  0.000  0.000  0.000  0.703  0.000  0.234  0.956
 
band    21 # energy    0.81930431 # occ.  1.00000000
 
ion      s     py     pz     px    dxy    dyz    dz2    dxz  x2-y2    tot
    1  0.000  0.000  0.000  0.000  0.001  0.376  0.005  0.001  0.014  0.398
    2  0.000  0.000  0.000  0.000  0.001  0.376  0.005  0.001  0.014  0.398
    3  0.000  0.000  0.000  0.000  0.000  0.028  0.000  0.000  0.000  0.029
    4  0.000  0.000  0.000  0.000  0.000  0.028  0.000  0.000  0.000  0.029
    5  0.000  0.001  0.001  0.002  0.000  0.000  0.000  0.000  0.000  0.003
    6  0.000  0.001  0.001  0.002  0.000  0.000  0.000  0.000  0.000  0.003
    7  0.000  0.003  0.003  0.003  0.000  0.000  0.000  0.000  0.000  0.010
    8  0.000  0.003  0.003  0.003  0.000  0.000  0.000  0.000  0.000  0.010
tot    0.002  0.009  0.009  0.010  0.001  0.808  0.010  0.001  0.029  0.880
 
band    22 # energy    0.87199906 # occ.  1.00000000
 
ion      s     py     pz     px    dxy    dyz    dz2    dxz  x2-y2    tot
    1  0.000  0.002  0.002  0.001  0.003  0.003  0.087  0.003  0.262  0.364
    2  0.000  0.002  0.002  0.001  0.003  0.003  0.087  0.003  0.262  0.364
    3  0.000  0.003  0.003  0.000  0.000  0.000  0.001  0.000  0.000  0.008
    4  0.000  0.003  0.003  0.000  0.000  0.000  0.001  0.000  0.000  0.008
    5  0.007  0.016  0.016  0.009  0.000  0.000  0.000  0.000  0.000  0.048
    6  0.007  0.016  0.016  0.009  0.000  0.000  0.000  0.000  0.000  0.048
    7  0.000  0.009  0.009  0.000  0.000  0.000  0.000  0.000  0.000  0.018
    8  0.000  0.009  0.009  0.000  0.000  0.000  0.000  0.000  0.000  0.018
tot    0.015  0.061  0.061  0.019  0.007  0.006  0.177  0.007  0.525  0.877
 
band    23 # energy    0.92228009 # occ.  1.00000000
 
ion      s     py     pz     px    dxy    dyz    dz2    dxz  x2-y2    tot
    1  0.000  0.000  0.000  0.000  0.168  0.000  0.013  0.168  0.004  0.354
    2  0.000  0.000  0.000  0.000  0.168  0.000  0.013  0.168  0.004  0.354
    3  0.000  0.000  0.000  0.001  0.036  0.000  0.000  0.036  0.000  0.074
    4  0.000  0.000  0.000  0.001  0.036  0.000  0.000  0.036  0.000  0.074
    5  0.000  0.001  0.001  0.000  0.000  0.000  0.000  0.000  0.000  0.003
    6  0.000  0.001  0.001  0.000  0.000  0.000  0.000  0.000  0.000  0.003
    7  0.001  0.001  0.001  0.005  0.000  0.000  0.000  0.000  0.000  0.009
    8  0.001  0.001  0.001  0.005  0.000  0.000  0.000  0.000  0.000  0.009
tot    0.002  0.006  0.006  0.011  0.409  0.000  0.026  0.409  0.009  0.879
 
band    24 # energy    0.96368503 # occ.  1.00000000
 
ion      s     py     pz     px    dxy    dyz    dz2    dxz  x2-y2    tot
    1  0.000  0.001  0.001  0.000  0.169  0.001  0.000  0.169  0.000  0.341
    2  0.000  0.001  0.001  0.000  0.169  0.001  0.000  0.169  0.000  0.341
    3  0.000  0.000  0.000  0.000  0.044  0.000  0.000  0.044  0.000  0.087
    4  0.000  0.000  0.000  0.000  0.044  0.000  0.000  0.044  0.000  0.087
    5  0.000  0.000  0.000  0.003  0.000  0.000  0.000  0.000  0.000  0.003
    6  0.000  0.000  0.000  0.003  0.000  0.000  0.000  0.000  0.000  0.003
    7  0.000  0.003  0.003  0.000  0.000  0.000  0.000  0.000  0.000  0.006
    8  0.000  0.003  0.003  0.000  0.000  0.000  0.000  0.000  0.000  0.006
tot    0.000  0.007  0.007  0.007  0.425  0.002  0.000  0.425  0.001  0.875
 
band    25 # energy    0.99905568 # occ.  1.00000000
 
ion      s     py     pz     px    dxy    dyz    dz2    dxz  x2-y2    tot
    1  0.000  0.000  0.000  0.005  0.008  0.030  0.077  0.008  0.232  0.360
    2  0.000  0.000  0.000  0.005  0.008  0.030  0.077  0.008  0.232  0.360
    3  0.000  0.000  0.000  0.006  0.000  0.002  0.001  0.000  0.002  0.011
    4  0.000  0.000  0.000  0.006  0.000  0.002  0.001  0.000  0.002  0.011
    5  0.006  0.000  0.000  0.016  0.000  0.000  0.000  0.000  0.000  0.022
    6  0.006  0.000  0.000  0.016  0.000  0.000  0.000  0.000  0.000  0.022
    7  0.006  0.001  0.001  0.036  0.000  0.000  0.000  0.000  0.000  0.044
    8  0.006  0.001  0.001  0.036  0.000  0.000  0.000  0.000  0.000  0.044
tot    0.025  0.002  0.002  0.126  0.015  0.063  0.156  0.015  0.468  0.874
 
band    26 # energy    1.33811969 # occ.  1.00000000
 
ion      s     py     pz     px    dxy    dyz    dz2    dxz  x2-y2    tot
    1  0.000  0.001  0.001  0.000  0.005  0.000  0.261  0.005  0.087  0.361
    2  0.000  0.001  0.001  0.000  0.005  0.000  0.261  0.005  0.087  0.361
    3  0.000  0.003  0.003  0.000  0.004  0.002  0.000  0.004  0.001  0.018
    4  0.000  0.003  0.003  0.000  0.004  0.002  0.000  0.004  0.001  0.018
    5  0.000  0.020  0.020  0.000  0.000  0.000  0.000  0.000  0.000  0.041
    6  0.000  0.020  0.020  0.000  0.000  0.000  0.000  0.000  0.000  0.041
    7  0.020  0.004  0.004  0.000  0.000  0.000  0.000  0.000  0.000  0.029
    8  0.020  0.004  0.004  0.000  0.000  0.000  0.000  0.000  0.000  0.029
tot    0.041  0.059  0.059  0.000  0.018  0.004  0.523  0.018  0.176  0.897
 
band    27 # energy    1.53524037 # occ.  1.00000000
 
ion      s     py     pz     px    dxy    dyz    dz2    dxz  x2-y2    tot
    1  0.000  0.000  0.000  0.001  0.199  0.000  0.001  0.199  0.004  0.404
    2  0.000  0.000  0.000  0.001  0.199  0.000  0.001  0.199  0.004  0.404
    3  0.000  0.000  0.000  0.000  0.023  0.001  0.000  0.023  0.000  0.048
    4  0.000  0.000  0.000  0.000  0.023  0.001  0.000  0.023  0.000  0.048
    5  0.000  0.001  0.001  0.008  0.000  0.000  0.000  0.000  0.000  0.010
    6  0.000  0.001  0.001  0.008  0.000  0.000  0.000  0.000  0.000  0.010
    7  0.000  0.000  0.000  0.001  0.000  0.000  0.000  0.000  0.000  0.002
    8  0.000  0.000  0.000  0.001  0.000  0.000  0.000  0.000  0.000  0.002
tot    0.001  0.002  0.002  0.021  0.445  0.002  0.003  0.445  0.008  0.928
 
band    28 # energy    1.53946280 # occ.  1.00000000
 
ion      s     py     pz     px    dxy    dyz    dz2    dxz  x2-y2    tot
    1  0.000  0.000  0.000  0.000  0.216  0.000  0.000  0.216  0.000  0.433
    2  0.000  0.000  0.000  0.000  0.216  0.000  0.000  0.216  0.000  0.433
    3  0.000  0.000  0.000  0.000  0.018  0.000  0.000  0.018  0.000  0.037
    4  0.000  0.000  0.000  0.000  0.018  0.000  0.000  0.018  0.000  0.037
    5  0.000  0.001  0.001  0.000  0.000  0.000  0.000  0.000  0.000  0.002
    6  0.000  0.001  0.001  0.000  0.000  0.000  0.000  0.000  0.000  0.002
    7  0.000  0.000  0.000  0.000  0.000  0.000  0.000  0.000  0.000  0.000
    8  0.000  0.000  0.000  0.000  0.000  0.000  0.000  0.000  0.000  0.000
tot    0.000  0.002  0.002  0.000  0.469  0.000  0.000  0.469  0.000  0.942
 
band    29 # energy    2.08577045 # occ.  1.00000000
 
ion      s     py     pz     px    dxy    dyz    dz2    dxz  x2-y2    tot
    1  0.000  0.000  0.000  0.000  0.000  0.468  0.000  0.000  0.000  0.468
    2  0.000  0.000  0.000  0.000  0.000  0.468  0.000  0.000  0.000  0.468
    3  0.000  0.001  0.001  0.000  0.000  0.000  0.000  0.000  0.000  0.003
    4  0.000  0.001  0.001  0.000  0.000  0.000  0.000  0.000  0.000  0.003
    5  0.000  0.006  0.006  0.000  0.000  0.000  0.000  0.000  0.000  0.011
    6  0.000  0.006  0.006  0.000  0.000  0.000  0.000  0.000  0.000  0.011
    7  0.000  0.000  0.000  0.000  0.000  0.000  0.000  0.000  0.000  0.000
    8  0.000  0.000  0.000  0.000  0.000  0.000  0.000  0.000  0.000  0.000
tot    0.000  0.013  0.013  0.000  0.001  0.935  0.000  0.001  0.000  0.964
 
band    30 # energy    2.15049492 # occ.  1.00000000
 
ion      s     py     pz     px    dxy    dyz    dz2    dxz  x2-y2    tot
    1  0.000  0.000  0.000  0.000  0.001  0.043  0.000  0.001  0.000  0.044
    2  0.000  0.000  0.000  0.000  0.001  0.043  0.000  0.001  0.000  0.044
    3  0.000  0.000  0.000  0.000  0.000  0.394  0.000  0.000  0.000  0.396
    4  0.000  0.000  0.000  0.000  0.000  0.394  0.000  0.000  0.000  0.396
    5  0.000  0.005  0.005  0.000  0.000  0.000  0.000  0.000  0.000  0.011
    6  0.000  0.005  0.005  0.000  0.000  0.000  0.000  0.000  0.000  0.011
    7  0.000  0.000  0.000  0.000  0.000  0.000  0.000  0.000  0.000  0.001
    8  0.000  0.000  0.000  0.000  0.000  0.000  0.000  0.000  0.000  0.001
tot    0.000  0.012  0.012  0.000  0.002  0.874  0.000  0.002  0.000  0.903
 
band    31 # energy    2.78229452 # occ.  1.00000000
 
ion      s     py     pz     px    dxy    dyz    dz2    dxz  x2-y2    tot
    1  0.001  0.000  0.000  0.006  0.053  0.000  0.001  0.053  0.003  0.116
    2  0.001  0.000  0.000  0.006  0.053  0.000  0.001  0.053  0.003  0.116
    3  0.000  0.001  0.001  0.000  0.123  0.000  0.000  0.123  0.000  0.249
    4  0.000  0.001  0.001  0.000  0.123  0.000  0.000  0.123  0.000  0.249
    5  0.000  0.008  0.008  0.063  0.000  0.000  0.000  0.000  0.000  0.079
    6  0.000  0.008  0.008  0.063  0.000  0.000  0.000  0.000  0.000  0.079
    7  0.000  0.001  0.001  0.000  0.000  0.000  0.000  0.000  0.000  0.001
    8  0.000  0.001  0.001  0.000  0.000  0.000  0.000  0.000  0.000  0.001
tot    0.001  0.019  0.019  0.139  0.352  0.000  0.003  0.352  0.006  0.892
 
band    32 # energy    2.90688324 # occ.  1.00000000
 
ion      s     py     pz     px    dxy    dyz    dz2    dxz  x2-y2    tot
    1  0.000  0.000  0.000  0.000  0.046  0.000  0.001  0.046  0.000  0.093
    2  0.000  0.000  0.000  0.000  0.046  0.000  0.001  0.046  0.000  0.093
    3  0.000  0.001  0.001  0.001  0.165  0.010  0.000  0.165  0.000  0.344
    4  0.000  0.001  0.001  0.001  0.165  0.010  0.000  0.165  0.000  0.344
    5  0.000  0.009  0.009  0.000  0.000  0.000  0.000  0.000  0.000  0.017
    6  0.000  0.009  0.009  0.000  0.000  0.000  0.000  0.000  0.000  0.017
    7  0.000  0.003  0.003  0.009  0.000  0.000  0.000  0.000  0.000  0.014
    8  0.000  0.003  0.003  0.009  0.000  0.000  0.000  0.000  0.000  0.014
tot    0.000  0.025  0.025  0.019  0.422  0.021  0.002  0.422  0.001  0.936
 
band    33 # energy    2.97875196 # occ.  1.00000000
 
ion      s     py     pz     px    dxy    dyz    dz2    dxz  x2-y2    tot
    1  0.000  0.001  0.001  0.000  0.016  0.000  0.002  0.016  0.001  0.037
    2  0.000  0.001  0.001  0.000  0.016  0.000  0.002  0.016  0.001  0.037
    3  0.000  0.001  0.001  0.000  0.184  0.000  0.000  0.184  0.000  0.369
    4  0.000  0.001  0.001  0.000  0.184  0.000  0.000  0.184  0.000  0.369
    5  0.000  0.009  0.009  0.000  0.000  0.000  0.000  0.000  0.000  0.019
    6  0.000  0.009  0.009  0.000  0.000  0.000  0.000  0.000  0.000  0.019
    7  0.000  0.017  0.017  0.000  0.000  0.000  0.000  0.000  0.000  0.034
    8  0.000  0.017  0.017  0.000  0.000  0.000  0.000  0.000  0.000  0.034
tot    0.000  0.058  0.058  0.000  0.399  0.000  0.004  0.399  0.001  0.920
 
band    34 # energy    2.98175781 # occ.  1.00000000
 
ion      s     py     pz     px    dxy    dyz    dz2    dxz  x2-y2    tot
    1  0.001  0.002  0.002  0.000  0.018  0.002  0.000  0.018  0.001  0.044
    2  0.001  0.002  0.002  0.000  0.018  0.002  0.000  0.018  0.001  0.044
    3  0.000  0.001  0.001  0.001  0.159  0.006  0.000  0.159  0.000  0.327
    4  0.000  0.001  0.001  0.001  0.159  0.006  0.000  0.159  0.000  0.327
    5  0.000  0.011  0.011  0.000  0.000  0.000  0.000  0.000  0.000  0.021
    6  0.000  0.011  0.011  0.000  0.000  0.000  0.000  0.000  0.000  0.021
    7  0.000  0.024  0.024  0.008  0.000  0.000  0.000  0.000  0.000  0.057
    8  0.000  0.024  0.024  0.008  0.000  0.000  0.000  0.000  0.000  0.057
tot    0.002  0.076  0.076  0.018  0.354  0.015  0.001  0.354  0.003  0.899
 
band    35 # energy    3.20494827 # occ.  1.00000000
 
ion      s     py     pz     px    dxy    dyz    dz2    dxz  x2-y2    tot
    1  0.000  0.004  0.004  0.000  0.000  0.000  0.007  0.000  0.002  0.019
    2  0.000  0.004  0.004  0.000  0.000  0.000  0.007  0.000  0.002  0.019
    3  0.001  0.002  0.002  0.001  0.017  0.192  0.000  0.017  0.000  0.233
    4  0.001  0.002  0.002  0.001  0.017  0.192  0.000  0.017  0.000  0.233
    5  0.000  0.027  0.027  0.000  0.000  0.000  0.000  0.000  0.000  0.053
    6  0.000  0.027  0.027  0.000  0.000  0.000  0.000  0.000  0.000  0.053
    7  0.000  0.046  0.046  0.019  0.000  0.000  0.000  0.000  0.000  0.112
    8  0.000  0.046  0.046  0.019  0.000  0.000  0.000  0.000  0.000  0.112
tot    0.003  0.159  0.159  0.041  0.034  0.385  0.015  0.034  0.005  0.835
 
band    36 # energy    3.33549536 # occ.  1.00000000
 
ion      s     py     pz     px    dxy    dyz    dz2    dxz  x2-y2    tot
    1  0.002  0.006  0.006  0.000  0.000  0.009  0.000  0.000  0.001  0.026
    2  0.002  0.006  0.006  0.000  0.000  0.009  0.000  0.000  0.001  0.026
    3  0.000  0.006  0.006  0.000  0.026  0.000  0.001  0.026  0.000  0.065
    4  0.000  0.006  0.006  0.000  0.026  0.000  0.001  0.026  0.000  0.065
    5  0.000  0.070  0.070  0.006  0.000  0.000  0.000  0.000  0.000  0.146
    6  0.000  0.070  0.070  0.006  0.000  0.000  0.000  0.000  0.000  0.146
    7  0.000  0.068  0.068  0.000  0.000  0.000  0.000  0.000  0.000  0.136
    8  0.000  0.068  0.068  0.000  0.000  0.000  0.000  0.000  0.000  0.136
tot    0.005  0.299  0.299  0.012  0.052  0.018  0.004  0.052  0.004  0.745
 
band    37 # energy    3.34411246 # occ.  1.00000000
 
ion      s     py     pz     px    dxy    dyz    dz2    dxz  x2-y2    tot
    1  0.000  0.000  0.000  0.000  0.011  0.000  0.000  0.011  0.000  0.022
    2  0.000  0.000  0.000  0.000  0.011  0.000  0.000  0.011  0.000  0.022
    3  0.001  0.000  0.000  0.023  0.005  0.023  0.001  0.005  0.002  0.060
    4  0.001  0.000  0.000  0.023  0.005  0.023  0.001  0.005  0.002  0.060