 running on    4 total cores
 distrk:  each k-point on    4 cores,    1 groups
 distr:  one band on    1 cores,    4 groups
 vasp.6.2.0 18Jan21 (build Aug 12 2022 13:00:08) complex                        
  
 POSCAR found type information on POSCAR NiO 
 POSCAR found :  2 types and       8 ions
 scaLAPACK will be used
 -----------------------------------------------------------------------------
|                                                                             |
|               ----> ADVICE to this user running VASP <----                  |
|                                                                             |
|     You have a (more or less) 'small supercell' and for smaller cells       |
|     it is recommended to use the reciprocal-space projection scheme!        |
|     The real-space optimization is not efficient for small cells and it     |
|     is also less accurate ...                                               |
|     Therefore, set LREAL=.FALSE. in the INCAR file.                         |
|                                                                             |
 -----------------------------------------------------------------------------

 LDA part: xc-table for Pade appr. of Perdew
 POSCAR, INCAR and KPOINTS ok, starting setup
 FFT: planning ...
 WAVECAR not read
 entering main loop
       N       E                     dE             d eps       ncg     rms          rms(c)
DAV:   1     0.130508416921E+04    0.13051E+04   -0.55695E+04  9408   0.223E+03
DAV:   2     0.948160983522E+02   -0.12103E+04   -0.11741E+04  8600   0.679E+02
DAV:   3    -0.295274779340E+02   -0.12434E+03   -0.12088E+03  9012   0.237E+02
DAV:   4    -0.352611764176E+02   -0.57337E+01   -0.56525E+01  9108   0.471E+01
DAV:   5    -0.353977436410E+02   -0.13657E+00   -0.13626E+00  9136   0.812E+00    0.338E+01
DAV:   6    -0.342778738304E+02    0.11199E+01   -0.11208E+02 11508   0.985E+01    0.350E+01
DAV:   7    -0.360828272213E+02   -0.18050E+01   -0.10246E+01  9392   0.425E+01    0.171E+01
DAV:   8    -0.368622371385E+02   -0.77941E+00   -0.20440E+00 10780   0.118E+01    0.120E+01
DAV:   9    -0.373568312010E+02   -0.49459E+00   -0.34498E-01 11104   0.915E+00    0.277E+00
DAV:  10    -0.374091032171E+02   -0.52272E-01   -0.26415E-01 10772   0.412E+00    0.539E-01
DAV:  11    -0.374136837176E+02   -0.45805E-02   -0.43400E-02  8692   0.188E+00    0.336E-01
DAV:  12    -0.374145405362E+02   -0.85682E-03   -0.10832E-03  9168   0.309E-01    0.161E-01
DAV:  13    -0.374149345049E+02   -0.39397E-03   -0.34602E-04 10376   0.213E-01    0.727E-02
DAV:  14    -0.374149925401E+02   -0.58035E-04   -0.15860E-04  8852   0.936E-02    0.241E-02
DAV:  15    -0.374149959606E+02   -0.34205E-05   -0.12657E-05  7404   0.368E-02    0.103E-02
DAV:  16    -0.374149962303E+02   -0.26969E-06   -0.74516E-07  4516   0.106E-02
   1 F= -.37414996E+02 E0= -.37414996E+02  d E =-.727994E-20  mag=     0.0000
 writing wavefunctions
