   1   1   0   0
  0.1324847E+02  0.2581840E-09  0.2581840E-09  0.2581840E-09  0.5000000E-15
  1.000000000000000E-004
  CAR 
 unknown system                          
     38.91492234     -5.94642388  301     11.24419747      1.00000000
     -5.946  0.0000E+00  0.0000E+00
     -5.797  0.0000E+00  0.0000E+00
     -5.647  0.0000E+00  0.0000E+00
     -5.498  0.0000E+00  0.0000E+00
     -5.348  0.0000E+00  0.0000E+00
     -5.199  0.0000E+00  0.0000E+00
     -5.049  0.0000E+00  0.0000E+00
     -4.900  0.0000E+00  0.0000E+00
     -4.750  0.0000E+00  0.0000E+00
     -4.601  0.0000E+00  0.0000E+00
     -4.451  0.0000E+00  0.0000E+00
     -4.302  0.0000E+00  0.0000E+00
     -4.152  0.2251E-15  0.3367E-16
     -4.002  0.3573E-06  0.5344E-07
     -3.853  0.9390E-04  0.1409E-04
     -3.703  0.4203E-04  0.2038E-04
     -3.554  0.1159E-02  0.1936E-03
     -3.404  0.9728E-04  0.2082E-03
     -3.255  0.5167E-03  0.2854E-03
     -3.105  0.9745E-03  0.4311E-03
     -2.956  0.1438E-02  0.6461E-03
     -2.806  0.8722E-03  0.7766E-03
     -2.657  0.3399E-03  0.8274E-03
     -2.507  0.2224E-02  0.1160E-02
     -2.358  0.2027E-03  0.1190E-02
     -2.208  0.7738E-03  0.1306E-02
     -2.058  0.6969E-03  0.1410E-02
     -1.909  0.4131E-02  0.2028E-02
     -1.759  0.2587E-03  0.2067E-02
     -1.610  0.3487E-03  0.2119E-02
     -1.460  0.2733E-02  0.2527E-02
     -1.311  0.8941E-03  0.2661E-02
     -1.161  0.2266E-02  0.3000E-02
     -1.012  0.2347E-03  0.3035E-02
     -0.862  0.2297E-02  0.3379E-02
     -0.713  0.5118E-03  0.3455E-02
     -0.563  0.1914E-02  0.3741E-02
     -0.414  0.3922E-02  0.4328E-02
     -0.264  0.3313E-02  0.4823E-02
     -0.114  0.5271E-07  0.4823E-02
      0.035  0.6012E-04  0.4832E-02
      0.185  0.4650E-02  0.5528E-02
      0.334  0.2322E-03  0.5563E-02
      0.484  0.1085E-02  0.5725E-02
      0.633  0.1792E-02  0.5993E-02
      0.783  0.3034E-02  0.6446E-02
      0.932  0.2232E-02  0.6780E-02
      1.082  0.8163E-03  0.6902E-02
      1.231  0.6831E-02  0.7924E-02
      1.381  0.5052E-03  0.7999E-02
      1.530  0.2267E-02  0.8338E-02
      1.680  0.1326E-02  0.8536E-02
      1.830  0.3507E-02  0.9061E-02
      1.979  0.1601E-02  0.9300E-02
      2.129  0.8243E-03  0.9423E-02
      2.278  0.4452E-02  0.1009E-01
      2.428  0.3867E-03  0.1015E-01
      2.577  0.7691E-03  0.1026E-01
      2.727  0.1997E-02  0.1056E-01
      2.876  0.6448E-02  0.1152E-01
      3.026  0.1526E-02  0.1175E-01
      3.175  0.9113E-03  0.1189E-01
      3.325  0.8865E-02  0.1322E-01
      3.474  0.9380E-03  0.1336E-01
      3.624  0.4608E-02  0.1404E-01
      3.774  0.6830E-03  0.1415E-01
      3.923  0.1763E-02  0.1441E-01
      4.073  0.3647E-06  0.1441E-01
      4.222  0.3423E-04  0.1442E-01
      4.372  0.8987E-02  0.1576E-01
      4.521  0.6797E-03  0.1586E-01
      4.671  0.5471E-03  0.1594E-01
      4.820  0.3251E-02  0.1643E-01
      4.970  0.6397E-02  0.1739E-01
      5.119  0.3686E-02  0.1794E-01
      5.269  0.1176E-02  0.1811E-01
      5.418  0.4513E-02  0.1879E-01
      5.568  0.7496E-03  0.1890E-01
      5.718  0.3136E-02  0.1937E-01
      5.867  0.5854E-02  0.2024E-01
      6.017  0.6208E-02  0.2117E-01
      6.166  0.2000E-02  0.2147E-01
      6.316  0.5104E-03  0.2155E-01
      6.465  0.4655E-02  0.2224E-01
      6.615  0.7465E-03  0.2236E-01
      6.764  0.1744E-02  0.2262E-01
      6.914  0.3771E-02  0.2318E-01
      7.063  0.1077E-02  0.2334E-01
      7.213  0.4610E-02  0.2403E-01
      7.362  0.2742E-02  0.2444E-01
      7.512  0.9284E-02  0.2583E-01
      7.662  0.9933E-03  0.2598E-01
      7.811  0.1687E-02  0.2623E-01
      7.961  0.9972E-02  0.2772E-01
      8.110  0.2029E-02  0.2802E-01
      8.260  0.5372E-05  0.2802E-01
      8.409  0.3630E-02  0.2857E-01
      8.559  0.6009E-02  0.2947E-01
      8.708  0.1770E-02  0.2973E-01
      8.858  0.1315E-02  0.2993E-01
      9.007  0.9725E-02  0.3138E-01
      9.157  0.1496E-02  0.3161E-01
      9.306  0.3319E-02  0.3210E-01
      9.456  0.2383E-02  0.3246E-01
      9.606  0.3315E-02  0.3295E-01
      9.755  0.4765E-02  0.3367E-01
      9.905  0.2619E-02  0.3406E-01
     10.054  0.5911E-02  0.3494E-01
     10.204  0.1627E-02  0.3518E-01
     10.353  0.4843E-02  0.3591E-01
     10.503  0.8759E-02  0.3722E-01
     10.652  0.1414E-02  0.3743E-01
     10.802  0.1248E-03  0.3745E-01
     10.951  0.4946E-02  0.3819E-01
     11.101  0.7947E-02  0.3938E-01
     11.250  0.4446E-02  0.4004E-01
     11.400  0.6547E-02  0.4102E-01
     11.550  0.5873E-02  0.4190E-01
     11.699  0.2673E-02  0.4230E-01
     11.849  0.1084E-02  0.4246E-01
     11.998  0.8915E-02  0.4379E-01
     12.148  0.8529E-03  0.4392E-01
     12.297  0.3793E-02  0.4449E-01
     12.447  0.6895E-02  0.4552E-01
     12.596  0.1374E-02  0.4573E-01
     12.746  0.1640E-02  0.4597E-01
     12.895  0.2684E-02  0.4637E-01
     13.045  0.3066E-02  0.4683E-01
     13.194  0.2433E-02  0.4719E-01
     13.344  0.5817E-02  0.4806E-01
     13.493  0.7728E-02  0.4922E-01
     13.643  0.3251E-02  0.4971E-01
     13.793  0.5721E-02  0.5056E-01
     13.942  0.2390E-02  0.5092E-01
     14.092  0.9795E-02  0.5238E-01
     14.241  0.2022E-02  0.5269E-01
     14.391  0.2862E-02  0.5311E-01
     14.540  0.2865E-02  0.5354E-01
     14.690  0.2407E-02  0.5390E-01
     14.839  0.4009E-02  0.5450E-01
     14.989  0.5075E-02  0.5526E-01
     15.138  0.4385E-02  0.5592E-01
     15.288  0.9087E-02  0.5728E-01
     15.437  0.2154E-02  0.5760E-01
     15.587  0.7962E-02  0.5879E-01
     15.737  0.5547E-02  0.5962E-01
     15.886  0.1760E-02  0.5988E-01
     16.036  0.2323E-02  0.6023E-01
     16.185  0.5760E-02  0.6109E-01
     16.335  0.3999E-02  0.6169E-01
     16.484  0.3072E-02  0.6215E-01
     16.634  0.5849E-02  0.6302E-01
     16.783  0.1628E-02  0.6327E-01
     16.933  0.4889E-02  0.6400E-01
     17.082  0.6481E-02  0.6497E-01
     17.232  0.3630E-02  0.6551E-01
     17.381  0.1008E-01  0.6702E-01
     17.531  0.5323E-02  0.6781E-01
     17.681  0.2563E-02  0.6819E-01
     17.830  0.7794E-02  0.6936E-01
     17.980  0.3334E-02  0.6986E-01
     18.129  0.5420E-02  0.7067E-01
     18.279  0.4385E-02  0.7133E-01
     18.428  0.3144E-02  0.7180E-01
     18.578  0.3918E-02  0.7238E-01
     18.727  0.7495E-02  0.7350E-01
     18.877  0.7898E-02  0.7468E-01
     19.026  0.8032E-02  0.7588E-01
     19.176  0.5272E-02  0.7667E-01
     19.325  0.5310E-02  0.7747E-01
     19.475  0.2672E-02  0.7787E-01
     19.625  0.1154E-02  0.7804E-01
     19.774  0.2312E-02  0.7838E-01
     19.924  0.1070E-01  0.7998E-01
     20.073  0.1088E-01  0.8161E-01
     20.223  0.8186E-02  0.8283E-01
     20.372  0.1644E-02  0.8308E-01
     20.522  0.1778E-02  0.8335E-01
     20.671  0.2991E-02  0.8379E-01
     20.821  0.1822E-03  0.8382E-01
     20.970  0.1088E-02  0.8398E-01
     21.120  0.4456E-02  0.8465E-01
     21.269  0.2298E-02  0.8499E-01
     21.419  0.5895E-02  0.8588E-01
     21.569  0.4610E-02  0.8656E-01
     21.718  0.8844E-02  0.8789E-01
     21.868  0.1106E-01  0.8954E-01
     22.017  0.1614E-01  0.9196E-01
     22.167  0.9466E-03  0.9210E-01
     22.316  0.2800E-02  0.9252E-01
     22.466  0.5133E-02  0.9328E-01
     22.615  0.2410E-02  0.9364E-01
     22.765  0.4145E-02  0.9426E-01
     22.914  0.3395E-02  0.9477E-01
     23.064  0.3702E-02  0.9532E-01
     23.213  0.5494E-02  0.9615E-01
     23.363  0.7238E-02  0.9723E-01
     23.513  0.1029E-01  0.9877E-01
     23.662  0.4873E-02  0.9950E-01
     23.812  0.4695E-02  0.1002E+00
     23.961  0.6371E-02  0.1012E+00
     24.111  0.7620E-02  0.1023E+00
     24.260  0.8146E-02  0.1035E+00
     24.410  0.6039E-02  0.1044E+00
     24.559  0.3198E-02  0.1049E+00
     24.709  0.9567E-02  0.1063E+00
     24.858  0.4729E-02  0.1070E+00
     25.008  0.2376E-02  0.1074E+00
     25.157  0.5754E-02  0.1082E+00
     25.307  0.7532E-02  0.1094E+00
     25.457  0.7416E-02  0.1105E+00
     25.606  0.7496E-02  0.1116E+00
     25.756  0.5432E-02  0.1124E+00
     25.905  0.8288E-02  0.1137E+00
     26.055  0.8012E-02  0.1148E+00
     26.204  0.2735E-02  0.1153E+00
     26.354  0.3305E-03  0.1153E+00
     26.503  0.6588E-02  0.1163E+00
     26.653  0.5206E-02  0.1171E+00
     26.802  0.2745E-02  0.1175E+00
     26.952  0.9712E-02  0.1189E+00
     27.101  0.1133E-02  0.1191E+00
     27.251  0.6267E-02  0.1200E+00
     27.401  0.1599E-01  0.1224E+00
     27.550  0.1347E-02  0.1226E+00
     27.700  0.4498E-02  0.1233E+00
     27.849  0.5668E-03  0.1234E+00
     27.999  0.2461E-02  0.1238E+00
     28.148  0.5741E-02  0.1246E+00
     28.298  0.1252E-01  0.1265E+00
     28.447  0.7726E-02  0.1276E+00
     28.597  0.1435E-02  0.1279E+00
     28.746  0.6766E-02  0.1289E+00
     28.896  0.9222E-02  0.1302E+00
     29.045  0.3824E-02  0.1308E+00
     29.195  0.5132E-02  0.1316E+00
     29.345  0.1076E-01  0.1332E+00
     29.494  0.7295E-02  0.1343E+00
     29.644  0.7547E-02  0.1354E+00
     29.793  0.5105E-02  0.1362E+00
     29.943  0.6423E-02  0.1371E+00
     30.092  0.5949E-02  0.1380E+00
     30.242  0.5848E-02  0.1389E+00
     30.391  0.3007E-02  0.1394E+00
     30.541  0.2487E-04  0.1394E+00
     30.690  0.4086E-02  0.1400E+00
     30.840  0.4772E-02  0.1407E+00
     30.989  0.4973E-02  0.1414E+00
     31.139  0.7325E-02  0.1425E+00
     31.288  0.2923E-02  0.1430E+00
     31.438  0.5706E-02  0.1438E+00
     31.588  0.1707E-01  0.1464E+00
     31.737  0.1201E-01  0.1482E+00
     31.887  0.4034E-02  0.1488E+00
     32.036  0.4498E-02  0.1494E+00
     32.186  0.2325E-02  0.1498E+00
     32.335  0.1102E-01  0.1514E+00
     32.485  0.6048E-02  0.1523E+00
     32.634  0.5588E-02  0.1532E+00
     32.784  0.2386E-02  0.1535E+00
     32.933  0.3044E-02  0.1540E+00
     33.083  0.6098E-02  0.1549E+00
     33.232  0.8352E-02  0.1561E+00
     33.382  0.3996E-02  0.1567E+00
     33.532  0.2292E-02  0.1571E+00
     33.681  0.2184E-02  0.1574E+00
     33.831  0.1760E-02  0.1577E+00
     33.980  0.3877E-02  0.1583E+00
     34.130  0.8179E-03  0.1584E+00
     34.279  0.3877E-08  0.1584E+00
     34.429  0.3100E-04  0.1584E+00
     34.578  0.4795E-02  0.1591E+00
     34.728  0.2404E-02  0.1595E+00
     34.877  0.8821E-04  0.1595E+00
     35.027  0.7195E-03  0.1596E+00
     35.176  0.1208E-05  0.1596E+00
     35.326  0.9880E-11  0.1596E+00
     35.476  0.7158E-04  0.1596E+00
     35.625  0.7307E-03  0.1597E+00
     35.775  0.1584E-05  0.1597E+00
     35.924  0.0000E+00  0.1597E+00
     36.074  0.0000E+00  0.1597E+00
     36.223  0.2037E-08  0.1597E+00
     36.373  0.2369E-03  0.1597E+00
     36.522  0.3660E-03  0.1598E+00
     36.672  0.3010E-03  0.1598E+00
     36.821  0.3517E-03  0.1599E+00
     36.971  0.7512E-03  0.1600E+00
     37.120  0.2859E-05  0.1600E+00
     37.270  0.1801E-14  0.1600E+00
     37.420  0.0000E+00  0.1600E+00
     37.569  0.0000E+00  0.1600E+00
     37.719  0.0000E+00  0.1600E+00
     37.868  0.0000E+00  0.1600E+00
     38.018  0.0000E+00  0.1600E+00
     38.167  0.0000E+00  0.1600E+00
     38.317  0.0000E+00  0.1600E+00
     38.466  0.0000E+00  0.1600E+00
     38.616  0.0000E+00  0.1600E+00
     38.765  0.0000E+00  0.1600E+00
     38.915  0.0000E+00  0.1600E+00
