    1    1  100    1
  0.1324847E+02  0.2581840E-09  0.2581840E-09  0.2581840E-09  0.5000000E-15
  1.000000000000000E-004
  CAR 
 unknown system                          
      4     56      8
 
  0.0000000E+00  0.0000000E+00  0.0000000E+00  0.7513148E-03
    1       -3.907272   1.000000
    2       23.984990   0.000000
    3       23.984991   0.000000
    4       23.984991   0.000000
    5       24.255918   0.000000
    6       24.255919   0.000000
    7       24.255919   0.000000
    8       28.163036   0.000000
 
  0.9090909E-01  0.0000000E+00  0.0000000E+00  0.9015778E-02
    1       -3.636699   1.000000
    2       20.864782   0.000000
    3       21.865755   0.000000
    4       23.414615   0.000000
    5       23.515724   0.000000
    6       25.594762   0.000000
    7       26.828959   0.000000
    8       26.943955   0.000000
 
  0.1818182E+00  0.0000000E+00  0.0000000E+00  0.9015778E-02
    1       -2.827091   1.000000
    2       16.763826   0.000000
    3       20.069661   0.000000
    4       21.868242   0.000000
    5       22.437102   0.000000
    6       24.428585   0.000000
    7       27.940257   0.000000
    8       28.283349   0.000000
 
  0.2727273E+00  0.0000000E+00  0.0000000E+00  0.9015778E-02
    1       -1.484802   1.000000
    2       12.690962   0.000000
    3       18.728438   0.000000
    4       20.479155   0.000000
    5       21.334661   0.000000
    6       23.198958   0.000000
    7       29.211712   0.000000
    8       29.523712   0.000000
 
  0.3636364E+00  0.0000000E+00  0.0000000E+00  0.9015778E-02
    1        0.379732   1.000000
    2        8.942271   1.000000
    3       17.837102   0.000000
    4       19.495957   0.000000
    5       20.516196   0.000000
    6       22.322872   0.000000
    7       30.613140   0.000000
    8       31.364783   0.000000
 
  0.4545455E+00  0.0000000E+00  0.0000000E+00  0.9015778E-02
    1        2.752430   1.000000
    2        5.614914   1.000000
    3       17.392608   0.000000
    4       18.994924   0.000000
    5       20.090156   0.000000
    6       21.866985   0.000000
    7       32.195578   0.000000
    8       33.121950   0.000000
 
  0.9090909E-01  0.9090909E-01  0.0000000E+00  0.1803156E-01
    1       -3.096602   1.000000
    2       18.810398   0.000000
    3       19.119679   0.000000
    4       21.389249   0.000000
    5       24.234671   0.000000
    6       25.510446   0.000000
    7       26.801771   0.000000
    8       28.026412   0.000000
 
  0.1818182E+00  0.9090909E-01 -0.1387779E-16  0.3606311E-01
    1       -2.020668   1.000000
    2       14.869472   0.000000
    3       17.354959   0.000000
    4       19.923772   0.000000
    5       23.462392   0.000000
    6       25.032776   0.000000
    7       27.355532   0.000000
    8       29.947225   0.000000
 
  0.2727273E+00  0.9090909E-01 -0.1387779E-16  0.3606311E-01
    1       -0.417241   1.000000
    2       10.953868   1.000000
    3       16.175578   0.000000
    4       18.802076   0.000000
    5       22.447415   0.000000
    6       24.568737   0.000000
    7       28.289641   0.000000
    8       31.934147   0.000000
 
  0.3636364E+00  0.9090909E-01 -0.2775558E-16  0.3606311E-01
    1        1.701377   1.000000
    2        7.414351   1.000000
    3       15.461555   0.000000
    4       18.109738   0.000000
    5       21.777342   0.000000
    6       24.114783   0.000000
    7       29.912679   0.000000
    8       33.115111   0.000000
 
  0.4545455E+00  0.9090909E-01 -0.2775558E-16  0.1803156E-01
    1        4.314137   1.000000
    2        4.323885   1.000000
    3       15.222642   0.000000
    4       17.876853   0.000000
    5       21.547960   0.000000
    6       23.940743   0.000000
    7       31.605321   0.000000
    8       32.218343   0.000000
 
  0.1818182E+00  0.1818182E+00  0.1387779E-16  0.1803156E-01
    1       -0.683583   1.000000
    2       13.401116   0.000000
    3       13.421707   0.000000
    4       18.641242   0.000000
    5       24.253042   0.000000
    6       24.843805   0.000000
    7       29.260602   0.000000
    8       30.223096   0.000000
 
  0.2727273E+00  0.1818182E+00  0.1387779E-16  0.3606311E-01
    1        1.173882   1.000000
    2        9.697690   1.000000
    3       12.426527   0.000000
    4       17.743843   0.000000
    5       23.739820   0.000000
    6       25.866127   0.000000
    7       29.342824   0.000000
    8       32.233471   0.000000
 
  0.3636364E+00  0.1818182E+00  0.4163336E-16  0.3606311E-01
    1        3.537464   1.000000
    2        6.387907   1.000000
    3       11.930949   0.000000
    4       17.284106   0.000000
    5       23.321127   0.000000
    6       26.879463   0.000000
    7       29.624445   0.000000
    8       31.728617   0.000000
 
  0.2727273E+00  0.2727273E+00  0.2775558E-16  0.1803156E-01
    1        3.276283   1.000000
    2        8.902428   1.000000
    3        8.976254   1.000000
    4       17.076005   0.000000
    5       25.275371   0.000000
    6       25.790799   0.000000
    7       30.010505   0.000000
    8       32.640217   0.000000
 
  0.3636364E+00  0.2727273E+00  0.2775558E-16  0.1803156E-01
    1        5.852831   1.000000
    2        5.892663   1.000000
    3        8.686315   1.000000
    4       16.848392   0.000000
    5       25.310158   0.000000
    6       27.346337   0.000000
    7       28.203450   0.000000
    8       33.516194   0.000000
 
  0.9090909E-01  0.9090909E-01  0.9090909E-01  0.6010518E-02
    1       -2.289141   1.000000
    2       16.963426   0.000000
    3       17.403374   0.000000
    4       17.403374   0.000000
    5       26.456139   0.000000
    6       26.456139   0.000000
    7       28.020400   0.000000
    8       28.020400   0.000000
 
  0.1818182E+00  0.9090909E-01  0.9090909E-01  0.1803156E-01
    1       -0.950299   1.000000
    2       13.188709   0.000000
    3       15.724265   0.000000
    4       15.981367   0.000000
    5       26.135085   0.000000
    6       26.610164   0.000000
    7       29.393969   0.000000
    8       29.535162   0.000000
 
  0.2727273E+00  0.9090909E-01  0.9090909E-01  0.1803156E-01
    1        0.909682   1.000000
    2        9.451839   1.000000
    3       14.783060   0.000000
    4       15.003146   0.000000
    5       25.612062   0.000000
    6       25.969098   0.000000
    7       31.010037   0.000000
    8       31.519591   0.000000
 
  0.3636364E+00  0.9090909E-01  0.9090909E-01  0.1803156E-01
    1        3.276756   1.000000
    2        6.132486   1.000000
    3       14.309809   0.000000
    4       14.508203   0.000000
    5       25.279682   0.000000
    6       25.598420   0.000000
    7       32.512777   0.000000
    8       33.361608   0.000000
 
 -0.9090909E-01  0.9090909E-01  0.9090909E-01  0.4507889E-02
    1       -3.366447   1.000000
    2       20.245434   0.000000
    3       20.245434   0.000000
    4       22.085712   0.000000
    5       24.197853   0.000000
    6       24.786590   0.000000
    7       26.661525   0.000000
    8       26.661526   0.000000
 
  0.1818182E+00  0.1818182E+00  0.9090909E-01  0.1803156E-01
    1        0.645086   1.000000
    2       11.953739   0.000000
    3       11.967252   0.000000
    4       14.674074   0.000000
    5       27.351980   0.000000
    6       28.087750   0.000000
    7       30.254711   0.000000
    8       31.018574   0.000000
 
  0.2727273E+00  0.1818182E+00  0.9090909E-01  0.3606311E-01
    1        2.753506   1.000000
    2        8.439618   1.000000
    3       11.215795   0.789108
    4       13.950939   0.000000
    5       27.354718   0.000000
    6       28.739235   0.000000
    7       31.329662   0.000000
    8       32.956793   0.000000
 
  0.3636364E+00  0.1818182E+00  0.9090909E-01  0.1803156E-01
    1        5.346243   1.000000
    2        5.371441   1.000000
    3       10.966067   1.000000
    4       13.707752   0.000000
    5       27.224785   0.000000
    6       28.963609   0.000000
    7       32.226899   0.000000
    8       33.264030   0.000000
 
 -0.1818182E+00  0.1818182E+00  0.9090909E-01  0.1803156E-01
    1       -2.557897   1.000000
    2       16.895111   0.000000
    3       18.433986   0.000000
    4       21.069082   0.000000
    5       23.008046   0.000000
    6       23.912374   0.000000
    7       26.853237   0.000000
    8       29.164246   0.000000
 
  0.2727273E+00  0.2727273E+00  0.9090909E-01  0.1803156E-01
    1        5.099985   1.000000
    2        7.896721   1.000000
    3        7.966429   1.000000
    4       13.469740   0.000000
    5       28.820871   0.000000
    6       29.754270   0.000000
    7       31.516938   0.000000
    8       33.965077   0.000000
 
 -0.2727273E+00  0.2727273E+00  0.9090909E-01  0.1803156E-01
    1       -1.217386   1.000000
    2       12.914364   0.000000
    3       17.040124   0.000000
    4       19.864678   0.000000
    5       22.637711   0.000000
    6       23.315026   0.000000
    7       26.551419   0.000000
    8       32.433174   0.000000
 
 -0.1818182E+00  0.2727273E+00  0.9090909E-01  0.1803156E-01
    1       -1.484743   1.000000
    2       15.199995   0.000000
    3       15.254863   0.000000
    4       20.600142   0.000000
    5       21.723464   0.000000
    6       23.580831   0.000000
    7       28.658861   0.000000
    8       29.449096   0.000000
 
 -0.3636364E+00  0.3636364E+00  0.9090909E-01  0.1803156E-01
    1        0.644662   1.000000
    2        9.189152   1.000000
    3       16.102529   0.000000
    4       18.946516   0.000000
    5       21.713983   0.000000
    6       23.520010   0.000000
    7       27.132901   0.000000
    8       32.801689   0.000000
 
 -0.2727273E+00  0.3636364E+00  0.9090909E-01  0.3606311E-01
    1        0.114374   1.000000
    2       11.424784   0.000000
    3       14.016004   0.000000
    4       19.840971   0.000000
    5       21.926605   0.000000
    6       23.155931   0.000000
    7       28.262963   0.000000
    8       31.592325   0.000000
 
 -0.4545455E+00  0.4545455E+00  0.9090909E-01  0.1803156E-01
    1        3.013923   1.000000
    2        5.871099   1.000000
    3       15.632172   0.000000
    4       18.472405   0.000000
    5       21.241195   0.000000
    6       23.440582   0.000000
    7       28.731372   0.000000
    8       31.049127   0.000000
 
 -0.3636364E+00  0.4545455E+00  0.9090909E-01  0.3606311E-01
    1        2.227068   1.000000
    2        7.917081   1.000000
    3       13.284081   0.000000
    4       19.183694   0.000000
    5       21.591278   0.000000
    6       24.292284   0.000000
    7       27.645812   0.000000
    8       30.681896   0.000000
 
 -0.2727273E+00  0.4545455E+00  0.9090909E-01  0.1803156E-01
    1        1.964155   1.000000
    2       10.390742   1.000000
    3       10.456303   1.000000
    4       20.193946   0.000000
    5       21.971150   0.000000
    6       22.682903   0.000000
    7       28.879416   0.000000
    8       31.598524   0.000000
 
 -0.4545455E+00 -0.4545455E+00  0.9090909E-01  0.1803156E-01
    1        4.830952   1.000000
    2        4.841212   1.000000
    3       13.038950   0.000000
    4       18.955869   0.000000
    5       21.397490   0.000000
    6       25.227761   0.000000
    7       27.310684   0.000000
    8       29.658468   0.000000
 
 -0.3636364E+00 -0.4545455E+00  0.9090909E-01  0.3606311E-01
    1        4.316595   1.000000
    2        7.149798   1.000000
    3        9.921518   1.000000
    4       19.962274   0.000000
    5       21.940302   0.000000
    6       24.071585   0.000000
    7       26.445195   0.000000
    8       32.346739   0.000000
 
 -0.3636364E+00 -0.3636364E+00  0.9090909E-01  0.6010518E-02
    1        6.862138   1.000000
    2        6.862138   1.000000
    3        6.956698   1.000000
    4       20.007209   0.000000
    5       23.903357   0.000000
    6       23.903357   0.000000
    7       23.911859   0.000000
    8       35.523164   0.000000
 
  0.1818182E+00  0.1818182E+00  0.1818182E+00  0.6010518E-02
    1        2.491440   1.000000
    2       10.956086   1.000000
    3       10.956086   1.000000
    4       11.004389   1.000000
    5       30.177995   0.000000
    6       30.177995   0.000000
    7       31.795294   0.000000
    8       31.795294   0.000000
 
  0.2727273E+00  0.1818182E+00  0.1818182E+00  0.1803156E-01
    1        4.841527   1.000000
    2        7.677625   1.000000
    3       10.453731   1.000000
    4       10.494534   1.000000
    5       30.786765   0.000000
    6       30.976763   0.000000
    7       33.184651   0.000000
    8       33.686652   0.000000
 
 -0.1818182E+00  0.1818182E+00  0.1818182E+00  0.4507889E-02
    1       -1.752483   1.000000
    2       16.585995   0.000000
    3       16.585995   0.000000
    4       19.096843   0.000000
    5       19.939098   0.000000
    6       26.362414   0.000000
    7       28.453689   0.000000
    8       28.453690   0.000000
 
  0.2727273E+00  0.2727273E+00  0.1818182E+00  0.6010518E-02
    1        7.391025   1.000000
    2        7.391025   1.000000
    3        7.486657   1.000000
    4       10.225838   1.000000
    5       32.075310   0.000000
    6       32.980496   0.000000
    7       32.980497   0.000000
    8       34.922029   0.000000
 
 -0.2727273E+00  0.2727273E+00  0.1818182E+00  0.1803156E-01
    1       -0.417283   1.000000
    2       13.524774   0.000000
    3       15.166898   0.000000
    4       18.012925   0.000000
    5       19.669118   0.000000
    6       25.881363   0.000000
    7       28.351608   0.000000
    8       31.201303   0.000000
 
 -0.3636364E+00  0.3636364E+00  0.1818182E+00  0.1803156E-01
    1        1.437114   1.000000
    2        9.918292   1.000000
    3       14.214254   0.000000
    4       17.050950   0.000000
    5       21.068435   0.000000
    6       25.043780   0.000000
    7       27.166008   0.000000
    8       30.221213   0.000000
 
 -0.2727273E+00  0.3636364E+00  0.1818182E+00  0.1803156E-01
    1        1.173120   1.000000
    2       12.279286   0.000000
    3       12.311946   0.000000
    4       18.229105   0.000000
    5       18.629200   0.000000
    6       25.705904   0.000000
    7       28.203010   0.000000
    8       30.956295   0.000000
 
 -0.4545455E+00  0.4545455E+00  0.1818182E+00  0.1803156E-01
    1        3.795326   1.000000
    2        6.635280   1.000000
    3       13.736397   0.000000
    4       16.552317   0.000000
    5       22.837436   0.000000
    6       24.591931   0.000000
    7       25.486625   0.000000
    8       29.269112   0.000000
 
 -0.3636364E+00  0.4545455E+00  0.1818182E+00  0.3606311E-01
    1        3.273160   1.000000
    2        8.906349   1.000000
    3       11.554291   0.000000
    4       17.681274   0.000000
    5       20.165039   0.000000
    6       24.655556   0.000000
    7       26.005358   0.000000
    8       31.524241   0.000000
 
 -0.4545455E+00 -0.4545455E+00  0.1818182E+00  0.1803156E-01
    1        5.841691   1.000000
    2        5.883897   1.000000
    3       11.306738   0.038453
    4       17.440892   0.000000
    5       21.935035   0.000000
    6       22.920796   0.000000
    7       25.393741   0.000000
    8       31.486582   0.000000
 
 -0.3636364E+00 -0.4545455E+00  0.1818182E+00  0.1803156E-01
    1        5.604281   1.000000
    2        8.360345   1.000000
    3        8.438791   1.000000
    4       19.396433   0.000000
    5       19.952285   0.000000
    6       22.258013   0.000000
    7       25.353729   0.000000
    8       34.520409   0.000000
 
 -0.2727273E+00  0.2727273E+00  0.2727273E+00  0.4507889E-02
    1        0.908827   1.000000
    2       13.733711   0.000000
    3       13.733711   0.000000
    4       16.450067   0.000000
    5       16.683327   0.000000
    6       27.856523   0.000000
    7       28.966610   0.000000
    8       30.740084   0.000000
 
 -0.3636364E+00  0.3636364E+00  0.2727273E+00  0.1803156E-01
    1        2.749639   1.000000
    2       11.055986   1.000000
    3       12.774050   0.000000
    4       15.546475   0.000000
    5       17.219878   0.000000
    6       24.761164   0.000000
    7       28.827649   0.000000
    8       31.565840   0.000000
 
 -0.4545455E+00  0.4545455E+00  0.2727273E+00  0.1803156E-01
    1        5.086986   1.000000
    2        7.889386   1.000000
    3       12.293559   0.000000
    4       15.034152   0.000000
    5       19.234792   0.000000
    6       21.843724   0.000000
    7       28.425162   0.000000
    8       31.679986   0.000000
 
 -0.3636364E+00  0.4545455E+00  0.2727273E+00  0.1803156E-01
    1        4.827912   1.000000
    2       10.277766   1.000000
    3       10.339596   1.000000
    4       16.412489   0.000000
    5       16.535897   0.000000
    6       21.602065   0.000000
    7       29.234258   0.000000
    8       33.887700   0.000000
 
 -0.4545455E+00 -0.4545455E+00  0.2727273E+00  0.1803156E-01
    1        7.343378   1.000000
    2        7.413068   1.000000
    3       10.060159   1.000000
    4       16.221649   0.000000
    5       18.633391   0.000000
    6       18.927576   0.000000
    7       29.119630   0.000000
    8       34.513835   0.000000
 
 -0.3636364E+00  0.3636364E+00  0.3636364E+00  0.4507889E-02
    1        4.568478   1.000000
    2       11.811013   0.000000
    3       11.811013   0.000000
    4       14.499143   0.000000
    5       14.534757   0.000000
    6       21.373477   0.000000
    7       32.491109   0.000000
    8       33.677178   0.000000
 
 -0.4545455E+00  0.4545455E+00  0.3636364E+00  0.1803156E-01
    1        6.866147   1.000000
    2        9.558031   1.000000
    3       11.328842   0.008330
    4       13.996110   0.000000
    5       15.723963   0.000000
    6       18.295443   0.000000
    7       32.592037   0.000000
    8       34.626669   0.000000
 
 -0.4545455E+00 -0.4545455E+00  0.3636364E+00  0.6010518E-02
    1        9.273787   1.000000
    2        9.273787   1.000000
    3        9.374066   1.000000
    4       15.452382   0.000000
    5       15.483968   0.000000
    6       15.483968   0.000000
    7       33.188660   0.000000
    8       36.875770   0.000000
 
 -0.4545455E+00  0.4545455E+00  0.4545455E+00  0.4507889E-02
    1        9.055131   1.000000
    2       10.846429   1.000000
    3       10.846429   1.000000
    4       13.404833   0.000000
    5       13.533906   0.000000
    6       15.220861   0.000000
    7       36.382382   0.000000
    8       36.671919   0.000000
