<?xml version="1.0" encoding="ISO-8859-1"?>
<modeling>
 <generator>
  <i name="program" type="string">vasp </i>
  <i name="version" type="string">6.2.0  </i>
  <i name="subversion" type="string">18Jan21 (build Aug 12 2022 13:00:08) complex                          parallel </i>
  <i name="platform" type="string">LinuxIFC </i>
  <i name="date" type="string">2024 11 05 </i>
  <i name="time" type="string">05:28:41 </i>
 </generator>
 <incar>
  <i type="int" name="ISTART">     0</i>
  <i type="string" name="PREC">Accurate      (Accurate strictly avoids</i>
  <i type="logical" name="ADDGRID"> T  </i>
  <i type="int" name="ISPIN">     1</i>
  <i type="int" name="NELM">    90</i>
  <i type="int" name="NELMIN">     6</i>
  <i type="int" name="IBRION">     2</i>
  <i name="EDIFF">      0.00000100</i>
  <i name="EDIFFG">     -0.00200000</i>
  <i type="int" name="NSW">   100</i>
  <i type="int" name="ISIF">     2</i>
  <i type="int" name="ISYM">     2</i>
  <i name="ENCUT">    350.00000000</i>
  <i type="logical" name="LREAL"> F  </i>
  <i type="int" name="ISMEAR">     0</i>
  <i name="SIGMA">      0.05000000</i>
  <i type="logical" name="LWAVE"> F  </i>
  <i type="logical" name="LCHARG"> F  </i>
  <i type="logical" name="LASPH"> T  </i>
 </incar>
 <primitive_cell>
  <structure name="primitive_cell" >
   <crystal>
    <varray name="basis" >
     <v>       1.49062575       1.49062575       1.49062575 </v>
     <v>       1.49062575      -1.49062575      -1.49062575 </v>
     <v>      -1.49062575       1.49062575      -1.49062575 </v>
    </varray>
    <i name="volume">     13.24847361 </i>
    <varray name="rec_basis" >
     <v>       0.33542960       0.33542960       0.00000000 </v>
     <v>       0.33542960       0.00000000      -0.33542960 </v>
     <v>       0.00000000       0.33542960      -0.33542960 </v>
    </varray>
   </crystal>
   <varray name="positions" >
    <v>       0.00000000       0.00000000       0.00000000 </v>
   </varray>
  </structure>
  <varray name="primitive_index" >
   <v type="int" >        1 </v>
  </varray>
 </primitive_cell>
 <kpoints>
  <generation param="Monkhorst-Pack">
   <v type="int" name="divisions">      11       11       11 </v>
   <v name="usershift">      0.00000000       0.00000000       0.00000000 </v>
   <v name="genvec1">      0.09090909       0.00000000       0.00000000 </v>
   <v name="genvec2">      0.00000000       0.09090909       0.00000000 </v>
   <v name="genvec3">      0.00000000       0.00000000       0.09090909 </v>
   <v name="shift">      0.00000000       0.00000000       0.00000000 </v>
  </generation>
  <varray name="kpointlist" >
   <v>       0.00000000       0.00000000       0.00000000 </v>
   <v>       0.09090909       0.00000000       0.00000000 </v>
   <v>       0.18181818       0.00000000       0.00000000 </v>
   <v>       0.27272727       0.00000000       0.00000000 </v>
   <v>       0.36363636       0.00000000       0.00000000 </v>
   <v>       0.45454545       0.00000000       0.00000000 </v>
   <v>       0.09090909       0.09090909       0.00000000 </v>
   <v>       0.18181818       0.09090909      -0.00000000 </v>
   <v>       0.27272727       0.09090909      -0.00000000 </v>
   <v>       0.36363636       0.09090909      -0.00000000 </v>
   <v>       0.45454545       0.09090909      -0.00000000 </v>
   <v>       0.18181818       0.18181818       0.00000000 </v>
   <v>       0.27272727       0.18181818       0.00000000 </v>
   <v>       0.36363636       0.18181818       0.00000000 </v>
   <v>       0.27272727       0.27272727       0.00000000 </v>
   <v>       0.36363636       0.27272727       0.00000000 </v>
   <v>       0.09090909       0.09090909       0.09090909 </v>
   <v>       0.18181818       0.09090909       0.09090909 </v>
   <v>       0.27272727       0.09090909       0.09090909 </v>
   <v>       0.36363636       0.09090909       0.09090909 </v>
   <v>      -0.09090909       0.09090909       0.09090909 </v>
   <v>       0.18181818       0.18181818       0.09090909 </v>
   <v>       0.27272727       0.18181818       0.09090909 </v>
   <v>       0.36363636       0.18181818       0.09090909 </v>
   <v>      -0.18181818       0.18181818       0.09090909 </v>
   <v>       0.27272727       0.27272727       0.09090909 </v>
   <v>      -0.27272727       0.27272727       0.09090909 </v>
   <v>      -0.18181818       0.27272727       0.09090909 </v>
   <v>      -0.36363636       0.36363636       0.09090909 </v>
   <v>      -0.27272727       0.36363636       0.09090909 </v>
   <v>      -0.45454545       0.45454545       0.09090909 </v>
   <v>      -0.36363636       0.45454545       0.09090909 </v>
   <v>      -0.27272727       0.45454545       0.09090909 </v>
   <v>      -0.45454545      -0.45454545       0.09090909 </v>
   <v>      -0.36363636      -0.45454545       0.09090909 </v>
   <v>      -0.36363636      -0.36363636       0.09090909 </v>
   <v>       0.18181818       0.18181818       0.18181818 </v>
   <v>       0.27272727       0.18181818       0.18181818 </v>
   <v>      -0.18181818       0.18181818       0.18181818 </v>
   <v>       0.27272727       0.27272727       0.18181818 </v>
   <v>      -0.27272727       0.27272727       0.18181818 </v>
   <v>      -0.36363636       0.36363636       0.18181818 </v>
   <v>      -0.27272727       0.36363636       0.18181818 </v>
   <v>      -0.45454545       0.45454545       0.18181818 </v>
   <v>      -0.36363636       0.45454545       0.18181818 </v>
   <v>      -0.45454545      -0.45454545       0.18181818 </v>
   <v>      -0.36363636      -0.45454545       0.18181818 </v>
   <v>      -0.27272727       0.27272727       0.27272727 </v>
   <v>      -0.36363636       0.36363636       0.27272727 </v>
   <v>      -0.45454545       0.45454545       0.27272727 </v>
   <v>      -0.36363636       0.45454545       0.27272727 </v>
   <v>      -0.45454545      -0.45454545       0.27272727 </v>
   <v>      -0.36363636       0.36363636       0.36363636 </v>
   <v>      -0.45454545       0.45454545       0.36363636 </v>
   <v>      -0.45454545      -0.45454545       0.36363636 </v>
   <v>      -0.45454545       0.45454545       0.45454545 </v>
  </varray>
  <varray name="weights" >
   <v>       0.00075131 </v>
   <v>       0.00901578 </v>
   <v>       0.00901578 </v>
   <v>       0.00901578 </v>
   <v>       0.00901578 </v>
   <v>       0.00901578 </v>
   <v>       0.01803156 </v>
   <v>       0.03606311 </v>
   <v>       0.03606311 </v>
   <v>       0.03606311 </v>
   <v>       0.01803156 </v>
   <v>       0.01803156 </v>
   <v>       0.03606311 </v>
   <v>       0.03606311 </v>
   <v>       0.01803156 </v>
   <v>       0.01803156 </v>
   <v>       0.00601052 </v>
   <v>       0.01803156 </v>
   <v>       0.01803156 </v>
   <v>       0.01803156 </v>
   <v>       0.00450789 </v>
   <v>       0.01803156 </v>
   <v>       0.03606311 </v>
   <v>       0.01803156 </v>
   <v>       0.01803156 </v>
   <v>       0.01803156 </v>
   <v>       0.01803156 </v>
   <v>       0.01803156 </v>
   <v>       0.01803156 </v>
   <v>       0.03606311 </v>
   <v>       0.01803156 </v>
   <v>       0.03606311 </v>
   <v>       0.01803156 </v>
   <v>       0.01803156 </v>
   <v>       0.03606311 </v>
   <v>       0.00601052 </v>
   <v>       0.00601052 </v>
   <v>       0.01803156 </v>
   <v>       0.00450789 </v>
   <v>       0.00601052 </v>
   <v>       0.01803156 </v>
   <v>       0.01803156 </v>
   <v>       0.01803156 </v>
   <v>       0.01803156 </v>
   <v>       0.03606311 </v>
   <v>       0.01803156 </v>
   <v>       0.01803156 </v>
   <v>       0.00450789 </v>
   <v>       0.01803156 </v>
   <v>       0.01803156 </v>
   <v>       0.01803156 </v>
   <v>       0.01803156 </v>
   <v>       0.00450789 </v>
   <v>       0.01803156 </v>
   <v>       0.00601052 </v>
   <v>       0.00450789 </v>
  </varray>
 </kpoints>
 <parameters>
  <separator name="general" >
   <i type="string" name="SYSTEM">unknown system</i>
   <i type="logical" name="LCOMPAT"> F  </i>
  </separator>
  <separator name="electronic" >
   <i type="string" name="PREC">accura</i>
   <i name="ENMAX">    350.00000000</i>
   <i name="ENAUG">    322.06900000</i>
   <i name="EDIFF">      0.00000100</i>
   <i type="int" name="IALGO">    38</i>
   <i type="int" name="IWAVPR">    11</i>
   <i type="int" name="NBANDS">     8</i>
   <i type="int" name="NBANDSLOW">    -1</i>
   <i type="int" name="NBANDSHIGH">    -1</i>
   <i name="NELECT">      4.00000000</i>
   <i type="int" name="TURBO">     0</i>
   <i type="int" name="IRESTART">     0</i>
   <i type="int" name="NREBOOT">     0</i>
   <i type="int" name="NMIN">     0</i>
   <i name="EREF">      0.00000000</i>
   <separator name="electronic smearing" >
    <i type="int" name="ISMEAR">     0</i>
    <i name="SIGMA">      0.05000000</i>
    <i name="KSPACING">      0.50000000</i>
    <i type="logical" name="KGAMMA"> T  </i>
    <i type="logical" name="KBLOWUP"> T  </i>
   </separator>
   <separator name="electronic projectors" >
    <i type="logical" name="LREAL"> F  </i>
    <v name="ROPT">      0.00000000</v>
    <i type="int" name="LMAXPAW">  -100</i>
    <i type="int" name="LMAXMIX">     2</i>
    <i type="logical" name="NLSPLINE"> F  </i>
   </separator>
   <separator name="electronic startup" >
    <i type="int" name="ISTART">     0</i>
    <i type="int" name="ICHARG">     2</i>
    <i type="int" name="INIWAV">     1</i>
   </separator>
   <separator name="electronic spin" >
    <i type="int" name="ISPIN">     1</i>
    <i type="logical" name="LNONCOLLINEAR"> F  </i>
    <v name="MAGMOM">      1.00000000</v>
    <i name="NUPDOWN">     -1.00000000</i>
    <i type="logical" name="LSORBIT"> F  </i>
    <v name="SAXIS">      0.00000000      0.00000000      1.00000000</v>
    <i type="logical" name="LSPIRAL"> F  </i>
    <v name="QSPIRAL">      0.00000000      0.00000000      0.00000000</v>
    <i type="logical" name="LZEROZ"> F  </i>
   </separator>
   <separator name="electronic exchange-correlation" >
    <i type="logical" name="LASPH"> T  </i>
    <i type="logical" name="LMETAGGA"> F  </i>
   </separator>
   <separator name="electronic convergence" >
    <i type="int" name="NELM">    90</i>
    <i type="int" name="NELMDL">    -5</i>
    <i type="int" name="NELMIN">     6</i>
    <i name="ENINI">    350.00000000</i>
    <separator name="electronic convergence detail" >
     <i type="logical" name="LDIAG"> T  </i>
     <i type="logical" name="LSUBROT"> F  </i>
     <i name="WEIMIN">      0.00100000</i>
     <i name="EBREAK">      0.00000003</i>
     <i name="DEPER">      0.30000000</i>
     <i type="int" name="NRMM">     4</i>
     <i name="TIME">      0.40000000</i>
    </separator>
   </separator>
   <separator name="electronic mixer" >
    <i name="AMIX">      0.40000000</i>
    <i name="BMIX">      1.00000000</i>
    <i name="AMIN">      0.10000000</i>
    <i name="AMIX_MAG">      1.60000000</i>
    <i name="BMIX_MAG">      1.00000000</i>
    <separator name="electronic mixer details" >
     <i type="int" name="IMIX">     4</i>
     <i type="logical" name="MIXFIRST"> F  </i>
     <i type="int" name="MAXMIX">   -45</i>
     <i name="WC">    100.00000000</i>
     <i type="int" name="INIMIX">     1</i>
     <i type="int" name="MIXPRE">     1</i>
     <i type="int" name="MREMOVE">     5</i>
    </separator>
   </separator>
   <separator name="electronic dipolcorrection" >
    <i type="logical" name="LDIPOL"> F  </i>
    <i type="logical" name="LMONO"> F  </i>
    <i type="int" name="IDIPOL">     0</i>
    <i name="EPSILON">      1.00000000</i>
    <v name="DIPOL">   -100.00000000   -100.00000000   -100.00000000</v>
    <i name="EFIELD">      0.00000000</i>
   </separator>
  </separator>
  <separator name="grids" >
   <i type="int" name="NGX">    16</i>
   <i type="int" name="NGY">    16</i>
   <i type="int" name="NGZ">    16</i>
   <i type="int" name="NGXF">    32</i>
   <i type="int" name="NGYF">    32</i>
   <i type="int" name="NGZF">    32</i>
   <i type="logical" name="ADDGRID"> T  </i>
  </separator>
  <separator name="ionic" >
   <i type="int" name="NSW">   100</i>
   <i type="int" name="IBRION">     2</i>
   <i type="int" name="MDALGO">     0</i>
   <i type="int" name="ISIF">     2</i>
   <i name="PSTRESS">      0.00000000</i>
   <i name="EDIFFG">     -0.00200000</i>
   <i type="int" name="NFREE">     1</i>
   <i name="POTIM">      0.50000000</i>
   <i name="SMASS">     -3.00000000</i>
   <i name="SCALEE">      1.00000000</i>
  </separator>
  <separator name="ionic md" >
   <i name="TEBEG">      0.00010000</i>
   <i name="TEEND">      0.00010000</i>
   <i type="int" name="NBLOCK">     1</i>
   <i type="int" name="KBLOCK">   100</i>
   <i type="int" name="NPACO">   256</i>
   <i name="APACO">     16.00000000</i>
  </separator>
  <separator name="symmetry" >
   <i type="int" name="ISYM">     2</i>
   <i name="SYMPREC">      0.00001000</i>
  </separator>
  <separator name="dos" >
   <i type="int" name="LORBIT">     0</i>
   <v name="RWIGS">     -1.00000000</v>
   <i type="int" name="NEDOS">   301</i>
   <i name="EMIN">     10.00000000</i>
   <i name="EMAX">    -10.00000000</i>
   <i name="EFERMI">      0.00000000</i>
  </separator>
  <separator name="writing" >
   <i type="int" name="NWRITE">     2</i>
   <i type="logical" name="LWAVE"> F  </i>
   <i type="logical" name="LDOWNSAMPLE"> F  </i>
   <i type="logical" name="LCHARG"> F  </i>
   <i type="logical" name="LPARD"> F  </i>
   <i type="logical" name="LVTOT"> F  </i>
   <i type="logical" name="LVHAR"> F  </i>
   <i type="logical" name="LELF"> F  </i>
   <i type="logical" name="LOPTICS"> F  </i>
   <v name="STM">      0.00000000      0.00000000      0.00000000      0.00000000      0.00000000      0.00000000      0.00000000</v>
  </separator>
  <separator name="performance" >
   <i type="int" name="NPAR">     4</i>
   <i type="int" name="NSIM">     4</i>
   <i type="int" name="NBLK">    -1</i>
   <i type="logical" name="LPLANE"> T  </i>
   <i type="logical" name="LSCALAPACK"> T  </i>
   <i type="logical" name="LSCAAWARE"> F  </i>
   <i type="logical" name="LSCALU"> F  </i>
   <i type="logical" name="LASYNC"> F  </i>
   <i type="logical" name="LORBITALREAL"> F  </i>
  </separator>
  <separator name="miscellaneous" >
   <i type="int" name="IDIOT">     3</i>
   <i type="int" name="PHON_NSTRUCT">    -1</i>
   <i type="logical" name="LMUSIC"> F  </i>
   <v name="POMASS">     28.08500000</v>
   <v name="DARWINR">      0.00000000</v>
   <v name="DARWINV">      1.00000000</v>
   <i type="logical" name="LCORR"> T  </i>
  </separator>
  <i type="logical" name="GGA_COMPAT"> T  </i>
  <i type="logical" name="LBERRY"> F  </i>
  <i type="int" name="ICORELEVEL">     0</i>
  <i type="logical" name="LDAU"> F  </i>
  <i type="int" name="I_CONSTRAINED_M">     0</i>
  <separator name="electronic exchange-correlation" >
   <i type="string" name="GGA">--</i>
   <i type="int" name="VOSKOWN">     0</i>
   <i type="logical" name="LHFCALC"> F  </i>
   <i type="string" name="PRECFOCK"></i>
   <i type="logical" name="LSYMGRAD"> F  </i>
   <i type="logical" name="LHFONE"> F  </i>
   <i type="logical" name="LRHFCALC"> F  </i>
   <i type="logical" name="LTHOMAS"> F  </i>
   <i type="logical" name="LMODELHF"> F  </i>
   <i type="logical" name="LFOCKACE"> F  </i>
   <i name="ENCUT4O">     -1.00000000</i>
   <i type="int" name="EXXOEP">     0</i>
   <i type="int" name="FOURORBIT">     0</i>
   <i name="AEXX">      0.00000000</i>
   <i name="HFALPHA">      0.00000000</i>
   <i name="MCALPHA">      0.00000000</i>
   <i name="ALDAX">      1.00000000</i>
   <i name="AGGAX">      1.00000000</i>
   <i name="ALDAC">      1.00000000</i>
   <i name="AGGAC">      1.00000000</i>
   <i type="int" name="NKREDX">     1</i>
   <i type="int" name="NKREDY">     1</i>
   <i type="int" name="NKREDZ">     1</i>
   <i type="logical" name="SHIFTRED"> F  </i>
   <i type="logical" name="ODDONLY"> F  </i>
   <i type="logical" name="EVENONLY"> F  </i>
   <i type="int" name="LMAXFOCK">     0</i>
   <i type="int" name="NMAXFOCKAE">     0</i>
   <i type="logical" name="LFOCKAEDFT"> F  </i>
   <i name="HFSCREEN">      0.00000000</i>
   <i name="HFSCREENC">      0.00000000</i>
   <i type="int" name="NBANDSGWLOW">     0</i>
  </separator>
  <separator name="vdW DFT" >
   <i type="logical" name="LUSE_VDW"> F  </i>
   <i name="Zab_VDW">     -0.84910000</i>
   <i name="PARAM1">      0.12340000</i>
   <i name="PARAM2">      1.00000000</i>
   <i name="PARAM3">      0.00000000</i>
  </separator>
  <separator name="model GW" >
   <i type="int" name="MODEL_GW">     0</i>
   <i name="MODEL_EPS0">      7.94908417</i>
   <i name="MODEL_ALPHA">      1.00000000</i>
  </separator>
  <separator name="linear response parameters" >
   <i type="logical" name="LEPSILON"> F  </i>
   <i type="logical" name="LRPA"> F  </i>
   <i type="logical" name="LNABLA"> F  </i>
   <i type="logical" name="LVEL"> F  </i>
   <i type="int" name="KINTER">     0</i>
   <i name="CSHIFT">      0.10000000</i>
   <i name="OMEGAMAX">     -1.00000000</i>
   <i name="DEG_THRESHOLD">      0.00200000</i>
   <i name="RTIME">     -0.10000000</i>
   <i name="WPLASMAI">      0.00000000</i>
   <v name="DFIELD">      0.00000000      0.00000000      0.00000000</v>
   <v name="WPLASMA">      0.00000000      0.00000000      0.00000000      0.00000000      0.00000000      0.00000000      0.00000000      0.00000000      0.00000000</v>
  </separator>
  <separator name="orbital magnetization" >
   <i type="logical" name="NUCIND"> F  </i>
   <v name="MAGPOS">      0.00000000      0.00000000      0.00000000</v>
   <i type="logical" name="LNICSALL"> T  </i>
   <i type="logical" name="ORBITALMAG"> F  </i>
   <i type="logical" name="LMAGBLOCH"> F  </i>
   <i type="logical" name="LCHIMAG"> F  </i>
   <i type="logical" name="LGAUGE"> T  </i>
   <i type="int" name="MAGATOM">     0</i>
   <v name="MAGDIPOL">      0.00000000      0.00000000      0.00000000</v>
   <v name="AVECCONST">      0.00000000      0.00000000      0.00000000</v>
  </separator>
  <separator name="response functions" >
   <i type="logical" name="LFINITE_TEMPERATURE"> F  </i>
   <i type="logical" name="LADDER"> F  </i>
   <i type="logical" name="LRPAFORCE"> F  </i>
   <i type="logical" name="LFXC"> F  </i>
   <i type="logical" name="LHARTREE"> T  </i>
   <i type="int" name="IBSE">     0</i>
   <v type="int" name="KPOINT">    -1     0     0     0</v>
   <i type="logical" name="LTCTC"> F  </i>
   <i type="logical" name="LTCTE"> F  </i>
   <i type="logical" name="LTETE"> F  </i>
   <i type="logical" name="LTRIPLET"> F  </i>
   <i type="logical" name="LFXCEPS"> F  </i>
   <i type="logical" name="LFXHEG"> F  </i>
   <i type="int" name="NATURALO">     2</i>
   <i type="logical" name="LHOLEGF"> F  </i>
   <i type="logical" name="L2ORDER"> F  </i>
   <i type="logical" name="LDMP1"> F  </i>
   <i type="logical" name="LMP2LT"> F  </i>
   <i type="logical" name="LSMP2LT"> F  </i>
   <i type="logical" name="LGWLF"> F  </i>
   <i name="ENCUTGW">     -2.00000000</i>
   <i name="ENCUTGWSOFT">     -2.00000000</i>
   <i name="ENCUTLF">     -1.00000000</i>
   <i type="logical" name="LESF_SPLINES"> F  </i>
   <i type="int" name="LMAXMP2">    -1</i>
   <i name="SCISSOR">      0.00000000</i>
   <i type="int" name="NOMEGA">     0</i>
   <i type="int" name="NOMEGAR">     0</i>
   <i type="int" name="NBANDSGW">    -1</i>
   <i type="int" name="NBANDSO">    -1</i>
   <i type="int" name="NBANDSV">    -1</i>
   <i type="int" name="NELM">    90</i>
   <i type="int" name="NELMHF">     1</i>
   <i type="int" name="DIM">     3</i>
   <i type="int" name="IESPILON">     4</i>
   <i type="int" name="ANTIRES">     0</i>
   <i name="OMEGAMAX">    -30.00000000</i>
   <i name="OMEGAMIN">    -30.00000000</i>
   <i name="OMEGATL">   -200.00000000</i>
   <i type="int" name="OMEGAGRID">     0</i>
   <i name="CSHIFT">     -0.10000000</i>
   <i type="logical" name="LSELFENERGY"> F  </i>
   <i type="logical" name="LSPECTRAL"> F  </i>
   <i type="logical" name="LSPECTRALGW"> F  </i>
   <i type="logical" name="LSINGLES"> F  </i>
   <i type="logical" name="LFERMIGW"> F  </i>
   <i type="logical" name="ODDONLYGW"> F  </i>
   <i type="logical" name="EVENONLYGW"> F  </i>
   <i type="int" name="NKREDLFX">     1</i>
   <i type="int" name="NKREDLFY">     1</i>
   <i type="int" name="NKREDLFZ">     1</i>
   <i type="int" name="MAXMEM">  2800</i>
   <i type="int" name="TELESCOPE">     0</i>
   <i type="int" name="NTAUPAR">    -1</i>
   <i type="int" name="NOMEGAPAR">    -1</i>
   <i name="DAMP_NEWTON">      0.80000001</i>
   <i name="LAMBDA">      1.00000000</i>
  </separator>
  <separator name="External order field" >
   <i name="OFIELD_KAPPA">      0.00000000</i>
   <v name="OFIELD_K">      0.00000000      0.00000000      0.00000000</v>
   <i name="OFIELD_Q6_NEAR">      0.00000000</i>
   <i name="OFIELD_Q6_FAR">      0.00000000</i>
   <i name="OFIELD_A">      0.00000000</i>
  </separator>
 </parameters>
 <atominfo>
  <atoms>       1 </atoms>
  <types>       1 </types>
  <array name="atoms" >
   <dimension dim="1">ion</dimension>
   <field type="string">element</field>
   <field type="int">atomtype</field>
   <set>
    <rc><c>Si</c><c>   1</c></rc>
   </set>
  </array>
  <array name="atomtypes" >
   <dimension dim="1">type</dimension>
   <field type="int">atomspertype</field>
   <field type="string">element</field>
   <field>mass</field>
   <field>valence</field>
   <field type="string">pseudopotential</field>
   <set>
    <rc><c>   1</c><c>Si</c><c>     28.08500000</c><c>      4.00000000</c><c>  PAW_PBE Si 05Jan2001                  </c></rc>
   </set>
  </array>
 </atominfo>
 <structure name="initialpos" >
  <crystal>
   <varray name="basis" >
    <v>       1.49062575       1.49062575       1.49062575 </v>
    <v>       1.49062575      -1.49062575      -1.49062575 </v>
    <v>      -1.49062575       1.49062575      -1.49062575 </v>
   </varray>
   <i name="volume">     13.24847361 </i>
   <varray name="rec_basis" >
    <v>       0.33542960       0.33542960       0.00000000 </v>
    <v>       0.33542960       0.00000000      -0.33542960 </v>
    <v>       0.00000000       0.33542960      -0.33542960 </v>
   </varray>
  </crystal>
  <varray name="positions" >
   <v>       0.00000000       0.00000000       0.00000000 </v>
  </varray>
 </structure>
 <calculation>
  <scstep>
   <time name="dav">    0.17    0.17</time>
   <time name="total">    0.35    0.35</time>
   <energy>
    <i name="alphaZ">      2.54090635 </i>
    <i name="ewald">   -140.62332486 </i>
    <i name="hartreedc">     -0.40317160 </i>
    <i name="XCdc">     -8.56859038 </i>
    <i name="pawpsdc">     88.12379961 </i>
    <i name="pawaedc">    -70.53051779 </i>
    <i name="eentropy">     -0.00094999 </i>
    <i name="bandstr">     23.03424983 </i>
    <i name="atom">    103.06562707 </i>
    <i name="e_fr_energy">     -3.36197175 </i>
    <i name="e_wo_entrp">     -3.36102177 </i>
    <i name="e_0_energy">     -3.36149676 </i>
   </energy>
  </scstep>
  <scstep>
   <time name="dav">    0.23    0.24</time>
   <time name="total">    0.23    0.24</time>
   <energy>
    <i name="e_fr_energy">     -4.85106182 </i>
    <i name="e_wo_entrp">     -4.85018881 </i>
    <i name="e_0_energy">     -4.85062532 </i>
   </energy>
  </scstep>
  <scstep>
   <time name="dav">    0.16    0.17</time>
   <time name="total">    0.16    0.17</time>
   <energy>
    <i name="e_fr_energy">     -4.85711115 </i>
    <i name="e_wo_entrp">     -4.85628319 </i>
    <i name="e_0_energy">     -4.85669717 </i>
   </energy>
  </scstep>
  <scstep>
   <time name="dav">    0.27    0.28</time>
   <time name="total">    0.27    0.29</time>
   <energy>
    <i name="e_fr_energy">     -4.85711627 </i>
    <i name="e_wo_entrp">     -4.85628837 </i>
    <i name="e_0_energy">     -4.85670232 </i>
   </energy>
  </scstep>
  <scstep>
   <time name="dav">    0.16    0.17</time>
   <time name="total">    0.18    0.18</time>
   <energy>
    <i name="e_fr_energy">     -4.85711627 </i>
    <i name="e_wo_entrp">     -4.85628837 </i>
    <i name="e_0_energy">     -4.85670232 </i>
   </energy>
  </scstep>
  <scstep>
   <time name="dav">    0.15    0.16</time>
   <time name="total">    0.34    0.35</time>
   <energy>
    <i name="e_fr_energy">     -4.84461723 </i>
    <i name="e_wo_entrp">     -4.84377239 </i>
    <i name="e_0_energy">     -4.84419481 </i>
   </energy>
  </scstep>
  <scstep>
   <time name="dav">    0.16    0.16</time>
   <time name="total">    0.35    0.36</time>
   <energy>
    <i name="e_fr_energy">     -4.83736407 </i>
    <i name="e_wo_entrp">     -4.83649299 </i>
    <i name="e_0_energy">     -4.83692853 </i>
   </energy>
  </scstep>
  <scstep>
   <time name="dav">    0.21    0.21</time>
   <time name="total">    0.40    0.41</time>
   <energy>
    <i name="e_fr_energy">     -4.83733574 </i>
    <i name="e_wo_entrp">     -4.83646385 </i>
    <i name="e_0_energy">     -4.83689980 </i>
   </energy>
  </scstep>
  <scstep>
   <time name="dav">    0.17    0.17</time>
   <time name="total">    0.34    0.35</time>
   <energy>
    <i name="alphaZ">      2.54090635 </i>
    <i name="ewald">   -140.62332486 </i>
    <i name="hartreedc">     -0.30255454 </i>
    <i name="XCdc">     -8.48649045 </i>
    <i name="pawpsdc">    372.71258259 </i>
    <i name="pawaedc">   -355.15702430 </i>
    <i name="eentropy">     -0.00087212 </i>
    <i name="bandstr">     21.41381408 </i>
    <i name="atom">    103.06562707 </i>
    <i name="e_fr_energy">     -4.83733619 </i>
    <i name="e_wo_entrp">     -4.83646406 </i>
    <i name="e_0_energy">     -4.83690013 </i>
   </energy>
  </scstep>
  <structure>
   <crystal>
    <varray name="basis" >
     <v>       1.49062575       1.49062575       1.49062575 </v>
     <v>       1.49062575      -1.49062575      -1.49062575 </v>
     <v>      -1.49062575       1.49062575      -1.49062575 </v>
    </varray>
    <i name="volume">     13.24847361 </i>
    <varray name="rec_basis" >
     <v>       0.33542960       0.33542960       0.00000000 </v>
     <v>       0.33542960       0.00000000      -0.33542960 </v>
     <v>       0.00000000       0.33542960      -0.33542960 </v>
    </varray>
   </crystal>
   <varray name="positions" >
    <v>       0.00000000       0.00000000       0.00000000 </v>
   </varray>
  </structure>
  <varray name="forces" >
   <v>       0.00000000      -0.00000000      -0.00000000 </v>
  </varray>
  <varray name="stress" >
   <v>     116.03045093       0.00000000       0.00000000 </v>
   <v>      -0.00000000     116.03045093      -0.00000000 </v>
   <v>       0.00000000       0.00000000     116.03045093 </v>
  </varray>
  <energy>
   <i name="e_fr_energy">     -4.83733619 </i>
   <i name="e_wo_entrp">     -4.83646406 </i>
   <i name="e_0_energy">     -4.83690013 </i>
  </energy>
  <time name="totalsc">    3.24    3.39</time>
  <eigenvalues>
   <array>
    <dimension dim="1">band</dimension>
    <dimension dim="2">kpoint</dimension>
    <dimension dim="3">spin</dimension>
    <field>eigene</field>
    <field>occ</field>
    <set>
     <set comment="spin 1">
      <set comment="kpoint 1">
       <r>   -3.9073    1.0000 </r>
       <r>   23.9850    0.0000 </r>
       <r>   23.9850    0.0000 </r>
       <r>   23.9850    0.0000 </r>
       <r>   24.2559    0.0000 </r>
       <r>   24.2559    0.0000 </r>
       <r>   24.2559    0.0000 </r>
       <r>   28.1630    0.0000 </r>
      </set>
      <set comment="kpoint 2">
       <r>   -3.6367    1.0000 </r>
       <r>   20.8648    0.0000 </r>
       <r>   21.8658    0.0000 </r>
       <r>   23.4146    0.0000 </r>
       <r>   23.5157    0.0000 </r>
       <r>   25.5948    0.0000 </r>
       <r>   26.8290    0.0000 </r>
       <r>   26.9440    0.0000 </r>
      </set>
      <set comment="kpoint 3">
       <r>   -2.8271    1.0000 </r>
       <r>   16.7638    0.0000 </r>
       <r>   20.0697    0.0000 </r>
       <r>   21.8682    0.0000 </r>
       <r>   22.4371    0.0000 </r>
       <r>   24.4286    0.0000 </r>
       <r>   27.9403    0.0000 </r>
       <r>   28.2833    0.0000 </r>
      </set>
      <set comment="kpoint 4">
       <r>   -1.4848    1.0000 </r>
       <r>   12.6910    0.0000 </r>
       <r>   18.7284    0.0000 </r>
       <r>   20.4792    0.0000 </r>
       <r>   21.3347    0.0000 </r>
       <r>   23.1990    0.0000 </r>
       <r>   29.2117    0.0000 </r>
       <r>   29.5237    0.0000 </r>
      </set>
      <set comment="kpoint 5">
       <r>    0.3797    1.0000 </r>
       <r>    8.9423    1.0000 </r>
       <r>   17.8371    0.0000 </r>
       <r>   19.4960    0.0000 </r>
       <r>   20.5162    0.0000 </r>
       <r>   22.3229    0.0000 </r>
       <r>   30.6131    0.0000 </r>
       <r>   31.3648    0.0000 </r>
      </set>
      <set comment="kpoint 6">
       <r>    2.7524    1.0000 </r>
       <r>    5.6149    1.0000 </r>
       <r>   17.3926    0.0000 </r>
       <r>   18.9949    0.0000 </r>
       <r>   20.0902    0.0000 </r>
       <r>   21.8670    0.0000 </r>
       <r>   32.1956    0.0000 </r>
       <r>   33.1220    0.0000 </r>
      </set>
      <set comment="kpoint 7">
       <r>   -3.0966    1.0000 </r>
       <r>   18.8104    0.0000 </r>
       <r>   19.1197    0.0000 </r>
       <r>   21.3892    0.0000 </r>
       <r>   24.2347    0.0000 </r>
       <r>   25.5104    0.0000 </r>
       <r>   26.8018    0.0000 </r>
       <r>   28.0264    0.0000 </r>
      </set>
      <set comment="kpoint 8">
       <r>   -2.0207    1.0000 </r>
       <r>   14.8695    0.0000 </r>
       <r>   17.3550    0.0000 </r>
       <r>   19.9238    0.0000 </r>
       <r>   23.4624    0.0000 </r>
       <r>   25.0328    0.0000 </r>
       <r>   27.3555    0.0000 </r>
       <r>   29.9472    0.0000 </r>
      </set>
      <set comment="kpoint 9">
       <r>   -0.4172    1.0000 </r>
       <r>   10.9539    1.0000 </r>
       <r>   16.1756    0.0000 </r>
       <r>   18.8021    0.0000 </r>
       <r>   22.4474    0.0000 </r>
       <r>   24.5687    0.0000 </r>
       <r>   28.2896    0.0000 </r>
       <r>   31.9341    0.0000 </r>
      </set>
      <set comment="kpoint 10">
       <r>    1.7014    1.0000 </r>
       <r>    7.4144    1.0000 </r>
       <r>   15.4616    0.0000 </r>
       <r>   18.1097    0.0000 </r>
       <r>   21.7773    0.0000 </r>
       <r>   24.1148    0.0000 </r>
       <r>   29.9127    0.0000 </r>
       <r>   33.1151    0.0000 </r>
      </set>
      <set comment="kpoint 11">
       <r>    4.3141    1.0000 </r>
       <r>    4.3239    1.0000 </r>
       <r>   15.2226    0.0000 </r>
       <r>   17.8769    0.0000 </r>
       <r>   21.5480    0.0000 </r>
       <r>   23.9407    0.0000 </r>
       <r>   31.6053    0.0000 </r>
       <r>   32.2183    0.0000 </r>
      </set>
      <set comment="kpoint 12">
       <r>   -0.6836    1.0000 </r>
       <r>   13.4011    0.0000 </r>
       <r>   13.4217    0.0000 </r>
       <r>   18.6412    0.0000 </r>
       <r>   24.2530    0.0000 </r>
       <r>   24.8438    0.0000 </r>
       <r>   29.2606    0.0000 </r>
       <r>   30.2231    0.0000 </r>
      </set>
      <set comment="kpoint 13">
       <r>    1.1739    1.0000 </r>
       <r>    9.6977    1.0000 </r>
       <r>   12.4265    0.0000 </r>
       <r>   17.7438    0.0000 </r>
       <r>   23.7398    0.0000 </r>
       <r>   25.8661    0.0000 </r>
       <r>   29.3428    0.0000 </r>
       <r>   32.2335    0.0000 </r>
      </set>
      <set comment="kpoint 14">
       <r>    3.5375    1.0000 </r>
       <r>    6.3879    1.0000 </r>
       <r>   11.9309    0.0000 </r>
       <r>   17.2841    0.0000 </r>
       <r>   23.3211    0.0000 </r>
       <r>   26.8795    0.0000 </r>
       <r>   29.6244    0.0000 </r>
       <r>   31.7286    0.0000 </r>
      </set>
      <set comment="kpoint 15">
       <r>    3.2763    1.0000 </r>
       <r>    8.9024    1.0000 </r>
       <r>    8.9763    1.0000 </r>
       <r>   17.0760    0.0000 </r>
       <r>   25.2754    0.0000 </r>
       <r>   25.7908    0.0000 </r>
       <r>   30.0105    0.0000 </r>
       <r>   32.6402    0.0000 </r>
      </set>
      <set comment="kpoint 16">
       <r>    5.8528    1.0000 </r>
       <r>    5.8927    1.0000 </r>
       <r>    8.6863    1.0000 </r>
       <r>   16.8484    0.0000 </r>
       <r>   25.3102    0.0000 </r>
       <r>   27.3463    0.0000 </r>
       <r>   28.2034    0.0000 </r>
       <r>   33.5162    0.0000 </r>
      </set>
      <set comment="kpoint 17">
       <r>   -2.2891    1.0000 </r>
       <r>   16.9634    0.0000 </r>
       <r>   17.4034    0.0000 </r>
       <r>   17.4034    0.0000 </r>
       <r>   26.4561    0.0000 </r>
       <r>   26.4561    0.0000 </r>
       <r>   28.0204    0.0000 </r>
       <r>   28.0204    0.0000 </r>
      </set>
      <set comment="kpoint 18">
       <r>   -0.9503    1.0000 </r>
       <r>   13.1887    0.0000 </r>
       <r>   15.7243    0.0000 </r>
       <r>   15.9814    0.0000 </r>
       <r>   26.1351    0.0000 </r>
       <r>   26.6102    0.0000 </r>
       <r>   29.3940    0.0000 </r>
       <r>   29.5352    0.0000 </r>
      </set>
      <set comment="kpoint 19">
       <r>    0.9097    1.0000 </r>
       <r>    9.4518    1.0000 </r>
       <r>   14.7831    0.0000 </r>
       <r>   15.0031    0.0000 </r>
       <r>   25.6121    0.0000 </r>
       <r>   25.9691    0.0000 </r>
       <r>   31.0100    0.0000 </r>
       <r>   31.5196    0.0000 </r>
      </set>
      <set comment="kpoint 20">
       <r>    3.2768    1.0000 </r>
       <r>    6.1325    1.0000 </r>
       <r>   14.3098    0.0000 </r>
       <r>   14.5082    0.0000 </r>
       <r>   25.2797    0.0000 </r>
       <r>   25.5984    0.0000 </r>
       <r>   32.5128    0.0000 </r>
       <r>   33.3616    0.0000 </r>
      </set>
      <set comment="kpoint 21">
       <r>   -3.3664    1.0000 </r>
       <r>   20.2454    0.0000 </r>
       <r>   20.2454    0.0000 </r>
       <r>   22.0857    0.0000 </r>
       <r>   24.1979    0.0000 </r>
       <r>   24.7866    0.0000 </r>
       <r>   26.6615    0.0000 </r>
       <r>   26.6615    0.0000 </r>
      </set>
      <set comment="kpoint 22">
       <r>    0.6451    1.0000 </r>
       <r>   11.9537    0.0000 </r>
       <r>   11.9673    0.0000 </r>
       <r>   14.6741    0.0000 </r>
       <r>   27.3520    0.0000 </r>
       <r>   28.0877    0.0000 </r>
       <r>   30.2547    0.0000 </r>
       <r>   31.0186    0.0000 </r>
      </set>
      <set comment="kpoint 23">
       <r>    2.7535    1.0000 </r>
       <r>    8.4396    1.0000 </r>
       <r>   11.2158    0.7891 </r>
       <r>   13.9509    0.0000 </r>
       <r>   27.3547    0.0000 </r>
       <r>   28.7392    0.0000 </r>
       <r>   31.3297    0.0000 </r>
       <r>   32.9568    0.0000 </r>
      </set>
      <set comment="kpoint 24">
       <r>    5.3462    1.0000 </r>
       <r>    5.3714    1.0000 </r>
       <r>   10.9661    1.0000 </r>
       <r>   13.7078    0.0000 </r>
       <r>   27.2248    0.0000 </r>
       <r>   28.9636    0.0000 </r>
       <r>   32.2269    0.0000 </r>
       <r>   33.2640    0.0000 </r>
      </set>
      <set comment="kpoint 25">
       <r>   -2.5579    1.0000 </r>
       <r>   16.8951    0.0000 </r>
       <r>   18.4340    0.0000 </r>
       <r>   21.0691    0.0000 </r>
       <r>   23.0080    0.0000 </r>
       <r>   23.9124    0.0000 </r>
       <r>   26.8532    0.0000 </r>
       <r>   29.1642    0.0000 </r>
      </set>
      <set comment="kpoint 26">
       <r>    5.1000    1.0000 </r>
       <r>    7.8967    1.0000 </r>
       <r>    7.9664    1.0000 </r>
       <r>   13.4697    0.0000 </r>
       <r>   28.8209    0.0000 </r>
       <r>   29.7543    0.0000 </r>
       <r>   31.5169    0.0000 </r>
       <r>   33.9651    0.0000 </r>
      </set>
      <set comment="kpoint 27">
       <r>   -1.2174    1.0000 </r>
       <r>   12.9144    0.0000 </r>
       <r>   17.0401    0.0000 </r>
       <r>   19.8647    0.0000 </r>
       <r>   22.6377    0.0000 </r>
       <r>   23.3150    0.0000 </r>
       <r>   26.5514    0.0000 </r>
       <r>   32.4332    0.0000 </r>
      </set>
      <set comment="kpoint 28">
       <r>   -1.4847    1.0000 </r>
       <r>   15.2000    0.0000 </r>
       <r>   15.2549    0.0000 </r>
       <r>   20.6001    0.0000 </r>
       <r>   21.7235    0.0000 </r>
       <r>   23.5808    0.0000 </r>
       <r>   28.6589    0.0000 </r>
       <r>   29.4491    0.0000 </r>
      </set>
      <set comment="kpoint 29">
       <r>    0.6447    1.0000 </r>
       <r>    9.1892    1.0000 </r>
       <r>   16.1025    0.0000 </r>
       <r>   18.9465    0.0000 </r>
       <r>   21.7140    0.0000 </r>
       <r>   23.5200    0.0000 </r>
       <r>   27.1329    0.0000 </r>
       <r>   32.8017    0.0000 </r>
      </set>
      <set comment="kpoint 30">
       <r>    0.1144    1.0000 </r>
       <r>   11.4248    0.0000 </r>
       <r>   14.0160    0.0000 </r>
       <r>   19.8410    0.0000 </r>
       <r>   21.9266    0.0000 </r>
       <r>   23.1559    0.0000 </r>
       <r>   28.2630    0.0000 </r>
       <r>   31.5923    0.0000 </r>
      </set>
      <set comment="kpoint 31">
       <r>    3.0139    1.0000 </r>
       <r>    5.8711    1.0000 </r>
       <r>   15.6322    0.0000 </r>
       <r>   18.4724    0.0000 </r>
       <r>   21.2412    0.0000 </r>
       <r>   23.4406    0.0000 </r>
       <r>   28.7314    0.0000 </r>
       <r>   31.0491    0.0000 </r>
      </set>
      <set comment="kpoint 32">
       <r>    2.2271    1.0000 </r>
       <r>    7.9171    1.0000 </r>
       <r>   13.2841    0.0000 </r>
       <r>   19.1837    0.0000 </r>
       <r>   21.5913    0.0000 </r>
       <r>   24.2923    0.0000 </r>
       <r>   27.6458    0.0000 </r>
       <r>   30.6819    0.0000 </r>
      </set>
      <set comment="kpoint 33">
       <r>    1.9642    1.0000 </r>
       <r>   10.3907    1.0000 </r>
       <r>   10.4563    1.0000 </r>
       <r>   20.1939    0.0000 </r>
       <r>   21.9712    0.0000 </r>
       <r>   22.6829    0.0000 </r>
       <r>   28.8794    0.0000 </r>
       <r>   31.5985    0.0000 </r>
      </set>
      <set comment="kpoint 34">
       <r>    4.8310    1.0000 </r>
       <r>    4.8412    1.0000 </r>
       <r>   13.0390    0.0000 </r>
       <r>   18.9559    0.0000 </r>
       <r>   21.3975    0.0000 </r>
       <r>   25.2278    0.0000 </r>
       <r>   27.3107    0.0000 </r>
       <r>   29.6585    0.0000 </r>
      </set>
      <set comment="kpoint 35">
       <r>    4.3166    1.0000 </r>
       <r>    7.1498    1.0000 </r>
       <r>    9.9215    1.0000 </r>
       <r>   19.9623    0.0000 </r>
       <r>   21.9403    0.0000 </r>
       <r>   24.0716    0.0000 </r>
       <r>   26.4452    0.0000 </r>
       <r>   32.3467    0.0000 </r>
      </set>
      <set comment="kpoint 36">
       <r>    6.8621    1.0000 </r>
       <r>    6.8621    1.0000 </r>
       <r>    6.9567    1.0000 </r>
       <r>   20.0072    0.0000 </r>
       <r>   23.9034    0.0000 </r>
       <r>   23.9034    0.0000 </r>
       <r>   23.9119    0.0000 </r>
       <r>   35.5232    0.0000 </r>
      </set>
      <set comment="kpoint 37">
       <r>    2.4914    1.0000 </r>
       <r>   10.9561    1.0000 </r>
       <r>   10.9561    1.0000 </r>
       <r>   11.0044    1.0000 </r>
       <r>   30.1780    0.0000 </r>
       <r>   30.1780    0.0000 </r>
       <r>   31.7953    0.0000 </r>
       <r>   31.7953    0.0000 </r>
      </set>
      <set comment="kpoint 38">
       <r>    4.8415    1.0000 </r>
       <r>    7.6776    1.0000 </r>
       <r>   10.4537    1.0000 </r>
       <r>   10.4945    1.0000 </r>
       <r>   30.7868    0.0000 </r>
       <r>   30.9768    0.0000 </r>
       <r>   33.1847    0.0000 </r>
       <r>   33.6867    0.0000 </r>
      </set>
      <set comment="kpoint 39">
       <r>   -1.7525    1.0000 </r>
       <r>   16.5860    0.0000 </r>
       <r>   16.5860    0.0000 </r>
       <r>   19.0968    0.0000 </r>
       <r>   19.9391    0.0000 </r>
       <r>   26.3624    0.0000 </r>
       <r>   28.4537    0.0000 </r>
       <r>   28.4537    0.0000 </r>
      </set>
      <set comment="kpoint 40">
       <r>    7.3910    1.0000 </r>
       <r>    7.3910    1.0000 </r>
       <r>    7.4867    1.0000 </r>
       <r>   10.2258    1.0000 </r>
       <r>   32.0753    0.0000 </r>
       <r>   32.9805    0.0000 </r>
       <r>   32.9805    0.0000 </r>
       <r>   34.9220    0.0000 </r>
      </set>
      <set comment="kpoint 41">
       <r>   -0.4173    1.0000 </r>
       <r>   13.5248    0.0000 </r>
       <r>   15.1669    0.0000 </r>
       <r>   18.0129    0.0000 </r>
       <r>   19.6691    0.0000 </r>
       <r>   25.8814    0.0000 </r>
       <r>   28.3516    0.0000 </r>
       <r>   31.2013    0.0000 </r>
      </set>
      <set comment="kpoint 42">
       <r>    1.4371    1.0000 </r>
       <r>    9.9183    1.0000 </r>
       <r>   14.2143    0.0000 </r>
       <r>   17.0510    0.0000 </r>
       <r>   21.0684    0.0000 </r>
       <r>   25.0438    0.0000 </r>
       <r>   27.1660    0.0000 </r>
       <r>   30.2212    0.0000 </r>
      </set>
      <set comment="kpoint 43">
       <r>    1.1731    1.0000 </r>
       <r>   12.2793    0.0000 </r>
       <r>   12.3119    0.0000 </r>
       <r>   18.2291    0.0000 </r>
       <r>   18.6292    0.0000 </r>
       <r>   25.7059    0.0000 </r>
       <r>   28.2030    0.0000 </r>
       <r>   30.9563    0.0000 </r>
      </set>
      <set comment="kpoint 44">
       <r>    3.7953    1.0000 </r>
       <r>    6.6353    1.0000 </r>
       <r>   13.7364    0.0000 </r>
       <r>   16.5523    0.0000 </r>
       <r>   22.8374    0.0000 </r>
       <r>   24.5919    0.0000 </r>
       <r>   25.4866    0.0000 </r>
       <r>   29.2691    0.0000 </r>
      </set>
      <set comment="kpoint 45">
       <r>    3.2732    1.0000 </r>
       <r>    8.9063    1.0000 </r>
       <r>   11.5543    0.0000 </r>
       <r>   17.6813    0.0000 </r>
       <r>   20.1650    0.0000 </r>
       <r>   24.6556    0.0000 </r>
       <r>   26.0054    0.0000 </r>
       <r>   31.5242    0.0000 </r>
      </set>
      <set comment="kpoint 46">
       <r>    5.8417    1.0000 </r>
       <r>    5.8839    1.0000 </r>
       <r>   11.3067    0.0385 </r>
       <r>   17.4409    0.0000 </r>
       <r>   21.9350    0.0000 </r>
       <r>   22.9208    0.0000 </r>
       <r>   25.3937    0.0000 </r>
       <r>   31.4866    0.0000 </r>
      </set>
      <set comment="kpoint 47">
       <r>    5.6043    1.0000 </r>
       <r>    8.3603    1.0000 </r>
       <r>    8.4388    1.0000 </r>
       <r>   19.3964    0.0000 </r>
       <r>   19.9523    0.0000 </r>
       <r>   22.2580    0.0000 </r>
       <r>   25.3537    0.0000 </r>
       <r>   34.5204    0.0000 </r>
      </set>
      <set comment="kpoint 48">
       <r>    0.9088    1.0000 </r>
       <r>   13.7337    0.0000 </r>
       <r>   13.7337    0.0000 </r>
       <r>   16.4501    0.0000 </r>
       <r>   16.6833    0.0000 </r>
       <r>   27.8565    0.0000 </r>
       <r>   28.9666    0.0000 </r>
       <r>   30.7401    0.0000 </r>
      </set>
      <set comment="kpoint 49">
       <r>    2.7496    1.0000 </r>
       <r>   11.0560    1.0000 </r>
       <r>   12.7741    0.0000 </r>
       <r>   15.5465    0.0000 </r>
       <r>   17.2199    0.0000 </r>
       <r>   24.7612    0.0000 </r>
       <r>   28.8276    0.0000 </r>
       <r>   31.5658    0.0000 </r>
      </set>
      <set comment="kpoint 50">
       <r>    5.0870    1.0000 </r>
       <r>    7.8894    1.0000 </r>
       <r>   12.2936    0.0000 </r>
       <r>   15.0342    0.0000 </r>
       <r>   19.2348    0.0000 </r>
       <r>   21.8437    0.0000 </r>
       <r>   28.4252    0.0000 </r>
       <r>   31.6800    0.0000 </r>
      </set>
      <set comment="kpoint 51">
       <r>    4.8279    1.0000 </r>
       <r>   10.2778    1.0000 </r>
       <r>   10.3396    1.0000 </r>
       <r>   16.4125    0.0000 </r>
       <r>   16.5359    0.0000 </r>
       <r>   21.6021    0.0000 </r>
       <r>   29.2343    0.0000 </r>
       <r>   33.8877    0.0000 </r>
      </set>
      <set comment="kpoint 52">
       <r>    7.3434    1.0000 </r>
       <r>    7.4131    1.0000 </r>
       <r>   10.0602    1.0000 </r>
       <r>   16.2216    0.0000 </r>
       <r>   18.6334    0.0000 </r>
       <r>   18.9276    0.0000 </r>
       <r>   29.1196    0.0000 </r>
       <r>   34.5138    0.0000 </r>
      </set>
      <set comment="kpoint 53">
       <r>    4.5685    1.0000 </r>
       <r>   11.8110    0.0000 </r>
       <r>   11.8110    0.0000 </r>
       <r>   14.4991    0.0000 </r>
       <r>   14.5348    0.0000 </r>
       <r>   21.3735    0.0000 </r>
       <r>   32.4911    0.0000 </r>
       <r>   33.6772    0.0000 </r>
      </set>
      <set comment="kpoint 54">
       <r>    6.8661    1.0000 </r>
       <r>    9.5580    1.0000 </r>
       <r>   11.3288    0.0083 </r>
       <r>   13.9961    0.0000 </r>
       <r>   15.7240    0.0000 </r>
       <r>   18.2954    0.0000 </r>
       <r>   32.5920    0.0000 </r>
       <r>   34.6267    0.0000 </r>
      </set>
      <set comment="kpoint 55">
       <r>    9.2738    1.0000 </r>
       <r>    9.2738    1.0000 </r>
       <r>    9.3741    1.0000 </r>
       <r>   15.4524    0.0000 </r>
       <r>   15.4840    0.0000 </r>
       <r>   15.4840    0.0000 </r>
       <r>   33.1887    0.0000 </r>
       <r>   36.8758    0.0000 </r>
      </set>
      <set comment="kpoint 56">
       <r>    9.0551    1.0000 </r>
       <r>   10.8464    1.0000 </r>
       <r>   10.8464    1.0000 </r>
       <r>   13.4048    0.0000 </r>
       <r>   13.5339    0.0000 </r>
       <r>   15.2209    0.0000 </r>
       <r>   36.3824    0.0000 </r>
       <r>   36.6719    0.0000 </r>
      </set>
     </set>
    </set>
   </array>
  </eigenvalues>
  <separator name="orbital magnetization" >
   <v name="MAGDIPOLOUT">      0.00000000      0.00000000      0.00000000</v>
  </separator>
  <dos>
   <i name="efermi">     11.24419747 </i>
   <total>
    <array>
     <dimension dim="1">gridpoints</dimension>
     <dimension dim="2">spin</dimension>
     <field>energy</field>
     <field>total</field>
     <field>integrated</field>
     <set>
      <set comment="spin 1">
       <r>    -5.9464     0.0000     0.0000 </r>
       <r>    -5.7969     0.0000     0.0000 </r>
       <r>    -5.6473     0.0000     0.0000 </r>
       <r>    -5.4978     0.0000     0.0000 </r>
       <r>    -5.3483     0.0000     0.0000 </r>
       <r>    -5.1987     0.0000     0.0000 </r>
       <r>    -5.0492     0.0000     0.0000 </r>
       <r>    -4.8997     0.0000     0.0000 </r>
       <r>    -4.7501     0.0000     0.0000 </r>
       <r>    -4.6006     0.0000     0.0000 </r>
       <r>    -4.4510     0.0000     0.0000 </r>
       <r>    -4.3015     0.0000     0.0000 </r>
       <r>    -4.1520     0.0000     0.0000 </r>
       <r>    -4.0024     0.0000     0.0000 </r>
       <r>    -3.8529     0.0094     0.0014 </r>
       <r>    -3.7034     0.0042     0.0020 </r>
       <r>    -3.5538     0.1159     0.0194 </r>
       <r>    -3.4043     0.0097     0.0208 </r>
       <r>    -3.2547     0.0517     0.0285 </r>
       <r>    -3.1052     0.0974     0.0431 </r>
       <r>    -2.9557     0.1438     0.0646 </r>
       <r>    -2.8061     0.0872     0.0777 </r>
       <r>    -2.6566     0.0340     0.0827 </r>
       <r>    -2.5071     0.2224     0.1160 </r>
       <r>    -2.3575     0.0203     0.1190 </r>
       <r>    -2.2080     0.0774     0.1306 </r>
       <r>    -2.0584     0.0697     0.1410 </r>
       <r>    -1.9089     0.4131     0.2028 </r>
       <r>    -1.7594     0.0259     0.2067 </r>
       <r>    -1.6098     0.0349     0.2119 </r>
       <r>    -1.4603     0.2733     0.2527 </r>
       <r>    -1.3108     0.0894     0.2661 </r>
       <r>    -1.1612     0.2266     0.3000 </r>
       <r>    -1.0117     0.0235     0.3035 </r>
       <r>    -0.8621     0.2297     0.3379 </r>
       <r>    -0.7126     0.0512     0.3455 </r>
       <r>    -0.5631     0.1914     0.3741 </r>
       <r>    -0.4135     0.3922     0.4328 </r>
       <r>    -0.2640     0.3313     0.4823 </r>
       <r>    -0.1144     0.0000     0.4823 </r>
       <r>     0.0351     0.0060     0.4832 </r>
       <r>     0.1846     0.4650     0.5528 </r>
       <r>     0.3342     0.0232     0.5563 </r>
       <r>     0.4837     0.1085     0.5725 </r>
       <r>     0.6332     0.1792     0.5993 </r>
       <r>     0.7828     0.3034     0.6446 </r>
       <r>     0.9323     0.2232     0.6780 </r>
       <r>     1.0819     0.0816     0.6902 </r>
       <r>     1.2314     0.6831     0.7924 </r>
       <r>     1.3809     0.0505     0.7999 </r>
       <r>     1.5305     0.2267     0.8338 </r>
       <r>     1.6800     0.1326     0.8536 </r>
       <r>     1.8295     0.3507     0.9061 </r>
       <r>     1.9791     0.1601     0.9300 </r>
       <r>     2.1286     0.0824     0.9423 </r>
       <r>     2.2782     0.4452     1.0089 </r>
       <r>     2.4277     0.0387     1.0147 </r>
       <r>     2.5772     0.0769     1.0262 </r>
       <r>     2.7268     0.1997     1.0561 </r>
       <r>     2.8763     0.6448     1.1525 </r>
       <r>     3.0258     0.1526     1.1753 </r>
       <r>     3.1754     0.0911     1.1889 </r>
       <r>     3.3249     0.8865     1.3215 </r>
       <r>     3.4745     0.0938     1.3355 </r>
       <r>     3.6240     0.4608     1.4044 </r>
       <r>     3.7735     0.0683     1.4147 </r>
       <r>     3.9231     0.1763     1.4410 </r>
       <r>     4.0726     0.0000     1.4410 </r>
       <r>     4.2221     0.0034     1.4415 </r>
       <r>     4.3717     0.8987     1.5759 </r>
       <r>     4.5212     0.0680     1.5861 </r>
       <r>     4.6708     0.0547     1.5943 </r>
       <r>     4.8203     0.3251     1.6429 </r>
       <r>     4.9698     0.6397     1.7386 </r>
       <r>     5.1194     0.3686     1.7937 </r>
       <r>     5.2689     0.1176     1.8113 </r>
       <r>     5.4185     0.4513     1.8787 </r>
       <r>     5.5680     0.0750     1.8900 </r>
       <r>     5.7175     0.3136     1.9368 </r>
       <r>     5.8671     0.5854     2.0244 </r>
       <r>     6.0166     0.6208     2.1172 </r>
       <r>     6.1661     0.2000     2.1471 </r>
       <r>     6.3157     0.0510     2.1547 </r>
       <r>     6.4652     0.4655     2.2244 </r>
       <r>     6.6148     0.0746     2.2355 </r>
       <r>     6.7643     0.1744     2.2616 </r>
       <r>     6.9138     0.3771     2.3180 </r>
       <r>     7.0634     0.1077     2.3341 </r>
       <r>     7.2129     0.4610     2.4030 </r>
       <r>     7.3624     0.2742     2.4440 </r>
       <r>     7.5120     0.9284     2.5829 </r>
       <r>     7.6615     0.0993     2.5977 </r>
       <r>     7.8111     0.1687     2.6229 </r>
       <r>     7.9606     0.9972     2.7721 </r>
       <r>     8.1101     0.2029     2.8024 </r>
       <r>     8.2597     0.0005     2.8025 </r>
       <r>     8.4092     0.3630     2.8568 </r>
       <r>     8.5587     0.6009     2.9466 </r>
       <r>     8.7083     0.1770     2.9731 </r>
       <r>     8.8578     0.1315     2.9927 </r>
       <r>     9.0074     0.9725     3.1382 </r>
       <r>     9.1569     0.1496     3.1605 </r>
       <r>     9.3064     0.3319     3.2102 </r>
       <r>     9.4560     0.2383     3.2458 </r>
       <r>     9.6055     0.3315     3.2954 </r>
       <r>     9.7550     0.4765     3.3666 </r>
       <r>     9.9046     0.2619     3.4058 </r>
       <r>    10.0541     0.5911     3.4942 </r>
       <r>    10.2037     0.1627     3.5185 </r>
       <r>    10.3532     0.4843     3.5909 </r>
       <r>    10.5027     0.8759     3.7219 </r>
       <r>    10.6523     0.1414     3.7431 </r>
       <r>    10.8018     0.0125     3.7449 </r>
       <r>    10.9513     0.4946     3.8189 </r>
       <r>    11.1009     0.7947     3.9377 </r>
       <r>    11.2504     0.4446     4.0042 </r>
       <r>    11.4000     0.6547     4.1021 </r>
       <r>    11.5495     0.5873     4.1899 </r>
       <r>    11.6990     0.2673     4.2299 </r>
       <r>    11.8486     0.1084     4.2461 </r>
       <r>    11.9981     0.8915     4.3794 </r>
       <r>    12.1477     0.0853     4.3922 </r>
       <r>    12.2972     0.3793     4.4489 </r>
       <r>    12.4467     0.6895     4.5520 </r>
       <r>    12.5963     0.1374     4.5726 </r>
       <r>    12.7458     0.1640     4.5971 </r>
       <r>    12.8953     0.2684     4.6372 </r>
       <r>    13.0449     0.3066     4.6831 </r>
       <r>    13.1944     0.2433     4.7195 </r>
       <r>    13.3440     0.5817     4.8065 </r>
       <r>    13.4935     0.7728     4.9220 </r>
       <r>    13.6430     0.3251     4.9706 </r>
       <r>    13.7926     0.5721     5.0562 </r>
       <r>    13.9421     0.2390     5.0919 </r>
       <r>    14.0916     0.9795     5.2384 </r>
       <r>    14.2412     0.2022     5.2686 </r>
       <r>    14.3907     0.2862     5.3114 </r>
       <r>    14.5403     0.2865     5.3543 </r>
       <r>    14.6898     0.2407     5.3903 </r>
       <r>    14.8393     0.4009     5.4502 </r>
       <r>    14.9889     0.5075     5.5261 </r>
       <r>    15.1384     0.4385     5.5917 </r>
       <r>    15.2879     0.9087     5.7276 </r>
       <r>    15.4375     0.2154     5.7598 </r>
       <r>    15.5870     0.7962     5.8788 </r>
       <r>    15.7366     0.5547     5.9618 </r>
       <r>    15.8861     0.1760     5.9881 </r>
       <r>    16.0356     0.2323     6.0228 </r>
       <r>    16.1852     0.5760     6.1090 </r>
       <r>    16.3347     0.3999     6.1688 </r>
       <r>    16.4842     0.3072     6.2147 </r>
       <r>    16.6338     0.5849     6.3022 </r>
       <r>    16.7833     0.1628     6.3265 </r>
       <r>    16.9329     0.4889     6.3996 </r>
       <r>    17.0824     0.6481     6.4966 </r>
       <r>    17.2319     0.3630     6.5508 </r>
       <r>    17.3815     1.0081     6.7016 </r>
       <r>    17.5310     0.5323     6.7812 </r>
       <r>    17.6806     0.2563     6.8195 </r>
       <r>    17.8301     0.7794     6.9360 </r>
       <r>    17.9796     0.3334     6.9859 </r>
       <r>    18.1292     0.5420     7.0670 </r>
       <r>    18.2787     0.4385     7.1325 </r>
       <r>    18.4282     0.3144     7.1795 </r>
       <r>    18.5778     0.3918     7.2381 </r>
       <r>    18.7273     0.7495     7.3502 </r>
       <r>    18.8769     0.7898     7.4683 </r>
       <r>    19.0264     0.8032     7.5884 </r>
       <r>    19.1759     0.5272     7.6673 </r>
       <r>    19.3255     0.5310     7.7467 </r>
       <r>    19.4750     0.2672     7.7866 </r>
       <r>    19.6245     0.1154     7.8039 </r>
       <r>    19.7741     0.2312     7.8385 </r>
       <r>    19.9236     1.0698     7.9984 </r>
       <r>    20.0732     1.0876     8.1611 </r>
       <r>    20.2227     0.8186     8.2835 </r>
       <r>    20.3722     0.1644     8.3081 </r>
       <r>    20.5218     0.1778     8.3346 </r>
       <r>    20.6713     0.2991     8.3794 </r>
       <r>    20.8208     0.0182     8.3821 </r>
       <r>    20.9704     0.1088     8.3984 </r>
       <r>    21.1199     0.4456     8.4650 </r>
       <r>    21.2695     0.2298     8.4994 </r>
       <r>    21.4190     0.5895     8.5875 </r>
       <r>    21.5685     0.4610     8.6565 </r>
       <r>    21.7181     0.8844     8.7887 </r>
       <r>    21.8676     1.1061     8.9541 </r>
       <r>    22.0171     1.6145     9.1955 </r>
       <r>    22.1667     0.0947     9.2097 </r>
       <r>    22.3162     0.2800     9.2516 </r>
       <r>    22.4658     0.5133     9.3283 </r>
       <r>    22.6153     0.2410     9.3644 </r>
       <r>    22.7648     0.4145     9.4263 </r>
       <r>    22.9144     0.3395     9.4771 </r>
       <r>    23.0639     0.3702     9.5325 </r>
       <r>    23.2135     0.5494     9.6146 </r>
       <r>    23.3630     0.7238     9.7228 </r>
       <r>    23.5125     1.0286     9.8767 </r>
       <r>    23.6621     0.4873     9.9495 </r>
       <r>    23.8116     0.4695    10.0197 </r>
       <r>    23.9611     0.6371    10.1150 </r>
       <r>    24.1107     0.7620    10.2290 </r>
       <r>    24.2602     0.8146    10.3508 </r>
       <r>    24.4098     0.6039    10.4411 </r>
       <r>    24.5593     0.3198    10.4889 </r>
       <r>    24.7088     0.9567    10.6320 </r>
       <r>    24.8584     0.4729    10.7027 </r>
       <r>    25.0079     0.2376    10.7382 </r>
       <r>    25.1574     0.5754    10.8243 </r>
       <r>    25.3070     0.7532    10.9369 </r>
       <r>    25.4565     0.7416    11.0478 </r>
       <r>    25.6061     0.7496    11.1599 </r>
       <r>    25.7556     0.5432    11.2411 </r>
       <r>    25.9051     0.8288    11.3651 </r>
       <r>    26.0547     0.8012    11.4849 </r>
       <r>    26.2042     0.2735    11.5258 </r>
       <r>    26.3537     0.0330    11.5307 </r>
       <r>    26.5033     0.6588    11.6292 </r>
       <r>    26.6528     0.5206    11.7071 </r>
       <r>    26.8024     0.2745    11.7481 </r>
       <r>    26.9519     0.9712    11.8934 </r>
       <r>    27.1014     0.1133    11.9103 </r>
       <r>    27.2510     0.6267    12.0040 </r>
       <r>    27.4005     1.5986    12.2431 </r>
       <r>    27.5500     0.1347    12.2632 </r>
       <r>    27.6996     0.4498    12.3305 </r>
       <r>    27.8491     0.0567    12.3389 </r>
       <r>    27.9987     0.2461    12.3757 </r>
       <r>    28.1482     0.5741    12.4616 </r>
       <r>    28.2977     1.2521    12.6488 </r>
       <r>    28.4473     0.7726    12.7643 </r>
       <r>    28.5968     0.1435    12.7858 </r>
       <r>    28.7464     0.6766    12.8870 </r>
       <r>    28.8959     0.9222    13.0249 </r>
       <r>    29.0454     0.3824    13.0821 </r>
       <r>    29.1950     0.5132    13.1588 </r>
       <r>    29.3445     1.0759    13.3197 </r>
       <r>    29.4940     0.7295    13.4288 </r>
       <r>    29.6436     0.7547    13.5416 </r>
       <r>    29.7931     0.5105    13.6180 </r>
       <r>    29.9427     0.6423    13.7140 </r>
       <r>    30.0922     0.5949    13.8030 </r>
       <r>    30.2417     0.5848    13.8904 </r>
       <r>    30.3913     0.3007    13.9354 </r>
       <r>    30.5408     0.0025    13.9358 </r>
       <r>    30.6903     0.4086    13.9969 </r>
       <r>    30.8399     0.4772    14.0682 </r>
       <r>    30.9894     0.4973    14.1426 </r>
       <r>    31.1390     0.7325    14.2521 </r>
       <r>    31.2885     0.2923    14.2958 </r>
       <r>    31.4380     0.5706    14.3812 </r>
       <r>    31.5876     1.7068    14.6364 </r>
       <r>    31.7371     1.2013    14.8160 </r>
       <r>    31.8866     0.4034    14.8764 </r>
       <r>    32.0362     0.4498    14.9436 </r>
       <r>    32.1857     0.2325    14.9784 </r>
       <r>    32.3353     1.1023    15.1432 </r>
       <r>    32.4848     0.6048    15.2337 </r>
       <r>    32.6343     0.5588    15.3172 </r>
       <r>    32.7839     0.2386    15.3529 </r>
       <r>    32.9334     0.3044    15.3984 </r>
       <r>    33.0829     0.6098    15.4896 </r>
       <r>    33.2325     0.8352    15.6145 </r>
       <r>    33.3820     0.3996    15.6743 </r>
       <r>    33.5316     0.2292    15.7085 </r>
       <r>    33.6811     0.2184    15.7412 </r>
       <r>    33.8306     0.1760    15.7675 </r>
       <r>    33.9802     0.3877    15.8255 </r>
       <r>    34.1297     0.0818    15.8377 </r>
       <r>    34.2792     0.0000    15.8377 </r>
       <r>    34.4288     0.0031    15.8382 </r>
       <r>    34.5783     0.4795    15.9099 </r>
       <r>    34.7279     0.2404    15.9458 </r>
       <r>    34.8774     0.0088    15.9471 </r>
       <r>    35.0269     0.0720    15.9579 </r>
       <r>    35.1765     0.0001    15.9579 </r>
       <r>    35.3260     0.0000    15.9579 </r>
       <r>    35.4756     0.0072    15.9590 </r>
       <r>    35.6251     0.0731    15.9699 </r>
       <r>    35.7746     0.0002    15.9699 </r>
       <r>    35.9242     0.0000    15.9699 </r>
       <r>    36.0737     0.0000    15.9699 </r>
       <r>    36.2232     0.0000    15.9699 </r>
       <r>    36.3728     0.0237    15.9735 </r>
       <r>    36.5223     0.0366    15.9790 </r>
       <r>    36.6719     0.0301    15.9835 </r>
       <r>    36.8214     0.0352    15.9887 </r>
       <r>    36.9709     0.0751    16.0000 </r>
       <r>    37.1205     0.0003    16.0000 </r>
       <r>    37.2700     0.0000    16.0000 </r>
       <r>    37.4195     0.0000    16.0000 </r>
       <r>    37.5691     0.0000    16.0000 </r>
       <r>    37.7186     0.0000    16.0000 </r>
       <r>    37.8682     0.0000    16.0000 </r>
       <r>    38.0177     0.0000    16.0000 </r>
       <r>    38.1672     0.0000    16.0000 </r>
       <r>    38.3168     0.0000    16.0000 </r>
       <r>    38.4663     0.0000    16.0000 </r>
       <r>    38.6158     0.0000    16.0000 </r>
       <r>    38.7654     0.0000    16.0000 </r>
       <r>    38.9149     0.0000    16.0000 </r>
      </set>
     </set>
    </array>
   </total>
  </dos>
 </calculation>
 <structure name="finalpos" >
  <crystal>
   <varray name="basis" >
    <v>       1.49062575       1.49062575       1.49062575 </v>
    <v>       1.49062575      -1.49062575      -1.49062575 </v>
    <v>      -1.49062575       1.49062575      -1.49062575 </v>
   </varray>
   <i name="volume">     13.24847361 </i>
   <varray name="rec_basis" >
    <v>       0.33542960       0.33542960       0.00000000 </v>
    <v>       0.33542960       0.00000000      -0.33542960 </v>
    <v>       0.00000000       0.33542960      -0.33542960 </v>
   </varray>
  </crystal>
  <varray name="positions" >
   <v>       0.00000000       0.00000000       0.00000000 </v>
  </varray>
 </structure>
</modeling>
