 running on    4 total cores
 distrk:  each k-point on    4 cores,    1 groups
 distr:  one band on    1 cores,    4 groups
 vasp.6.2.0 18Jan21 (build Aug 12 2022 13:00:08) complex                        
  
 POSCAR found type information on POSCAR Si
 POSCAR found :  1 types and       1 ions
 scaLAPACK will be used
 LDA part: xc-table for Pade appr. of Perdew
 POSCAR, INCAR and KPOINTS ok, starting setup
 FFT: planning ...
 WAVECAR not read
 entering main loop
       N       E                     dE             d eps       ncg     rms          rms(c)
DAV:   1    -0.336197175454E+01   -0.33620E+01   -0.14479E+03  1032   0.278E+02
DAV:   2    -0.485106182034E+01   -0.14891E+01   -0.13512E+01  1360   0.228E+01
DAV:   3    -0.485711115495E+01   -0.60493E-02   -0.60478E-02   960   0.141E+00
DAV:   4    -0.485711626555E+01   -0.51106E-05   -0.51111E-05  1528   0.411E-02
DAV:   5    -0.485711626583E+01   -0.28355E-09   -0.21621E-09   976   0.208E-04    0.313E+00
DAV:   6    -0.484461723121E+01    0.12499E-01   -0.34489E-03   944   0.264E-01    0.174E+00
DAV:   7    -0.483736407150E+01    0.72532E-02   -0.69883E-03   976   0.376E-01    0.140E-01
DAV:   8    -0.483733574390E+01    0.28328E-04   -0.29514E-05  1232   0.403E-02    0.949E-03
DAV:   9    -0.483733618632E+01   -0.44242E-06   -0.41281E-07  1008   0.361E-03
   1 F= -.48373362E+01 E0= -.48369001E+01  d E =-.483734E+01
 curvature:   0.00 expect dE= 0.000E+00 dE for cont linesearch  0.000E+00
 trial: gam= 0.00000 g(F)=  0.401E-65 g(S)=  0.000E+00 ort = 0.000E+00 (trialstep = 0.100E+01)
 search vector abs. value=  0.100E-09
 reached required accuracy - stopping structural energy minimisation
