unknown system                          
           1
     1.490626    1.490626    1.490626
     1.490626   -1.490626   -1.490626
    -1.490626    1.490626   -1.490626
   Si
     1
Direct configuration=     1
   0.00000000  0.00000000  0.00000000
