   2   2   0   0
  0.2016476E+02  0.3849278E-09  0.3849279E-09  0.3849278E-09  0.5000000E-15
  1.000000000000000E-004
  CAR 
 unknown system                          
     16.53547248     -7.27910255  301      5.82139440      1.00000000
     -7.279  0.0000E+00  0.0000E+00
     -7.200  0.0000E+00  0.0000E+00
     -7.120  0.0000E+00  0.0000E+00
     -7.041  0.0000E+00  0.0000E+00
     -6.962  0.0000E+00  0.0000E+00
     -6.882  0.0000E+00  0.0000E+00
     -6.803  0.0000E+00  0.0000E+00
     -6.723  0.0000E+00  0.0000E+00
     -6.644  0.0000E+00  0.0000E+00
     -6.565  0.0000E+00  0.0000E+00
     -6.485  0.4531E-20  0.3596E-21
     -6.406  0.4580E-13  0.3636E-14
     -6.327  0.4129E-08  0.3278E-09
     -6.247  0.5673E-05  0.4507E-06
     -6.168  0.2242E-03  0.1825E-04
     -6.088  0.8863E-03  0.8860E-04
     -6.009  0.1315E-02  0.1930E-03
     -5.930  0.1721E-02  0.3297E-03
     -5.850  0.1968E-02  0.4859E-03
     -5.771  0.2278E-02  0.6667E-03
     -5.691  0.2262E-02  0.8462E-03
     -5.612  0.3099E-02  0.1092E-02
     -5.533  0.2412E-02  0.1284E-02
     -5.453  0.3253E-02  0.1542E-02
     -5.374  0.3680E-02  0.1834E-02
     -5.295  0.2773E-02  0.2054E-02
     -5.215  0.3850E-02  0.2360E-02
     -5.136  0.4256E-02  0.2698E-02
     -5.056  0.3753E-02  0.2996E-02
     -4.977  0.3444E-02  0.3269E-02
     -4.898  0.5472E-02  0.3703E-02
     -4.818  0.4123E-02  0.4031E-02
     -4.739  0.4719E-02  0.4405E-02
     -4.659  0.4272E-02  0.4744E-02
     -4.580  0.5939E-02  0.5216E-02
     -4.501  0.5659E-02  0.5665E-02
     -4.421  0.4685E-02  0.6037E-02
     -4.342  0.5311E-02  0.6459E-02
     -4.263  0.7000E-02  0.7014E-02
     -4.183  0.6896E-02  0.7562E-02
     -4.104  0.5652E-02  0.8010E-02
     -4.024  0.6248E-02  0.8506E-02
     -3.945  0.8977E-02  0.9219E-02
     -3.866  0.9646E-02  0.9985E-02
     -3.786  0.8025E-02  0.1062E-01
     -3.707  0.7003E-02  0.1118E-01
     -3.628  0.1050E-01  0.1201E-01
     -3.548  0.8166E-02  0.1266E-01
     -3.469  0.6900E-02  0.1321E-01
     -3.389  0.7221E-02  0.1378E-01
     -3.310  0.7856E-02  0.1440E-01
     -3.231  0.7157E-02  0.1497E-01
     -3.151  0.6717E-02  0.1551E-01
     -3.072  0.5143E-02  0.1591E-01
     -2.992  0.7226E-02  0.1649E-01
     -2.913  0.6580E-02  0.1701E-01
     -2.834  0.3630E-02  0.1730E-01
     -2.754  0.5328E-02  0.1772E-01
     -2.675  0.7013E-02  0.1828E-01
     -2.596  0.3316E-02  0.1854E-01
     -2.516  0.2730E-02  0.1876E-01
     -2.437  0.4783E-02  0.1914E-01
     -2.357  0.4940E-02  0.1953E-01
     -2.278  0.1521E-02  0.1965E-01
     -2.199  0.1282E-02  0.1975E-01
     -2.119  0.2520E-02  0.1995E-01
     -2.040  0.1341E-02  0.2006E-01
     -1.961  0.7589E-03  0.2012E-01
     -1.881  0.8344E-03  0.2018E-01
     -1.802  0.1086E-02  0.2027E-01
     -1.722  0.3629E-02  0.2056E-01
     -1.643  0.3949E-02  0.2087E-01
     -1.564  0.2737E-02  0.2109E-01
     -1.484  0.2749E-02  0.2131E-01
     -1.405  0.4244E-02  0.2164E-01
     -1.325  0.8608E-02  0.2233E-01
     -1.246  0.4277E-02  0.2267E-01
     -1.167  0.7692E-02  0.2328E-01
     -1.087  0.1668E-01  0.2460E-01
     -1.008  0.1618E-01  0.2589E-01
     -0.929  0.1089E-01  0.2675E-01
     -0.849  0.9482E-02  0.2750E-01
     -0.770  0.7967E-02  0.2814E-01
     -0.690  0.8362E-02  0.2880E-01
     -0.611  0.6675E-02  0.2933E-01
     -0.532  0.6630E-02  0.2986E-01
     -0.452  0.6953E-02  0.3041E-01
     -0.373  0.5098E-02  0.3081E-01
     -0.293  0.4312E-02  0.3115E-01
     -0.214  0.7474E-02  0.3175E-01
     -0.135  0.3352E-02  0.3201E-01
     -0.055  0.5056E-02  0.3242E-01
      0.024  0.5297E-02  0.3284E-01
      0.103  0.2559E-02  0.3304E-01
      0.183  0.5157E-02  0.3345E-01
      0.262  0.3530E-02  0.3373E-01
      0.342  0.3562E-02  0.3401E-01
      0.421  0.4985E-02  0.3441E-01
      0.500  0.1716E-02  0.3454E-01
      0.580  0.2730E-02  0.3476E-01
      0.659  0.5109E-02  0.3517E-01
      0.738  0.1627E-02  0.3529E-01
      0.818  0.2338E-02  0.3548E-01
      0.897  0.4567E-02  0.3584E-01
      0.977  0.2161E-02  0.3601E-01
      1.056  0.1067E-02  0.3610E-01
      1.135  0.3149E-02  0.3635E-01
      1.215  0.2451E-02  0.3654E-01
      1.294  0.2182E-02  0.3672E-01
      1.374  0.5013E-02  0.3711E-01
      1.453  0.6659E-02  0.3764E-01
      1.532  0.8277E-02  0.3830E-01
      1.612  0.1114E-01  0.3919E-01
      1.691  0.1367E-01  0.4027E-01
      1.770  0.1001E-01  0.4106E-01
      1.850  0.1233E-01  0.4204E-01
      1.929  0.1243E-01  0.4303E-01
      2.009  0.7905E-02  0.4366E-01
      2.088  0.1045E-01  0.4449E-01
      2.167  0.1145E-01  0.4540E-01
      2.247  0.9311E-02  0.4614E-01
      2.326  0.1080E-01  0.4699E-01
      2.405  0.1227E-01  0.4797E-01
      2.485  0.1255E-01  0.4896E-01
      2.564  0.8561E-02  0.4964E-01
      2.644  0.1264E-01  0.5065E-01
      2.723  0.1327E-01  0.5170E-01
      2.802  0.1411E-01  0.5282E-01
      2.882  0.1373E-01  0.5391E-01
      2.961  0.1571E-01  0.5516E-01
      3.041  0.1786E-01  0.5658E-01
      3.120  0.1485E-01  0.5775E-01
      3.199  0.1155E-01  0.5867E-01
      3.279  0.1237E-01  0.5965E-01
      3.358  0.1966E-01  0.6121E-01
      3.437  0.1493E-01  0.6240E-01
      3.517  0.9951E-02  0.6319E-01
      3.596  0.1368E-01  0.6428E-01
      3.676  0.1509E-01  0.6547E-01
      3.755  0.1236E-01  0.6645E-01
      3.834  0.1286E-01  0.6748E-01
      3.914  0.1457E-01  0.6863E-01
      3.993  0.1117E-01  0.6952E-01
      4.073  0.1166E-01  0.7044E-01
      4.152  0.1177E-01  0.7138E-01
      4.231  0.1316E-01  0.7242E-01
      4.311  0.1228E-01  0.7340E-01
      4.390  0.1104E-01  0.7427E-01
      4.469  0.1050E-01  0.7511E-01
      4.549  0.9332E-02  0.7585E-01
      4.628  0.7011E-02  0.7641E-01
      4.708  0.7358E-02  0.7699E-01
      4.787  0.6034E-02  0.7747E-01
      4.866  0.4928E-02  0.7786E-01
      4.946  0.5799E-02  0.7832E-01
      5.025  0.3910E-02  0.7863E-01
      5.104  0.3631E-02  0.7892E-01
      5.184  0.3179E-02  0.7917E-01
      5.263  0.2279E-02  0.7935E-01
      5.343  0.3256E-02  0.7961E-01
      5.422  0.2130E-02  0.7978E-01
      5.501  0.1443E-02  0.7989E-01
      5.581  0.8737E-03  0.7996E-01
      5.660  0.4378E-03  0.8000E-01
      5.740  0.2220E-04  0.8000E-01
      5.819  0.4589E-07  0.8000E-01
      5.898  0.1354E-11  0.8000E-01
      5.978  0.2677E-16  0.8000E-01
      6.057  0.3859E-10  0.8000E-01
      6.136  0.4506E-06  0.8000E-01
      6.216  0.6258E-04  0.8001E-01
      6.295  0.4084E-03  0.8004E-01
      6.375  0.1314E-02  0.8014E-01
      6.454  0.1929E-02  0.8029E-01
      6.533  0.2685E-02  0.8051E-01
      6.613  0.3128E-02  0.8076E-01
      6.692  0.4443E-02  0.8111E-01
      6.771  0.4551E-02  0.8147E-01
      6.851  0.4813E-02  0.8185E-01
      6.930  0.3999E-02  0.8217E-01
      7.010  0.5309E-02  0.8259E-01
      7.089  0.6261E-02  0.8309E-01
      7.168  0.6667E-02  0.8362E-01
      7.248  0.9184E-02  0.8435E-01
      7.327  0.7712E-02  0.8496E-01
      7.407  0.8895E-02  0.8566E-01
      7.486  0.1136E-01  0.8657E-01
      7.565  0.1009E-01  0.8737E-01
      7.645  0.8932E-02  0.8808E-01
      7.724  0.1206E-01  0.8903E-01
      7.803  0.1617E-01  0.9032E-01
      7.883  0.1711E-01  0.9168E-01
      7.962  0.1757E-01  0.9307E-01
      8.042  0.1636E-01  0.9437E-01
      8.121  0.1388E-01  0.9547E-01
      8.200  0.1535E-01  0.9669E-01
      8.280  0.1131E-01  0.9759E-01
      8.359  0.1426E-01  0.9872E-01
      8.439  0.1180E-01  0.9966E-01
      8.518  0.8785E-02  0.1004E+00
      8.597  0.8516E-02  0.1010E+00
      8.677  0.1345E-01  0.1021E+00
      8.756  0.1054E-01  0.1029E+00
      8.835  0.1431E-01  0.1041E+00
      8.915  0.1973E-01  0.1056E+00
      8.994  0.2710E-01  0.1078E+00
      9.074  0.1893E-01  0.1093E+00
      9.153  0.1835E-01  0.1107E+00
      9.232  0.1591E-01  0.1120E+00
      9.312  0.1489E-01  0.1132E+00
      9.391  0.1641E-01  0.1145E+00
      9.470  0.1421E-01  0.1156E+00
      9.550  0.1771E-01  0.1170E+00
      9.629  0.1380E-01  0.1181E+00
      9.709  0.1200E-01  0.1191E+00
      9.788  0.1748E-01  0.1205E+00
      9.867  0.1313E-01  0.1215E+00
      9.947  0.8847E-02  0.1222E+00
     10.026  0.9528E-02  0.1230E+00
     10.106  0.1372E-01  0.1241E+00
     10.185  0.1299E-01  0.1251E+00
     10.264  0.1163E-01  0.1260E+00
     10.344  0.1508E-01  0.1272E+00
     10.423  0.1156E-01  0.1281E+00
     10.502  0.1742E-01  0.1295E+00
     10.582  0.1387E-01  0.1306E+00
     10.661  0.1072E-01  0.1315E+00
     10.741  0.9113E-02  0.1322E+00
     10.820  0.1269E-01  0.1332E+00
     10.899  0.1287E-01  0.1342E+00
     10.979  0.8779E-02  0.1349E+00
     11.058  0.1310E-01  0.1359E+00
     11.138  0.1123E-01  0.1368E+00
     11.217  0.1241E-01  0.1378E+00
     11.296  0.1211E-01  0.1388E+00
     11.376  0.1418E-01  0.1399E+00
     11.455  0.1143E-01  0.1408E+00
     11.534  0.8672E-02  0.1415E+00
     11.614  0.7862E-02  0.1421E+00
     11.693  0.9121E-02  0.1429E+00
     11.773  0.8453E-02  0.1435E+00
     11.852  0.8717E-02  0.1442E+00
     11.931  0.9937E-02  0.1450E+00
     12.011  0.1069E-01  0.1459E+00
     12.090  0.9527E-02  0.1466E+00
     12.169  0.1407E-01  0.1477E+00
     12.249  0.1546E-01  0.1490E+00
     12.328  0.7730E-02  0.1496E+00
     12.408  0.4809E-02  0.1500E+00
     12.487  0.5446E-02  0.1504E+00
     12.566  0.6075E-02  0.1509E+00
     12.646  0.4191E-02  0.1512E+00
     12.725  0.5434E-02  0.1516E+00
     12.805  0.8025E-02  0.1523E+00
     12.884  0.6810E-02  0.1528E+00
     12.963  0.8533E-02  0.1535E+00
     13.043  0.7874E-02  0.1541E+00
     13.122  0.1170E-01  0.1550E+00
     13.201  0.6088E-02  0.1555E+00
     13.281  0.2788E-02  0.1557E+00
     13.360  0.4492E-02  0.1561E+00
     13.440  0.4541E-02  0.1565E+00
     13.519  0.3643E-02  0.1567E+00
     13.598  0.3712E-02  0.1570E+00
     13.678  0.4089E-02  0.1574E+00
     13.757  0.4263E-02  0.1577E+00
     13.836  0.1644E-02  0.1578E+00
     13.916  0.4552E-02  0.1582E+00
     13.995  0.6932E-02  0.1587E+00
     14.075  0.2018E-02  0.1589E+00
     14.154  0.1392E-03  0.1589E+00
     14.233  0.4799E-03  0.1590E+00
     14.313  0.3309E-03  0.1590E+00
     14.392  0.1196E-02  0.1591E+00
     14.472  0.5285E-03  0.1591E+00
     14.551  0.2108E-02  0.1593E+00
     14.630  0.1427E-02  0.1594E+00
     14.710  0.6491E-03  0.1595E+00
     14.789  0.2110E-02  0.1596E+00
     14.868  0.2522E-02  0.1598E+00
     14.948  0.6034E-03  0.1599E+00
     15.027  0.1674E-04  0.1599E+00
     15.107  0.8978E-08  0.1599E+00
     15.186  0.3975E-05  0.1599E+00
     15.265  0.2559E-03  0.1599E+00
     15.345  0.5210E-03  0.1599E+00
     15.424  0.5460E-03  0.1600E+00
     15.504  0.2803E-03  0.1600E+00
     15.583  0.2501E-04  0.1600E+00
     15.662  0.3897E-07  0.1600E+00
     15.742  0.5277E-12  0.1600E+00
     15.821  0.7249E-19  0.1600E+00
     15.900  0.0000E+00  0.1600E+00
     15.980  0.0000E+00  0.1600E+00
     16.059  0.0000E+00  0.1600E+00
     16.139  0.0000E+00  0.1600E+00
     16.218  0.0000E+00  0.1600E+00
     16.297  0.0000E+00  0.1600E+00
     16.377  0.0000E+00  0.1600E+00
     16.456  0.0000E+00  0.1600E+00
     16.535  0.0000E+00  0.1600E+00
