    2    2  100    1
  0.2016476E+02  0.3849278E-09  0.3849279E-09  0.3849278E-09  0.5000000E-15
  1.000000000000000E-004
  CAR 
 unknown system                          
      8    286      8
 
  0.0000000E+00  0.0000000E+00  0.0000000E+00  0.1079797E-03
    1       -6.196622   1.000000
    2        5.623565   1.000000
    3        5.623565   1.000000
    4        5.623568   1.000000
    5        8.181288   0.000000
    6        8.181295   0.000000
    7        8.181296   0.000000
    8        8.764139   0.000000
 
  0.4761905E-01  0.0000000E+00  0.0000000E+00  0.8638376E-03
    1       -6.167384   1.000000
    2        5.295016   1.000000
    3        5.574461   1.000000
    4        5.574464   1.000000
    5        8.226481   0.000000
    6        8.253398   0.000000
    7        8.253405   0.000000
    8        8.997526   0.000000
 
  0.9523810E-01  0.0000000E+00  0.0000000E+00  0.8638376E-03
    1       -6.079887   1.000000
    2        4.564228   1.000000
    3        5.445499   1.000000
    4        5.445501   1.000000
    5        8.161892   0.000000
    6        8.444481   0.000000
    7        8.444489   0.000000
    8        9.654942   0.000000
 
  0.1428571E+00 -0.6938894E-17  0.0000000E+00  0.8638376E-03
    1       -5.935120   1.000000
    2        3.703017   1.000000
    3        5.273854   1.000000
    4        5.273857   1.000000
    5        8.004543   0.000000
    6        8.693480   0.000000
    7        8.693487   0.000000
    8       10.479137   0.000000
 
  0.1904762E+00  0.0000000E+00  0.0000000E+00  0.8638376E-03
    1       -5.734799   1.000000
    2        2.816623   1.000000
    3        5.091373   1.000000
    4        5.091375   1.000000
    5        7.817086   0.000000
    6        8.930176   0.000000
    7        8.930183   0.000000
    8       11.336966   0.000000
 
  0.2380952E+00  0.0000000E+00  0.0000000E+00  0.8638376E-03
    1       -5.482074   1.000000
    2        1.947285   1.000000
    3        4.918153   1.000000
    4        4.918156   1.000000
    5        7.630374   0.000000
    6        9.091805   0.000000
    7        9.091813   0.000000
    8       12.178159   0.000000
 
  0.2857143E+00 -0.1387779E-16  0.0000000E+00  0.8638376E-03
    1       -5.182347   1.000000
    2        1.118930   1.000000
    3        4.765686   1.000000
    4        4.765688   1.000000
    5        7.460938   0.000000
    6        9.150766   0.000000
    7        9.150774   0.000000
    8       12.940754   0.000000
 
  0.3333333E+00  0.1387779E-16  0.0000000E+00  0.8638376E-03
    1       -4.845692   1.000000
    2        0.351472   1.000000
    3        4.640101   1.000000
    4        4.640104   1.000000
    5        7.318898   0.000000
    6        9.129162   0.000000
    7        9.129171   0.000000
    8       13.410709   0.000000
 
  0.3809524E+00  0.0000000E+00  0.0000000E+00  0.8638376E-03
    1       -4.492101   1.000000
    2       -0.329114   1.000000
    3        4.544478   1.000000
    4        4.544481   1.000000
    5        7.209349   0.000000
    6        9.070890   0.000000
    7        9.070899   0.000000
    8       13.457857   0.000000
 
  0.4285714E+00  0.2775558E-16  0.0000000E+00  0.8638376E-03
    1       -4.164168   1.000000
    2       -0.876759   1.000000
    3        4.480263   1.000000
    4        4.480266   1.000000
    5        7.135358   0.000000
    6        9.013471   0.000000
    7        9.013479   0.000000
    8       13.385839   0.000000
 
  0.4761905E+00  0.2775558E-16  0.0000000E+00  0.8638376E-03
    1       -3.947240   1.000000
    2       -1.204034   1.000000
    3        4.448040   1.000000
    4        4.448043   1.000000
    5        7.097941   0.000000
    6        8.979537   0.000000
    7        8.979545   0.000000
    8       13.334673   0.000000
 
  0.4761905E-01  0.4761905E-01  0.0000000E+00  0.6478782E-03
    1       -6.157617   1.000000
    2        5.360031   1.000000
    3        5.467468   1.000000
    4        5.467469   1.000000
    5        8.087162   0.000000
    6        8.385797   0.000000
    7        8.385802   0.000000
    8        9.019561   0.000000
 
  0.9523810E-01  0.4761905E-01  0.0000000E+00  0.2591513E-02
    1       -6.089483   1.000000
    2        4.780270   1.000000
    3        5.298802   1.000000
    4        5.417033   1.000000
    5        8.078326   0.000000
    6        8.465276   0.000000
    7        8.621848   0.000000
    8        9.499085   0.000000
 
  0.1428571E+00  0.4761905E-01  0.0000000E+00  0.2591513E-02
    1       -5.963715   1.000000
    2        3.969332   1.000000
    3        5.105530   1.000000
    4        5.303382   1.000000
    5        8.132368   0.000000
    6        8.458670   0.000000
    7        8.903317   0.000000
    8       10.237955   0.000000
 
  0.1904762E+00  0.4761905E-01  0.0000000E+00  0.2591513E-02
    1       -5.781721   1.000000
    2        3.099914   1.000000
    3        4.914904   1.000000
    4        5.135295   1.000000
    5        8.045209   0.000000
    6        8.608025   0.000000
    7        9.166781   0.000000
    8       10.969586   0.000000
 
  0.2380952E+00  0.4761905E-01  0.0000000E+00  0.2591513E-02
    1       -5.546103   1.000000
    2        2.231182   1.000000
    3        4.743370   1.000000
    4        4.948236   1.000000
    5        7.883499   0.000000
    6        8.801775   0.000000
    7        9.350580   0.000000
    8       11.518193   0.000000
 
  0.2857143E+00  0.4761905E-01  0.0000000E+00  0.2591513E-02
    1       -5.261325   1.000000
    2        1.393103   1.000000
    3        4.600066   1.000000
    4        4.764858   1.000000
    5        7.718684   0.000000
    6        8.925388   0.000000
    7        9.420380   0.000000
    8       11.925044   0.000000
 
  0.3333333E+00  0.4761905E-01  0.0000000E+00  0.2591513E-02
    1       -4.935486   1.000000
    2        0.607079   1.000000
    3        4.489946   1.000000
    4        4.598059   1.000000
    5        7.572736   0.000000
    6        8.961090   0.000000
    7        9.390636   0.000000
    8       12.396436   0.000000
 
  0.3809524E+00  0.4761905E-01  0.0000000E+00  0.2591513E-02
    1       -4.584312   1.000000
    2       -0.103553   1.000000
    3        4.415200   1.000000
    4        4.454983   1.000000
    5        7.454895   0.000000
    6        8.945255   0.000000
    7        9.305360   0.000000
    8       12.940406   0.000000
 
  0.4285714E+00  0.4761905E-01  0.0000000E+00  0.2591513E-02
    1       -4.240720   1.000000
    2       -0.701219   1.000000
    3        4.339847   1.000000
    4        4.376424   1.000000
    5        7.369914   0.000000
    6        8.920885   0.000000
    7        9.206733   0.000000
    8       13.335114   0.000000
 
  0.4761905E+00  0.4761905E-01  0.0000000E+00  0.2591513E-02
    1       -3.974023   1.000000
    2       -1.113961   1.000000
    3        4.255435   1.000000
    4        4.373182   1.000000
    5        7.320192   0.000000
    6        8.916425   0.000000
    7        9.122829   0.000000
    8       13.425229   0.000000
 
 -0.4761905E+00  0.4761905E-01  0.0000000E+00  0.2591513E-02
    1       -3.893627   1.000000
    2       -1.230901   1.000000
    3        4.203719   1.000000
    4        4.404434   1.000000
    5        7.306672   0.000000
    6        8.945240   0.000000
    7        9.068377   0.000000
    8       13.437825   0.000000
 
 -0.4285714E+00  0.4761905E-01  0.0000000E+00  0.2591513E-02
    1       -4.048168   1.000000
    2       -1.003083   1.000000
    3        4.186468   1.000000
    4        4.468623   1.000000
    5        7.329842   0.000000
    6        9.009895   0.000000
    7        9.047707   0.000000
    8       13.454528   0.000000
 
 -0.3809524E+00  0.4761905E-01  0.0000000E+00  0.2591513E-02
    1       -4.351380   1.000000
    2       -0.517460   1.000000
    3        4.204973   1.000000
    4        4.563800   1.000000
    5        7.389301   0.000000
    6        9.054962   0.000000
    7        9.102792   0.000000
    8       13.427449   0.000000
 
 -0.3333333E+00  0.4761905E-01  0.0000000E+00  0.2591513E-02
    1       -4.702927   1.000000
    2        0.123708   1.000000
    3        4.260239   1.000000
    4        4.687551   1.000000
    5        7.484073   0.000000
    6        9.072530   0.000000
    7        9.204625   0.000000
    8       13.174061   0.000000
 
 -0.2857143E+00  0.4761905E-01  0.0000000E+00  0.2591513E-02
    1       -5.048127   1.000000
    2        0.862540   1.000000
    3        4.352605   1.000000
    4        4.836468   1.000000
    5        7.611553   0.000000
    6        9.067751   0.000000
    7        9.280346   0.000000
    8       12.673303   0.000000
 
 -0.2380952E+00  0.4761905E-01  0.0000000E+00  0.2591513E-02
    1       -5.361505   1.000000
    2        1.667765   1.000000
    3        4.481434   1.000000
    4        5.005290   1.000000
    5        7.767380   0.000000
    6        8.999262   0.000000
    7        9.279709   0.000000
    8       12.110974   0.000000
 
 -0.1904762E+00  0.4761905E-01  0.0000000E+00  0.2591513E-02
    1       -5.630522   1.000000
    2        2.517207   1.000000
    3        4.644621   1.000000
    4        5.185084   1.000000
    5        7.943035   0.000000
    6        8.842290   0.000000
    7        9.158185   0.000000
    8       11.499142   0.000000
 
 -0.1428571E+00  0.4761905E-01  0.0000000E+00  0.2591513E-02
    1       -5.848619   1.000000
    2        3.386163   1.000000
    3        4.838028   1.000000
    4        5.360503   1.000000
    5        8.123397   0.000000
    6        8.621307   0.000000
    7        8.918822   0.000000
    8       10.793971   0.000000
 
 -0.9523810E-01  0.4761905E-01  0.0000000E+00  0.2591513E-02
    1       -6.012050   1.000000
    2        4.231235   1.000000
    3        5.056729   1.000000
    4        5.506476   1.000000
    5        8.279980   0.000000
    6        8.402628   0.000000
    7        8.620350   0.000000
    8       10.040318   0.000000
 
 -0.4761905E-01  0.4761905E-01  0.0000000E+00  0.1295756E-02
    1       -6.118696   1.000000
    2        4.938635   1.000000
    3        5.311079   1.000000
    4        5.587740   1.000000
    5        8.261734   0.000000
    6        8.326821   0.000000
    7        8.375601   0.000000
    8        9.365178   0.000000
 
  0.9523810E-01  0.9523810E-01  0.0000000E+00  0.6478782E-03
    1       -6.040732   1.000000
    2        4.740548   1.000000
    3        5.103355   1.000000
    4        5.103355   1.000000
    5        7.840180   0.000000
    6        8.893908   0.000000
    7        8.893912   0.000000
    8        9.563972   0.000000
 
  0.1428571E+00  0.9523810E-01  0.0000000E+00  0.2591513E-02
    1       -5.934122   1.000000
    2        4.128149   1.000000
    3        4.894033   1.000000
    4        4.996176   1.000000
    5        7.789240   0.000000
    6        8.983387   0.000000
    7        9.208624   0.000000
    8       10.045747   0.000000
 
  0.1904762E+00  0.9523810E-01  0.0000000E+00  0.2591513E-02
    1       -5.770790   1.000000
    2        3.329433   1.000000
    3        4.694976   1.000000
    4        4.862649   1.000000
    5        7.882838   0.000000
    6        8.912924   0.000000
    7        9.507888   0.000000
    8       10.527575   0.000000
 
  0.2380952E+00  0.9523810E-01  0.0000000E+00  0.2591513E-02
    1       -5.552881   1.000000
    2        2.492734   1.000000
    3        4.520520   1.000000
    4        4.674198   1.000000
    5        7.985889   0.000000
    6        8.880531   0.000000
    7        9.730521   0.000000
    8       10.751456   0.000000
 
  0.2857143E+00  0.9523810E-01  0.0000000E+00  0.2591513E-02
    1       -5.284071   1.000000
    2        1.665441   1.000000
    3        4.378976   1.000000
    4        4.465548   1.000000
    5        7.990821   0.000000
    6        8.918648   0.000000
    7        9.832207   0.000000
    8       10.939712   0.000000
 
  0.3333333E+00  0.9523810E-01  0.0000000E+00  0.2591513E-02
    1       -4.970885   1.000000
    2        0.875545   1.000000
    3        4.260857   1.000000
    4        4.274994   1.000000
    5        7.918826   0.000000
    6        8.950362   0.000000
    7        9.815379   0.000000
    8       11.294223   0.000000
 
  0.3809524E+00  0.9523810E-01  0.0000000E+00  0.2591513E-02
    1       -4.625729   1.000000
    2        0.147183   1.000000
    3        4.073969   1.000000
    4        4.210653   1.000000
    5        7.829196   0.000000
    6        8.940396   0.000000
    7        9.721406   0.000000
    8       11.833517   0.000000
 
  0.4285714E+00  0.9523810E-01  0.0000000E+00  0.2591513E-02
    1       -4.273949   1.000000
    2       -0.487268   1.000000
    3        3.912888   1.000000
    4        4.186555   1.000000
    5        7.754116   0.000000
    6        8.916981   0.000000
    7        9.596934   0.000000
    8       12.490313   0.000000
 
  0.4761905E+00  0.9523810E-01  0.0000000E+00  0.2591513E-02
    1       -3.970193   1.000000
    2       -0.969094   1.000000
    3        3.782756   1.000000
    4        4.202104   1.000000
    5        7.707171   0.000000
    6        8.910550   0.000000
    7        9.475370   0.000000
    8       13.153721   0.000000
 
 -0.4761905E+00  0.9523810E-01  0.0000000E+00  0.2591513E-02
    1       -3.815554   1.000000
    2       -1.194875   1.000000
    3        3.687338   1.000000
    4        4.255835   1.000000
    5        7.693985   0.000000
    6        8.937570   0.000000
    7        9.375769   0.000000
    8       13.595856   0.000000
 
 -0.4285714E+00  0.9523810E-01  0.0000000E+00  0.2591513E-02
    1       -3.897254   1.000000
    2       -1.076655   1.000000
    3        3.629661   1.000000
    4        4.345448   1.000000
    5        7.715788   0.000000
    6        9.003515   0.000000
    7        9.306039   0.000000
    8       13.685207   0.000000
 
 -0.3809524E+00  0.9523810E-01  0.0000000E+00  0.2591513E-02
    1       -4.165312   1.000000
    2       -0.664880   1.000000
    3        3.612254   1.000000
    4        4.467757   1.000000
    5        7.772147   0.000000
    6        9.104510   0.000000
    7        9.263924   0.000000
    8       13.481298   0.000000
 
 -0.3333333E+00  0.9523810E-01  0.0000000E+00  0.2591513E-02
    1       -4.509391   1.000000
    2       -0.071976   1.000000
    3        3.637517   1.000000
    4        4.618674   1.000000
    5        7.861244   0.000000
    6        9.225815   0.000000
    7        9.235938   0.000000
    8       12.993666   0.000000
 
 -0.2857143E+00  0.9523810E-01  0.0000000E+00  0.2591513E-02
    1       -4.860409   1.000000
    2        0.628952   1.000000
    3        3.707541   1.000000
    4        4.792499   1.000000
    5        7.980044   0.000000
    6        9.193634   0.000000
    7        9.334621   0.000000
    8       12.403828   0.000000
 
 -0.2380952E+00  0.9523810E-01  0.0000000E+00  0.2591513E-02
    1       -5.185789   1.000000
    2        1.397671   1.000000
    3        3.825073   1.000000
    4        4.980867   1.000000
    5        8.123528   0.000000
    6        9.097573   0.000000
    7        9.371999   0.000000
    8       11.865351   0.000000
 
 -0.1904762E+00  0.9523810E-01  0.0000000E+00  0.2591513E-02
    1       -5.470037   1.000000
    2        2.203797   1.000000
    3        3.995053   1.000000
    4        5.170999   1.000000
    5        8.282382   0.000000
    6        8.924136   0.000000
    7        9.264074   0.000000
    8       11.437903   0.000000
 
 -0.1428571E+00  0.9523810E-01  0.0000000E+00  0.2591513E-02
    1       -5.705116   1.000000
    2        3.006608   1.000000
    3        4.231596   1.000000
    4        5.342718   1.000000
    5        8.438809   0.000000
    6        8.701666   0.000000
    7        8.993685   0.000000
    8       11.053749   0.000000
 
 -0.9523810E-01  0.9523810E-01  0.0000000E+00  0.1295756E-02
    1       -5.886654   1.000000
    2        3.721425   1.000000
    3        4.576170   1.000000
    4        5.466058   1.000000
    5        8.502570   0.000000
    6        8.525155   0.000000
    7        8.673206   0.000000
    8       10.575295   0.000000
 
  0.1428571E+00  0.1428571E+00  0.0000000E+00  0.6478782E-03
    1       -5.846612   1.000000
    2        3.975565   1.000000
    3        4.672997   1.000000
    4        4.672997   1.000000
    5        7.512214   0.000000
    6        9.560830   0.000000
    7        9.560833   0.000000
    8        9.918318   0.000000
 
  0.1904762E+00  0.1428571E+00  0.0000000E+00  0.2591513E-02
    1       -5.702074   1.000000
    2        3.401522   1.000000
    3        4.465242   1.000000
    4        4.507241   1.000000
    5        7.450781   0.000000
    6        9.575468   0.000000
    7        9.906315   0.000000
    8       10.133022   0.000000
 
  0.2380952E+00  0.1428571E+00  0.0000000E+00  0.2591513E-02
    1       -5.502273   1.000000
    2        2.665207   1.000000
    3        4.284588   1.000000
    4        4.320690   1.000000
    5        7.557226   0.000000
    6        9.465366   0.000000
    7       10.184148   0.000000
    8       10.209545   0.000000
 
  0.2857143E+00  0.1428571E+00  0.0000000E+00  0.2591513E-02
    1       -5.250187   1.000000
    2        1.889492   1.000000
    3        4.090940   1.000000
    4        4.139264   1.000000
    5        7.700370   0.000000
    6        9.453990   0.000000
    7       10.188011   0.000000
    8       10.339274   0.000000
 
  0.3333333E+00  0.1428571E+00  0.0000000E+00  0.2591513E-02
    1       -4.951106   1.000000
    2        1.122992   1.000000
    3        3.849224   1.000000
    4        4.034054   1.000000
    5        7.774661   0.000000
    6        9.497840   0.000000
    7       10.312145   0.000000
    8       10.357853   0.000000
 
  0.3809524E+00  0.1428571E+00  0.0000000E+00  0.2591513E-02
    1       -4.614821   1.000000
    2        0.397046   1.000000
    3        3.618418   1.000000
    4        3.971354   1.000000
    5        7.777216   0.000000
    6        9.471690   0.000000
    7       10.274619   0.000000
    8       10.733603   0.000000
 
  0.4285714E+00  0.1428571E+00  0.0000000E+00  0.2591513E-02
    1       -4.260869   1.000000
    2       -0.256418   1.000000
    3        3.411844   1.000000
    4        3.951891   1.000000
    5        7.757633   0.000000
    6        9.404513   0.000000
    7       10.140592   0.000000
    8       11.374383   0.000000
 
  0.4761905E+00  0.1428571E+00  0.0000000E+00  0.2591513E-02
    1       -3.931509   1.000000
    2       -0.788006   1.000000
    3        3.237472   1.000000
    4        3.975334   1.000000
    5        7.752723   0.000000
    6        9.346804   0.000000
    7        9.995397   0.000000
    8       12.136027   0.000000
 
 -0.4761905E+00  0.1428571E+00  0.0000000E+00  0.2591513E-02
    1       -3.713397   1.000000
    2       -1.106942   1.000000
    3        3.100783   1.000000
    4        4.040381   1.000000
    5        7.780090   0.000000
    6        9.318886   0.000000
    7        9.862921   0.000000
    8       12.954447   0.000000
 
 -0.4285714E+00  0.1428571E+00  0.0000000E+00  0.2591513E-02
    1       -3.716252   1.000000
    2       -1.101868   1.000000
    3        3.006040   1.000000
    4        4.144570   1.000000
    5        7.844606   0.000000
    6        9.328015   0.000000
    7        9.754211   0.000000
    8       13.723810   0.000000
 
 -0.3809524E+00  0.1428571E+00  0.0000000E+00  0.2591513E-02
    1       -3.938057   1.000000
    2       -0.775193   1.000000
    3        2.957156   1.000000
    4        4.284416   1.000000
    5        7.945207   0.000000
    6        9.375007   0.000000
    7        9.669937   0.000000
    8       13.544528   0.000000
 
 -0.3333333E+00  0.1428571E+00  0.0000000E+00  0.2591513E-02
    1       -4.268379   1.000000
    2       -0.240181   1.000000
    3        2.958282   1.000000
    4        4.454822   1.000000
    5        8.075930   0.000000
    6        9.452176   0.000000
    7        9.598142   0.000000
    8       12.870842   0.000000
 
 -0.2857143E+00  0.1428571E+00  0.0000000E+00  0.2591513E-02
    1       -4.621948   1.000000
    2        0.411111   1.000000
    3        3.015109   1.000000
    4        4.648426   1.000000
    5        8.228173   0.000000
    6        9.511354   0.000000
    7        9.534159   0.000000
    8       12.197405   0.000000
 
 -0.2380952E+00  0.1428571E+00  0.0000000E+00  0.2591513E-02
    1       -4.957339   1.000000
    2        1.123096   1.000000
    3        3.137879   1.000000
    4        4.854448   1.000000
    5        8.389909   0.000000
    6        9.369362   0.000000
    7        9.558652   0.000000
    8       11.637315   0.000000
 
 -0.1904762E+00  0.1428571E+00  0.0000000E+00  0.2591513E-02
    1       -5.255368   1.000000
    2        1.844857   1.000000
    3        3.349798   1.000000
    4        5.056697   1.000000
    5        8.540381   0.000000
    6        9.152922   0.000000
    7        9.427190   0.000000
    8       11.297201   0.000000
 
 -0.1428571E+00  0.1428571E+00  0.0000000E+00  0.1295756E-02
    1       -5.506376   1.000000
    2        2.499761   1.000000
    3        3.700797   1.000000
    4        5.230512   1.000000
    5        8.617870   0.000000
    6        8.903322   0.000000
    7        9.150749   0.000000
    8       11.168725   0.000000
 
  0.1904762E+00  0.1904762E+00  0.0000000E+00  0.6478782E-03
    1       -5.576251   1.000000
    2        3.156019   1.000000
    3        4.248863   1.000000
    4        4.248864   1.000000
    5        7.167491   0.000000
    6        9.600960   0.000000
    7       10.311824   0.000000
    8       10.311826   0.000000
 
  0.2380952E+00  0.1904762E+00  0.0000000E+00  0.2591513E-02
    1       -5.394685   1.000000
    2        2.627538   1.000000
    3        4.044491   1.000000
    4        4.060035   1.000000
    5        7.117067   0.000000
    6        9.329520   0.000000
    7       10.564490   0.000000
    8       10.663887   0.000000
 
  0.2857143E+00  0.1904762E+00  0.0000000E+00  0.2591513E-02
    1       -5.159813   1.000000
    2        1.974204   1.000000
    3        3.792753   1.000000
    4        3.907471   1.000000
    5        7.239629   0.000000
    6        9.194589   0.000000
    7       10.576138   0.000000
    8       10.897686   0.000000
 
  0.3333333E+00  0.1904762E+00  0.0000000E+00  0.2591513E-02
    1       -4.875935   1.000000
    2        1.280874   1.000000
    3        3.506559   1.000000
    4        3.796135   1.000000
    5        7.388705   0.000000
    6        9.295170   0.000000
    7       10.481298   0.000000
    8       10.977720   0.000000
 
  0.3809524E+00  0.1904762E+00  0.0000000E+00  0.2591513E-02
    1       -4.550753   1.000000
    2        0.593790   1.000000
    3        3.221389   1.000000
    4        3.728885   1.000000
    5        7.465873   0.000000
    6        9.674205   0.000000
    7       10.357795   0.000000
    8       10.926887   0.000000
 
  0.4285714E+00  0.1904762E+00  0.0000000E+00  0.2591513E-02
    1       -4.199353   1.000000
    2       -0.050134   1.000000
    3        2.959698   1.000000
    4        3.706847   1.000000
    5        7.489397   0.000000
    6       10.235505   0.000000
    7       10.279431   0.000000
    8       10.799533   0.000000
 
  0.4761905E+00  0.1904762E+00  0.0000000E+00  0.2591513E-02
    1       -3.854047   1.000000
    2       -0.605377   1.000000
    3        2.733844   1.000000
    4        3.729994   1.000000
    5        7.511585   0.000000
    6       10.138026   0.000000
    7       10.643595   0.000000
    8       11.027103   0.000000
 
 -0.4761905E+00  0.1904762E+00  0.0000000E+00  0.2591513E-02
    1       -3.585405   1.000000
    2       -0.993722   1.000000
    3        2.551234   1.000000
    4        3.797293   1.000000
    5        7.563657   0.000000
    6       10.065909   0.000000
    7       10.489208   0.000000
    8       11.872638   0.000000
 
 -0.4285714E+00  0.1904762E+00  0.0000000E+00  0.2591513E-02
    1       -3.509590   1.000000
    2       -1.095538   1.000000
    3        2.417463   1.000000
    4        3.906564   1.000000
    5        7.657248   0.000000
    6       10.025418   0.000000
    7       10.351140   0.000000
    8       12.778848   0.000000
 
 -0.3809524E+00  0.1904762E+00  0.0000000E+00  0.2591513E-02
    1       -3.674994   1.000000
    2       -0.862629   1.000000
    3        2.338165   1.000000
    4        4.054250   1.000000
    5        7.793836   0.000000
    6       10.017237   0.000000
    7       10.231003   0.000000
    8       13.547651   0.000000
 
 -0.3333333E+00  0.1904762E+00  0.0000000E+00  0.2591513E-02
    1       -3.984876   1.000000
    2       -0.396705   1.000000
    3        2.320816   1.000000
    4        4.235080   1.000000
    5        7.967562   0.000000
    6       10.035441   0.000000
    7       10.116045   0.000000
    8       12.784249   0.000000
 
 -0.2857143E+00  0.1904762E+00  0.0000000E+00  0.2591513E-02
    1       -4.337238   1.000000
    2        0.187038   1.000000
    3        2.378442   1.000000
    4        4.441108   1.000000
    5        8.166146   0.000000
    6        9.973406   0.000000
    7       10.056287   0.000000
    8       12.056673   0.000000
 
 -0.2380952E+00  0.1904762E+00  0.0000000E+00  0.2591513E-02
    1       -4.680172   1.000000
    2        0.807181   1.000000
    3        2.537386   1.000000
    4        4.660449   1.000000
    5        8.367499   0.000000
    6        9.757382   0.000000
    7       10.004163   0.000000
    8       11.493714   0.000000
 
 -0.1904762E+00  0.1904762E+00  0.0000000E+00  0.1295756E-02
    1       -4.990031   1.000000
    2        1.383018   1.000000
    3        2.847044   1.000000
    4        4.874716   1.000000
    5        8.527804   0.000000
    6        9.461321   0.000000
    7        9.758425   0.000000
    8       11.251459   0.000000
 
  0.2380952E+00  0.2380952E+00  0.0000000E+00  0.6478782E-03
    1       -5.231172   1.000000
    2        2.316074   1.000000
    3        3.862117   1.000000
    4        3.862118   1.000000
    5        6.848146   0.000000
    6        8.935961   0.000000
    7       11.112096   0.000000
    8       11.112097   0.000000
 
  0.2857143E+00  0.2380952E+00  0.0000000E+00  0.2591513E-02
    1       -5.013706   1.000000
    2        1.825323   1.000000
    3        3.640129   1.000000
    4        3.700240   1.000000
    5        6.821748   0.000000
    6        8.657448   0.000000
    7       11.358085   0.000000
    8       11.456803   0.000000
 
  0.3333333E+00  0.2380952E+00  0.0000000E+00  0.2591513E-02
    1       -4.745747   1.000000
    2        1.252764   1.000000
    3        3.331871   1.000000
    4        3.579903   1.000000
    5        6.961430   0.000000
    6        8.573025   0.000000
    7       11.371108   0.000000
    8       11.634859   0.000000
 
  0.3809524E+00  0.2380952E+00  0.0000000E+00  0.2591513E-02
    1       -4.433342   1.000000
    2        0.651514   1.000000
    3        2.986723   1.000000
    4        3.504390   1.000000
    5        7.102919   0.000000
    6        8.769541   0.000000
    7       11.288000   0.000000
    8       11.644969   0.000000
 
  0.4285714E+00  0.2380952E+00  0.0000000E+00  0.2591513E-02
    1       -4.088147   1.000000
    2        0.059197   1.000000
    3        2.653466   1.000000
    4        3.475144   1.000000
    5        7.171124   0.000000
    6        9.254029   0.000000
    7       11.178472   0.000000
    8       11.543435   0.000000
 
  0.4761905E+00  0.2380952E+00  0.0000000E+00  0.2591513E-02
    1       -3.734688   1.000000
    2       -0.482287   1.000000
    3        2.358990   1.000000
    4        3.492649   1.000000
    5        7.212343   0.000000
    6        9.934176   0.000000
    7       11.077837   0.000000
    8       11.389744   0.000000
 
 -0.4761905E+00  0.2380952E+00  0.0000000E+00  0.2591513E-02
    1       -3.428504   1.000000
    2       -0.905865   1.000000
    3        2.116903   1.000000
    4        3.556073   1.000000
    5        7.274517   0.000000
    6       10.675800   0.000000
    7       11.060598   0.000000
    8       11.222714   0.000000
 
 -0.4285714E+00  0.2380952E+00  0.0000000E+00  0.2591513E-02
    1       -3.280376   1.000000
    2       -1.095038   1.000000
    3        1.935683   1.000000
    4        3.663540   1.000000
    5        7.378050   0.000000
    6       10.851048   0.000000
    7       11.061412   0.000000
    8       11.718879   0.000000
 
 -0.3809524E+00  0.2380952E+00  0.0000000E+00  0.2591513E-02
    1       -3.382936   1.000000
    2       -0.957519   1.000000
    3        1.823915   1.000000
    4        3.811804   1.000000
    5        7.528204   0.000000
    6       10.824761   0.000000
    7       10.907752   0.000000
    8       12.650478   0.000000
 
 -0.3333333E+00  0.2380952E+00  0.0000000E+00  0.2591513E-02
    1       -3.666663   1.000000
    2       -0.572242   1.000000
    3        1.795269   1.000000
    4        3.995830   1.000000
    5        7.721396   0.000000
    6       10.742133   0.000000
    7       10.801702   0.000000
    8       12.724185   0.000000
 
 -0.2857143E+00  0.2380952E+00  0.0000000E+00  0.2591513E-02
    1       -4.014035   1.000000
    2       -0.081536   1.000000
    3        1.875378   1.000000
    4        4.207753   1.000000
    5        7.946045   0.000000
    6       10.514507   0.000000
    7       10.747958   0.000000
    8       11.997055   0.000000
 
 -0.2380952E+00  0.2380952E+00  0.0000000E+00  0.1295756E-02
    1       -4.361263   1.000000
    2        0.403842   1.000000
    3        2.108911   1.000000
    4        4.435527   1.000000
    5        8.178652   0.000000
    6       10.173715   0.000000
    7       10.503377   0.000000
    8       11.546237   0.000000
 