       N       E                     dE             d eps       ncg     rms          rms(c)
DAV:   1     0.142697080239E+01    0.14270E+01   -0.25874E+03  4600   0.581E+02
DAV:   2    -0.108855555003E+02   -0.12313E+02   -0.11902E+02  7064   0.660E+01
DAV:   3    -0.110209237498E+02   -0.13537E+00   -0.13537E+00  5976   0.893E+00
DAV:   4    -0.110214632870E+02   -0.53954E-03   -0.53954E-03  7224   0.576E-01
DAV:   5    -0.110214636137E+02   -0.32666E-06   -0.32666E-06  6256   0.129E-02    0.486E+00
DAV:   6    -0.108999628297E+02    0.12150E+00   -0.80019E-02  5432   0.147E+00    0.297E+00
DAV:   7    -0.108444130857E+02    0.55550E-01   -0.15209E-01  5888   0.216E+00    0.186E-01
DAV:   8    -0.108454730282E+02   -0.10599E-02   -0.38463E-03  5256   0.462E-01    0.739E-02
DAV:   9    -0.108456646099E+02   -0.19158E-03   -0.18752E-04  6840   0.106E-01    0.570E-02
DAV:  10    -0.108456903830E+02   -0.25773E-04   -0.30805E-05  5368   0.412E-02    0.990E-03
DAV:  11    -0.108456900296E+02    0.35339E-06   -0.55691E-07  6280   0.518E-03
   1 F= -.10845690E+02 E0= -.10845690E+02  d E =-.108457E+02
       N       E                     dE             d eps       ncg     rms          rms(c)
DAV:   1    -0.108494700151E+02   -0.37796E-02   -0.10419E-01  5744   0.181E+00    0.302E-01
DAV:   2    -0.108477038595E+02    0.17662E-02   -0.14750E-03  6224   0.255E-01    0.183E-01
DAV:   3    -0.108467741555E+02    0.92970E-03   -0.19223E-03  5480   0.221E-01    0.606E-02
DAV:   4    -0.108467740499E+02    0.10558E-06   -0.19269E-05  6552   0.392E-02    0.540E-02
DAV:   5    -0.108467678233E+02    0.62266E-05   -0.50666E-06  5440   0.164E-02    0.128E-02
DAV:   6    -0.108467679588E+02   -0.13547E-06   -0.52674E-08  3160   0.216E-03
   2 F= -.10846768E+02 E0= -.10846768E+02  d E =-.107793E-02
       N       E                     dE             d eps       ncg     rms          rms(c)
DAV:   1    -0.108481027940E+02   -0.13350E-02   -0.17496E-02  5656   0.747E-01    0.126E-01
DAV:   2    -0.108478118092E+02    0.29098E-03   -0.24455E-04  6304   0.104E-01    0.758E-02
DAV:   3    -0.108476644997E+02    0.14731E-03   -0.32031E-04  5400   0.905E-02    0.251E-02
DAV:   4    -0.108476651369E+02   -0.63720E-06   -0.32406E-06  6400   0.161E-02    0.225E-02
DAV:   5    -0.108476668354E+02   -0.16985E-05   -0.82460E-07  4936   0.670E-03    0.588E-03
DAV:   6    -0.108476667872E+02    0.48195E-07   -0.10439E-08  2520   0.950E-04
   3 F= -.10847667E+02 E0= -.10847667E+02  d E =-.197676E-02
