 vasp.6.2.0 18Jan21 (build Aug 12 2022 13:00:08) complex                        
  
 executed on             LinuxIFC date 2024.11.03  22:10:08
 running on    4 total cores
 distrk:  each k-point on    4 cores,    1 groups
 distr:  one band on NCORE=   1 cores,    4 groups


--------------------------------------------------------------------------------------------------------


 INCAR:
   ISTART = 0            (Read existing wavefunction, if there)
   ISPIN = 1            (Non-Spin polarised DFT)
   LREAL = .FALSE.       (Projection operators: automatic)
   LWAVE = .FALSE.        (Write WAVECAR or not)
   LCHARG = .FALSE.        (Write CHGCAR or not)
   ADDGRID = .TRUE.        (Increase grid, helps GGA convergence)
   LASPH = .TRUE.        (Give more accurate total energies and band structure calculations)
   PREC = Accurate      (Accurate strictly avoids any aliasing or wrap around errors)
   ENCUT = 350          (Cut-off energy for plane wave basis set, in eV)
   ISMEAR = 0            (Gaussian smearing, metals:1)
   SIGMA = 0.05         (Smearing value in eV, metals:0.2)
   NELM = 90           (Max electronic SCF steps)
   NELMIN = 6            (Min electronic SCF steps)
   EDIFF = 1E-06        (SCF energy convergence, in eV)
   NSW = 100          (Max ionic steps)
   IBRION = 2            (Algorithm: 0-MD, 1-Quasi-New, 2-CG)
   ISIF = 3            (Stress/relaxation: 2-Ions, 3-Shape/Ions/V, 4-Shape/Ions)
   EDIFFG = -2E-03        (Ionic convergence, eV/AA)
   ISYM = 2              (Symmetry: 0\=none, 2\=GGA, 3\=hybrids)

 POTCAR:    PAW_PBE Si 05Jan2001                  
 POTCAR:    PAW_PBE Si 05Jan2001                  
   VRHFIN =Si: s2p2                                                                                 
   LEXCH  = PE                                                                                      
   EATOM  =   103.0669 eV,    7.5752 Ry                                                             
                                                                                                    
   TITEL  = PAW_PBE Si 05Jan2001                                                                    
   LULTRA =        F    use ultrasoft PP ?                                                          
   IUNSCR =        1    unscreen: 0-lin 1-nonlin 2-no                                               
   RPACOR =    1.500    partial core radius                                                         
   POMASS =   28.085; ZVAL   =    4.000    mass and valenz                                          
   RCORE  =    1.900    outmost cutoff radius                                                       
   RWIGS  =    2.480; RWIGS  =    1.312    wigner-seitz radius (au A)                               
   ENMAX  =  245.345; ENMIN  =  184.009 eV                                                          
   ICORE  =        2    local potential                                                             
   LCOR   =        T    correct aug charges                                                         
   LPAW   =        T    paw PP                                                                      
   EAUG   =  322.069                                                                                
   DEXC   =    0.000                                                                                
   RMAX   =    1.950    core radius for proj-oper                                                   
   RAUG   =    1.300    factor for augmentation sphere                                              
   RDEP   =    1.993    radius for radial grids                                                     
   RDEPT  =    1.837    core radius for aug-charge                                                  
                                                                                                    
   Atomic configuration                                                                             
    6 entries                                                                                       
     n  l   j            E        occ.                                                              
     1  0  0.50     -1785.8828   2.0000                                                             
     2  0  0.50      -139.4969   2.0000                                                             
     2  1  1.50       -95.5546   6.0000                                                             
     3  0  0.50       -10.8127   2.0000                                                             
     3  1  0.50        -4.0811   2.0000                                                             
     3  2  1.50        -4.0817   0.0000                                                             
   Description                                                                                      
     l       E           TYP  RCUT    TYP  RCUT                                                     
     0    -10.8127223     23  1.900                                                                 
     0     -7.6451159     23  1.900                                                                 
     1     -4.0811372     23  1.900                                                                 
     1      2.4879257     23  1.900                                                                 
     2     -4.0817478      7  1.900                                                                 
  local pseudopotential read in
  partial core-charges read in
  partial kinetic energy density read in
  atomic valenz-charges read in
  non local Contribution for L=           0  read in
    real space projection operators read in
  non local Contribution for L=           0  read in
    real space projection operators read in
  non local Contribution for L=           1  read in
    real space projection operators read in
  non local Contribution for L=           1  read in
    real space projection operators read in
    PAW grid and wavefunctions read in
 
   number of l-projection  operators is LMAX  =           4
   number of lm-projection operators is LMMAX =           8
 
  PAW_PBE Si 05Jan2001                  :
 energy of atom  1       EATOM= -103.0669
 kinetic energy error for atom=    0.0013 (will be added to EATOM!!)
 
 
 POSCAR: Si2
  positions in direct lattice
  No initial velocities read in
 exchange correlation table for  LEXCH =        8
   RHO(1)=    0.500       N(1)  =     2000
   RHO(2)=  100.500       N(2)  =     4000
 


--------------------------------------------------------------------------------------------------------


 ion  position               nearest neighbor table
   1  0.875  0.875  0.875-   2 2.36   2 2.36   2 2.36   2 2.36
   2  0.125  0.125  0.125-   1 2.36   1 2.36   1 2.36   1 2.36
 
  LATTYP: Found a face centered cubic cell.
 ALAT       =     5.4437031493
  
  Lattice vectors:
  
 A1 = (   3.3335730000,   0.0000000000,   1.9246390000)
 A2 = (   1.1111910000,   3.1429240000,   1.9246390000)
 A3 = (   0.0000000000,   0.0000000000,   3.8492780000)


Analysis of symmetry for initial positions (statically):
=====================================================================
 Subroutine PRICEL returns:
 Original cell was already a primitive cell.
 

 Routine SETGRP: Setting up the symmetry group for a 
 face centered cubic supercell.


 Subroutine GETGRP returns: Found 48 space group operations
 (whereof 12 operations were pure point group operations)
 out of a pool of 48 trial point group operations.


The static configuration has the point symmetry D_3d.
 The point group associated with its full space group is O_h .


Analysis of symmetry for dynamics (positions and initial velocities):
=====================================================================
 Subroutine PRICEL returns:
 Original cell was already a primitive cell.
 

 Routine SETGRP: Setting up the symmetry group for a 
 face centered cubic supercell.


 Subroutine GETGRP returns: Found 48 space group operations
 (whereof 12 operations were pure point group operations)
 out of a pool of 48 trial point group operations.


The dynamic configuration has the point symmetry D_3d.
 The point group associated with its full space group is O_h .


 Subroutine INISYM returns: Found 48 space group operations
 (whereof 12 operations are pure point group operations),
 and found     1 'primitive' translations


----------------------------------------------------------------------------------------

                                     Primitive cell                                     

  volume of cell :      40.3295

  direct lattice vectors                    reciprocal lattice vectors
     3.333573000  0.000000000  1.924639000     0.299978432 -0.106058350  0.000000000
     1.111191000  3.142924000  1.924639000     0.000000000  0.318175050  0.000000000
     0.000000000  0.000000000  3.849278000    -0.149989216 -0.106058350  0.259788979

  length of vectors
     3.849278403  3.849279412  3.849278000     0.318175161  0.318175050  0.318175190

  position of ions in fractional coordinates (direct lattice)
     0.875000000  0.875000000  0.875000000
     0.125000000  0.125000000  0.125000000

  ion indices of the primitive-cell ions
   primitive index   ion index
                 1           1
                 2           2

----------------------------------------------------------------------------------------

 
 
 KPOINTS: Automatic                               

Automatic generation of k-mesh.
 Grid dimensions read from file:
 generate k-points for:   21   21   21

 Generating k-lattice:

  Cartesian coordinates                     Fractional coordinates (reciprocal lattice)
     0.014284687 -0.005050398  0.000000000     0.047619048  0.000000000  0.000000000
     0.000000000  0.015151193  0.000000000     0.000000000  0.047619048  0.000000000
    -0.007142344 -0.005050398  0.012370904     0.000000000  0.000000000  0.047619048

  Length of vectors
     0.015151198  0.015151193  0.015151200

  Shift w.r.t. Gamma in fractional coordinates (k-lattice)
     0.000000000  0.000000000  0.000000000

 
 Subroutine IBZKPT returns following result:
 ===========================================
 
 Found    286 irreducible k-points:
 
 Following reciprocal coordinates:
            Coordinates               Weight
  0.000000  0.000000  0.000000      1.000000
  0.047619  0.000000  0.000000      8.000000
  0.095238  0.000000  0.000000      8.000000
  0.142857 -0.000000  0.000000      8.000000
  0.190476  0.000000  0.000000      8.000000
  0.238095  0.000000  0.000000      8.000000
  0.285714 -0.000000  0.000000      8.000000
  0.333333  0.000000  0.000000      8.000000
  0.380952  0.000000  0.000000      8.000000
  0.428571  0.000000  0.000000      8.000000
  0.476190  0.000000  0.000000      8.000000
  0.047619  0.047619  0.000000      6.000000
  0.095238  0.047619  0.000000     24.000000
  0.142857  0.047619  0.000000     24.000000
  0.190476  0.047619  0.000000     24.000000
  0.238095  0.047619  0.000000     24.000000
  0.285714  0.047619  0.000000     24.000000
  0.333333  0.047619  0.000000     24.000000
  0.380952  0.047619  0.000000     24.000000
  0.428571  0.047619  0.000000     24.000000
  0.476190  0.047619  0.000000     24.000000
 -0.476190  0.047619  0.000000     24.000000
 -0.428571  0.047619  0.000000     24.000000
 -0.380952  0.047619  0.000000     24.000000
 -0.333333  0.047619  0.000000     24.000000
 -0.285714  0.047619  0.000000     24.000000
 -0.238095  0.047619  0.000000     24.000000
 -0.190476  0.047619  0.000000     24.000000
 -0.142857  0.047619  0.000000     24.000000
 -0.095238  0.047619  0.000000     24.000000
 -0.047619  0.047619  0.000000     12.000000
  0.095238  0.095238  0.000000      6.000000
  0.142857  0.095238  0.000000     24.000000
  0.190476  0.095238  0.000000     24.000000
  0.238095  0.095238  0.000000     24.000000
  0.285714  0.095238  0.000000     24.000000
  0.333333  0.095238  0.000000     24.000000
  0.380952  0.095238  0.000000     24.000000
  0.428571  0.095238  0.000000     24.000000
  0.476190  0.095238  0.000000     24.000000
 -0.476190  0.095238  0.000000     24.000000
 -0.428571  0.095238  0.000000     24.000000
 -0.380952  0.095238  0.000000     24.000000
 -0.333333  0.095238  0.000000     24.000000
 -0.285714  0.095238  0.000000     24.000000
 -0.238095  0.095238  0.000000     24.000000
 -0.190476  0.095238  0.000000     24.000000
 -0.142857  0.095238  0.000000     24.000000
 -0.095238  0.095238  0.000000     12.000000
  0.142857  0.142857  0.000000      6.000000
  0.190476  0.142857  0.000000     24.000000
  0.238095  0.142857  0.000000     24.000000
  0.285714  0.142857  0.000000     24.000000
  0.333333  0.142857  0.000000     24.000000
  0.380952  0.142857  0.000000     24.000000
  0.428571  0.142857  0.000000     24.000000
  0.476190  0.142857  0.000000     24.000000
 -0.476190  0.142857  0.000000     24.000000
 -0.428571  0.142857  0.000000     24.000000
 -0.380952  0.142857  0.000000     24.000000
 -0.333333  0.142857  0.000000     24.000000
 -0.285714  0.142857  0.000000     24.000000
 -0.238095  0.142857  0.000000     24.000000
 -0.190476  0.142857  0.000000     24.000000
 -0.142857  0.142857  0.000000     12.000000
  0.190476  0.190476  0.000000      6.000000
  0.238095  0.190476  0.000000     24.000000
  0.285714  0.190476  0.000000     24.000000
  0.333333  0.190476  0.000000     24.000000
  0.380952  0.190476  0.000000     24.000000
  0.428571  0.190476  0.000000     24.000000
  0.476190  0.190476  0.000000     24.000000
 -0.476190  0.190476  0.000000     24.000000
 -0.428571  0.190476  0.000000     24.000000
 -0.380952  0.190476  0.000000     24.000000
 -0.333333  0.190476  0.000000     24.000000
 -0.285714  0.190476  0.000000     24.000000
 -0.238095  0.190476  0.000000     24.000000
 -0.190476  0.190476  0.000000     12.000000
  0.238095  0.238095  0.000000      6.000000
  0.285714  0.238095  0.000000     24.000000
  0.333333  0.238095  0.000000     24.000000
  0.380952  0.238095  0.000000     24.000000
  0.428571  0.238095  0.000000     24.000000
  0.476190  0.238095  0.000000     24.000000
 -0.476190  0.238095  0.000000     24.000000
 -0.428571  0.238095  0.000000     24.000000
 -0.380952  0.238095  0.000000     24.000000
 -0.333333  0.238095  0.000000     24.000000
 -0.285714  0.238095  0.000000     24.000000
 -0.238095  0.238095  0.000000     12.000000
  0.285714  0.285714  0.000000      6.000000
  0.333333  0.285714  0.000000     24.000000
  0.380952  0.285714  0.000000     24.000000
  0.428571  0.285714  0.000000     24.000000
  0.476190  0.285714  0.000000     24.000000
 -0.476190  0.285714  0.000000     24.000000
 -0.428571  0.285714  0.000000     24.000000
 -0.380952  0.285714  0.000000     24.000000
 -0.333333  0.285714  0.000000     24.000000
 -0.285714  0.285714  0.000000     12.000000
  0.333333  0.333333  0.000000      6.000000
  0.380952  0.333333  0.000000     24.000000
  0.428571  0.333333  0.000000     24.000000
  0.476190  0.333333  0.000000     24.000000
 -0.476190  0.333333  0.000000     24.000000
 -0.428571  0.333333  0.000000     24.000000
 -0.380952  0.333333  0.000000     24.000000
 -0.333333  0.333333  0.000000     12.000000
  0.380952  0.380952  0.000000      6.000000
  0.428571  0.380952  0.000000     24.000000
  0.476190  0.380952  0.000000     24.000000
 -0.476190  0.380952  0.000000     24.000000
 -0.428571  0.380952  0.000000     24.000000
 -0.380952  0.380952  0.000000     12.000000
  0.428571  0.428571  0.000000      6.000000
  0.476190  0.428571  0.000000     24.000000
 -0.476190  0.428571  0.000000     24.000000
 -0.428571  0.428571  0.000000     12.000000
  0.476190  0.476190  0.000000      6.000000
 -0.476190  0.476190  0.000000     12.000000
  0.142857  0.095238  0.047619     24.000000
  0.190476  0.095238  0.047619     48.000000
  0.238095  0.095238  0.047619     48.000000
  0.285714  0.095238  0.047619     48.000000
  0.333333  0.095238  0.047619     48.000000
  0.380952  0.095238  0.047619     48.000000
  0.428571  0.095238  0.047619     48.000000
  0.476190  0.095238  0.047619     48.000000
 -0.476190  0.095238  0.047619     48.000000
  0.190476  0.142857  0.047619     24.000000
  0.238095  0.142857  0.047619     48.000000
  0.285714  0.142857  0.047619     48.000000
  0.333333  0.142857  0.047619     48.000000
  0.380952  0.142857  0.047619     48.000000
  0.428571  0.142857  0.047619     48.000000
  0.476190  0.142857  0.047619     48.000000
 -0.476190  0.142857  0.047619     48.000000
 -0.428571  0.142857  0.047619     48.000000
 -0.380952  0.142857  0.047619     48.000000
 -0.333333  0.142857  0.047619     48.000000
 -0.285714  0.142857  0.047619     48.000000
 -0.238095  0.142857  0.047619     48.000000
 -0.190476  0.142857  0.047619     48.000000
 -0.142857  0.142857  0.047619     48.000000
 -0.095238  0.142857  0.047619     24.000000
  0.238095  0.190476  0.047619     24.000000
  0.285714  0.190476  0.047619     48.000000
  0.333333  0.190476  0.047619     48.000000
  0.380952  0.190476  0.047619     48.000000
  0.428571  0.190476  0.047619     48.000000
  0.476190  0.190476  0.047619     48.000000
 -0.476190  0.190476  0.047619     48.000000
 -0.428571  0.190476  0.047619     48.000000
 -0.380952  0.190476  0.047619     48.000000
 -0.333333  0.190476  0.047619     48.000000
 -0.285714  0.190476  0.047619     48.000000
 -0.238095  0.190476  0.047619     48.000000
 -0.190476  0.190476  0.047619     48.000000
 -0.142857  0.190476  0.047619     24.000000
  0.285714  0.238095  0.047619     24.000000
  0.333333  0.238095  0.047619     48.000000
  0.380952  0.238095  0.047619     48.000000
  0.428571  0.238095  0.047619     48.000000
  0.476190  0.238095  0.047619     48.000000
 -0.476190  0.238095  0.047619     48.000000
 -0.428571  0.238095  0.047619     48.000000
 -0.380952  0.238095  0.047619     48.000000
 -0.333333  0.238095  0.047619     48.000000
 -0.285714  0.238095  0.047619     48.000000
 -0.238095  0.238095  0.047619     48.000000
 -0.190476  0.238095  0.047619     24.000000
  0.333333  0.285714  0.047619     24.000000
  0.380952  0.285714  0.047619     48.000000
  0.428571  0.285714  0.047619     48.000000
  0.476190  0.285714  0.047619     48.000000
 -0.476190  0.285714  0.047619     48.000000
 -0.428571  0.285714  0.047619     48.000000
 -0.380952  0.285714  0.047619     48.000000
 -0.333333  0.285714  0.047619     48.000000
 -0.285714  0.285714  0.047619     48.000000
 -0.238095  0.285714  0.047619     24.000000
  0.380952  0.333333  0.047619     24.000000
  0.428571  0.333333  0.047619     48.000000
  0.476190  0.333333  0.047619     48.000000
 -0.476190  0.333333  0.047619     48.000000
 -0.428571  0.333333  0.047619     48.000000
 -0.380952  0.333333  0.047619     48.000000
 -0.333333  0.333333  0.047619     48.000000
 -0.285714  0.333333  0.047619     24.000000
  0.428571  0.380952  0.047619     24.000000
  0.476190  0.380952  0.047619     48.000000
 -0.476190  0.380952  0.047619     48.000000
 -0.428571  0.380952  0.047619     48.000000
 -0.380952  0.380952  0.047619     48.000000
 -0.333333  0.380952  0.047619     24.000000
  0.476190  0.428571  0.047619     24.000000
 -0.476190  0.428571  0.047619     48.000000
 -0.428571  0.428571  0.047619     48.000000
 -0.380952  0.428571  0.047619     24.000000
 -0.476190  0.476190  0.047619     24.000000
 -0.428571  0.476190  0.047619     24.000000
  0.285714  0.190476  0.095238     24.000000
  0.333333  0.190476  0.095238     48.000000
  0.380952  0.190476  0.095238     48.000000
  0.428571  0.190476  0.095238     48.000000
  0.476190  0.190476  0.095238     48.000000
 -0.476190  0.190476  0.095238     48.000000
 -0.428571  0.190476  0.095238     48.000000
  0.333333  0.238095  0.095238     24.000000
  0.380952  0.238095  0.095238     48.000000
  0.428571  0.238095  0.095238     48.000000
  0.476190  0.238095  0.095238     48.000000
 -0.476190  0.238095  0.095238     48.000000
 -0.428571  0.238095  0.095238     48.000000
 -0.380952  0.238095  0.095238     48.000000
 -0.333333  0.238095  0.095238     48.000000
 -0.285714  0.238095  0.095238     48.000000
 -0.238095  0.238095  0.095238     48.000000
 -0.190476  0.238095  0.095238     48.000000
 -0.142857  0.238095  0.095238     24.000000
  0.380952  0.285714  0.095238     24.000000
  0.428571  0.285714  0.095238     48.000000
  0.476190  0.285714  0.095238     48.000000
 -0.476190  0.285714  0.095238     48.000000
 -0.428571  0.285714  0.095238     48.000000
 -0.380952  0.285714  0.095238     48.000000
 -0.333333  0.285714  0.095238     48.000000
 -0.285714  0.285714  0.095238     48.000000
 -0.238095  0.285714  0.095238     48.000000
 -0.190476  0.285714  0.095238     24.000000
  0.428571  0.333333  0.095238     24.000000
  0.476190  0.333333  0.095238     48.000000
 -0.476190  0.333333  0.095238     48.000000
 -0.428571  0.333333  0.095238     48.000000
 -0.380952  0.333333  0.095238     48.000000
 -0.333333  0.333333  0.095238     48.000000
 -0.285714  0.333333  0.095238     48.000000
 -0.238095  0.333333  0.095238     24.000000
  0.476190  0.380952  0.095238     24.000000
 -0.476190  0.380952  0.095238     48.000000
 -0.428571  0.380952  0.095238     48.000000
 -0.380952  0.380952  0.095238     48.000000
 -0.333333  0.380952  0.095238     48.000000
 -0.285714  0.380952  0.095238     24.000000
 -0.476190  0.428571  0.095238     24.000000
 -0.428571  0.428571  0.095238     48.000000
 -0.380952  0.428571  0.095238     48.000000
 -0.333333  0.428571  0.095238     24.000000
 -0.428571  0.476190  0.095238     24.000000
 -0.380952  0.476190  0.095238     24.000000
  0.428571  0.285714  0.142857     24.000000
  0.476190  0.285714  0.142857     48.000000
 -0.476190  0.285714  0.142857     48.000000
 -0.428571  0.285714  0.142857     48.000000
 -0.380952  0.285714  0.142857     48.000000
  0.476190  0.333333  0.142857     24.000000
 -0.476190  0.333333  0.142857     48.000000
 -0.428571  0.333333  0.142857     48.000000
 -0.380952  0.333333  0.142857     48.000000
 -0.333333  0.333333  0.142857     48.000000
 -0.285714  0.333333  0.142857     48.000000
 -0.238095  0.333333  0.142857     48.000000
 -0.190476  0.333333  0.142857     24.000000
 -0.476190  0.380952  0.142857     24.000000
 -0.428571  0.380952  0.142857     48.000000
 -0.380952  0.380952  0.142857     48.000000
 -0.333333  0.380952  0.142857     48.000000
 -0.285714  0.380952  0.142857     48.000000
 -0.238095  0.380952  0.142857     24.000000
 -0.428571  0.428571  0.142857     24.000000
 -0.380952  0.428571  0.142857     48.000000
 -0.333333  0.428571  0.142857     48.000000
 -0.285714  0.428571  0.142857     24.000000
 -0.380952  0.476190  0.142857     24.000000
 -0.333333  0.476190  0.142857     24.000000
 -0.428571  0.380952  0.190476     24.000000
 -0.380952  0.380952  0.190476     48.000000
 -0.333333  0.380952  0.190476     48.000000
 -0.380952  0.428571  0.190476     24.000000
 -0.333333  0.428571  0.190476     48.000000
 -0.285714  0.428571  0.190476     48.000000
 -0.238095  0.428571  0.190476     24.000000
 -0.333333  0.476190  0.190476     24.000000
 -0.285714  0.476190  0.190476     24.000000
 -0.285714  0.476190  0.238095     24.000000
 
 Following cartesian coordinates:
            Coordinates               Weight
  0.000000  0.000000  0.000000      1.000000
  0.014285 -0.005050  0.000000      8.000000
  0.028569 -0.010101  0.000000      8.000000
  0.042854 -0.015151  0.000000      8.000000
  0.057139 -0.020202  0.000000      8.000000
  0.071423 -0.025252  0.000000      8.000000
  0.085708 -0.030302  0.000000      8.000000
  0.099993 -0.035353  0.000000      8.000000
  0.114277 -0.040403  0.000000      8.000000
  0.128562 -0.045454  0.000000      8.000000
  0.142847 -0.050504  0.000000      8.000000
  0.014285  0.010101  0.000000      6.000000
  0.028569  0.005050  0.000000     24.000000
  0.042854  0.000000  0.000000     24.000000
  0.057139 -0.005050  0.000000     24.000000
  0.071423 -0.010101  0.000000     24.000000
  0.085708 -0.015151  0.000000     24.000000
  0.099993 -0.020202  0.000000     24.000000
  0.114277 -0.025252  0.000000     24.000000
  0.128562 -0.030302  0.000000     24.000000
  0.142847 -0.035353  0.000000     24.000000
 -0.142847  0.065655  0.000000     24.000000
 -0.128562  0.060605  0.000000     24.000000
 -0.114277  0.055554  0.000000     24.000000
 -0.099993  0.050504  0.000000     24.000000
 -0.085708  0.045454  0.000000     24.000000
 -0.071423  0.040403  0.000000     24.000000
 -0.057139  0.035353  0.000000     24.000000
 -0.042854  0.030302  0.000000     24.000000
 -0.028569  0.025252  0.000000     24.000000
 -0.014285  0.020202  0.000000     12.000000
  0.028569  0.020202  0.000000      6.000000
  0.042854  0.015151  0.000000     24.000000
  0.057139  0.010101  0.000000     24.000000
  0.071423  0.005050  0.000000     24.000000
  0.085708 -0.000000  0.000000     24.000000
  0.099993 -0.005050  0.000000     24.000000
  0.114277 -0.010101  0.000000     24.000000
  0.128562 -0.015151  0.000000     24.000000
  0.142847 -0.020202  0.000000     24.000000
 -0.142847  0.080806  0.000000     24.000000
 -0.128562  0.075756  0.000000     24.000000
 -0.114277  0.070706  0.000000     24.000000
 -0.099993  0.065655  0.000000     24.000000
 -0.085708  0.060605  0.000000     24.000000
 -0.071423  0.055554  0.000000     24.000000
 -0.057139  0.050504  0.000000     24.000000
 -0.042854  0.045454  0.000000     24.000000
 -0.028569  0.040403  0.000000     12.000000
  0.042854  0.030302  0.000000      6.000000
  0.057139  0.025252  0.000000     24.000000
  0.071423  0.020202  0.000000     24.000000
  0.085708  0.015151  0.000000     24.000000
  0.099993  0.010101  0.000000     24.000000
  0.114277  0.005050  0.000000     24.000000
  0.128562  0.000000  0.000000     24.000000
  0.142847 -0.005050  0.000000     24.000000
 -0.142847  0.095958  0.000000     24.000000
 -0.128562  0.090907  0.000000     24.000000
 -0.114277  0.085857  0.000000     24.000000
 -0.099993  0.080806  0.000000     24.000000
 -0.085708  0.075756  0.000000     24.000000
 -0.071423  0.070706  0.000000     24.000000
 -0.057139  0.065655  0.000000     24.000000
 -0.042854  0.060605  0.000000     12.000000
  0.057139  0.040403  0.000000      6.000000
  0.071423  0.035353  0.000000     24.000000
  0.085708  0.030302  0.000000     24.000000
  0.099993  0.025252  0.000000     24.000000
  0.114277  0.020202  0.000000     24.000000
  0.128562  0.015151  0.000000     24.000000
  0.142847  0.010101  0.000000     24.000000
 -0.142847  0.111109  0.000000     24.000000
 -0.128562  0.106058  0.000000     24.000000
 -0.114277  0.101008  0.000000     24.000000
 -0.099993  0.095958  0.000000     24.000000
 -0.085708  0.090907  0.000000     24.000000
 -0.071423  0.085857  0.000000     24.000000
 -0.057139  0.080806  0.000000     12.000000
  0.071423  0.050504  0.000000      6.000000
  0.085708  0.045454  0.000000     24.000000
  0.099993  0.040403  0.000000     24.000000
  0.114277  0.035353  0.000000     24.000000
  0.128562  0.030302  0.000000     24.000000
  0.142847  0.025252  0.000000     24.000000
 -0.142847  0.126260  0.000000     24.000000
 -0.128562  0.121210  0.000000     24.000000
 -0.114277  0.116159  0.000000     24.000000
 -0.099993  0.111109  0.000000     24.000000
 -0.085708  0.106058  0.000000     24.000000
 -0.071423  0.101008  0.000000     12.000000
  0.085708  0.060605  0.000000      6.000000
  0.099993  0.055554  0.000000     24.000000
  0.114277  0.050504  0.000000     24.000000
  0.128562  0.045454  0.000000     24.000000
  0.142847  0.040403  0.000000     24.000000
 -0.142847  0.141411  0.000000     24.000000
 -0.128562  0.136361  0.000000     24.000000
 -0.114277  0.131310  0.000000     24.000000
 -0.099993  0.126260  0.000000     24.000000
 -0.085708  0.121210  0.000000     12.000000
  0.099993  0.070706  0.000000      6.000000
  0.114277  0.065655  0.000000     24.000000
  0.128562  0.060605  0.000000     24.000000
  0.142847  0.055554  0.000000     24.000000
 -0.142847  0.156562  0.000000     24.000000
 -0.128562  0.151512  0.000000     24.000000
 -0.114277  0.146462  0.000000     24.000000
 -0.099993  0.141411  0.000000     12.000000
  0.114277  0.080806  0.000000      6.000000
  0.128562  0.075756  0.000000     24.000000
  0.142847  0.070706  0.000000     24.000000
 -0.142847  0.171714  0.000000     24.000000
 -0.128562  0.166663  0.000000     24.000000
 -0.114277  0.161613  0.000000     12.000000
  0.128562  0.090907  0.000000      6.000000
  0.142847  0.085857  0.000000     24.000000
 -0.142847  0.186865  0.000000     24.000000
 -0.128562  0.181814  0.000000     12.000000
  0.142847  0.101008  0.000000      6.000000
 -0.142847  0.202016  0.000000     12.000000
  0.035712  0.010101  0.012371     24.000000
  0.049996  0.005050  0.012371     48.000000
  0.064281 -0.000000  0.012371     48.000000
  0.078566 -0.005050  0.012371     48.000000
  0.092850 -0.010101  0.012371     48.000000
  0.107135 -0.015151  0.012371     48.000000
  0.121420 -0.020202  0.012371     48.000000
  0.135705 -0.025252  0.012371     48.000000
 -0.149989  0.075756  0.012371     48.000000
  0.049996  0.020202  0.012371     24.000000
  0.064281  0.015151  0.012371     48.000000
  0.078566  0.010101  0.012371     48.000000
  0.092850  0.005050  0.012371     48.000000
  0.107135  0.000000  0.012371     48.000000
  0.121420 -0.005050  0.012371     48.000000
  0.135705 -0.010101  0.012371     48.000000
 -0.149989  0.090907  0.012371     48.000000
 -0.135705  0.085857  0.012371     48.000000
 -0.121420  0.080806  0.012371     48.000000
 -0.107135  0.075756  0.012371     48.000000
 -0.092850  0.070706  0.012371     48.000000
 -0.078566  0.065655  0.012371     48.000000
 -0.064281  0.060605  0.012371     48.000000
 -0.049996  0.055554  0.012371     48.000000
 -0.035712  0.050504  0.012371     24.000000
  0.064281  0.030302  0.012371     24.000000
  0.078566  0.025252  0.012371     48.000000
  0.092850  0.020202  0.012371     48.000000
  0.107135  0.015151  0.012371     48.000000
  0.121420  0.010101  0.012371     48.000000
  0.135705  0.005050  0.012371     48.000000
 -0.149989  0.106058  0.012371     48.000000
 -0.135705  0.101008  0.012371     48.000000
 -0.121420  0.095958  0.012371     48.000000
 -0.107135  0.090907  0.012371     48.000000
 -0.092850  0.085857  0.012371     48.000000
 -0.078566  0.080806  0.012371     48.000000
 -0.064281  0.075756  0.012371     48.000000
 -0.049996  0.070706  0.012371     24.000000
  0.078566  0.040403  0.012371     24.000000
  0.092850  0.035353  0.012371     48.000000
  0.107135  0.030302  0.012371     48.000000
  0.121420  0.025252  0.012371     48.000000
  0.135705  0.020202  0.012371     48.000000
 -0.149989  0.121210  0.012371     48.000000
 -0.135705  0.116159  0.012371     48.000000
 -0.121420  0.111109  0.012371     48.000000
 -0.107135  0.106058  0.012371     48.000000
 -0.092850  0.101008  0.012371     48.000000
 -0.078566  0.095958  0.012371     48.000000
 -0.064281  0.090907  0.012371     24.000000
  0.092850  0.050504  0.012371     24.000000
  0.107135  0.045454  0.012371     48.000000
  0.121420  0.040403  0.012371     48.000000
  0.135705  0.035353  0.012371     48.000000
 -0.149989  0.136361  0.012371     48.000000
 -0.135705  0.131310  0.012371     48.000000
 -0.121420  0.126260  0.012371     48.000000
 -0.107135  0.121210  0.012371     48.000000
 -0.092850  0.116159  0.012371     48.000000
 -0.078566  0.111109  0.012371     24.000000
  0.107135  0.060605  0.012371     24.000000
  0.121420  0.055554  0.012371     48.000000
  0.135705  0.050504  0.012371     48.000000
 -0.149989  0.151512  0.012371     48.000000
 -0.135705  0.146462  0.012371     48.000000
 -0.121420  0.141411  0.012371     48.000000
 -0.107135  0.136361  0.012371     48.000000
 -0.092850  0.131310  0.012371     24.000000
  0.121420  0.070706  0.012371     24.000000
  0.135705  0.065655  0.012371     48.000000
 -0.149989  0.166663  0.012371     48.000000
 -0.135705  0.161613  0.012371     48.000000
 -0.121420  0.156562  0.012371     48.000000
 -0.107135  0.151512  0.012371     24.000000
  0.135705  0.080806  0.012371     24.000000
 -0.149989  0.181814  0.012371     48.000000
 -0.135705  0.176764  0.012371     48.000000
 -0.121420  0.171714  0.012371     24.000000
 -0.149989  0.196966  0.012371     24.000000
 -0.135705  0.191915  0.012371     24.000000
  0.071423  0.020202  0.024742     24.000000
  0.085708  0.015151  0.024742     48.000000
  0.099993  0.010101  0.024742     48.000000
  0.114277  0.005050  0.024742     48.000000
  0.128562 -0.000000  0.024742     48.000000
 -0.157132  0.101008  0.024742     48.000000
 -0.142847  0.095958  0.024742     48.000000
  0.085708  0.030302  0.024742     24.000000
  0.099993  0.025252  0.024742     48.000000
  0.114277  0.020202  0.024742     48.000000
  0.128562  0.015151  0.024742     48.000000
 -0.157132  0.116159  0.024742     48.000000
 -0.142847  0.111109  0.024742     48.000000
 -0.128562  0.106058  0.024742     48.000000
 -0.114277  0.101008  0.024742     48.000000
 -0.099993  0.095958  0.024742     48.000000
 -0.085708  0.090907  0.024742     48.000000
 -0.071423  0.085857  0.024742     48.000000
 -0.057139  0.080806  0.024742     24.000000
  0.099993  0.040403  0.024742     24.000000
  0.114277  0.035353  0.024742     48.000000
  0.128562  0.030302  0.024742     48.000000
 -0.157132  0.131310  0.024742     48.000000
 -0.142847  0.126260  0.024742     48.000000
 -0.128562  0.121210  0.024742     48.000000
 -0.114277  0.116159  0.024742     48.000000
 -0.099993  0.111109  0.024742     48.000000
 -0.085708  0.106058  0.024742     48.000000
 -0.071423  0.101008  0.024742     24.000000
  0.114277  0.050504  0.024742     24.000000
  0.128562  0.045454  0.024742     48.000000
 -0.157132  0.146462  0.024742     48.000000
 -0.142847  0.141411  0.024742     48.000000
 -0.128562  0.136361  0.024742     48.000000
 -0.114277  0.131310  0.024742     48.000000
 -0.099993  0.126260  0.024742     48.000000
 -0.085708  0.121210  0.024742     24.000000
  0.128562  0.060605  0.024742     24.000000
 -0.157132  0.161613  0.024742     48.000000
 -0.142847  0.156562  0.024742     48.000000
 -0.128562  0.151512  0.024742     48.000000
 -0.114277  0.146462  0.024742     48.000000
 -0.099993  0.141411  0.024742     24.000000
 -0.157132  0.176764  0.024742     24.000000
 -0.142847  0.171714  0.024742     48.000000
 -0.128562  0.166663  0.024742     48.000000
 -0.114277  0.161613  0.024742     24.000000
 -0.142847  0.186865  0.024742     24.000000
 -0.128562  0.181814  0.024742     24.000000
  0.107135  0.030302  0.037113     24.000000
  0.121420  0.025252  0.037113     48.000000
 -0.164274  0.126260  0.037113     48.000000
 -0.149989  0.121210  0.037113     48.000000
 -0.135705  0.116159  0.037113     48.000000
  0.121420  0.040403  0.037113     24.000000
 -0.164274  0.141411  0.037113     48.000000
 -0.149989  0.136361  0.037113     48.000000
 -0.135705  0.131310  0.037113     48.000000
 -0.121420  0.126260  0.037113     48.000000
 -0.107135  0.121210  0.037113     48.000000
 -0.092850  0.116159  0.037113     48.000000
 -0.078566  0.111109  0.037113     24.000000
 -0.164274  0.156562  0.037113     24.000000
 -0.149989  0.151512  0.037113     48.000000
 -0.135705  0.146462  0.037113     48.000000
 -0.121420  0.141411  0.037113     48.000000
 -0.107135  0.136361  0.037113     48.000000
 -0.092850  0.131310  0.037113     24.000000
 -0.149989  0.166663  0.037113     24.000000
 -0.135705  0.161613  0.037113     48.000000
 -0.121420  0.156562  0.037113     48.000000
 -0.107135  0.151512  0.037113     24.000000
 -0.135705  0.176764  0.037113     24.000000
 -0.121420  0.171714  0.037113     24.000000
 -0.157132  0.146462  0.049484     24.000000
 -0.142847  0.141411  0.049484     48.000000
 -0.128562  0.136361  0.049484     48.000000
 -0.142847  0.156562  0.049484     24.000000
 -0.128562  0.151512  0.049484     48.000000
 -0.114277  0.146462  0.049484     48.000000
 -0.099993  0.141411  0.049484     24.000000
 -0.128562  0.166663  0.049484     24.000000
 -0.114277  0.161613  0.049484     24.000000
 -0.121420  0.156562  0.061855     24.000000
 


--------------------------------------------------------------------------------------------------------




 Dimension of arrays:
   k-points           NKPTS =    286   k-points in BZ     NKDIM =    286   number of bands    NBANDS=      8
   number of dos      NEDOS =    301   number of ions     NIONS =      2
   non local maximal  LDIM  =      4   non local SUM 2l+1 LMDIM =      8
   total plane-waves  NPLWV =  13824
   max r-space proj   IRMAX =      1   max aug-charges    IRDMAX=  91874
   dimension x,y,z NGX =    24 NGY =   24 NGZ =   24
   dimension x,y,z NGXF=    48 NGYF=   48 NGZF=   48
   support grid    NGXF=    96 NGYF=   96 NGZF=   96
   ions per type =               2
   NGX,Y,Z   is equivalent  to a cutoff of  10.37, 10.37, 10.37 a.u.
   NGXF,Y,Z  is equivalent  to a cutoff of  20.73, 20.73, 20.73 a.u.

 SYSTEM =  unknown system                          
 POSCAR =  Si2                                     

 Startparameter for this run:
   NWRITE =      2    write-flag & timer
   PREC   = accura    normal or accurate (medium, high low for compatibility)
   ISTART =      0    job   : 0-new  1-cont  2-samecut
   ICHARG =      2    charge: 1-file 2-atom 10-const
   ISPIN  =      1    spin polarized calculation?
   LNONCOLLINEAR =      F non collinear calculations
   LSORBIT =      F    spin-orbit coupling
   INIWAV =      1    electr: 0-lowe 1-rand  2-diag
   LASPH  =      T    aspherical Exc in radial PAW
   METAGGA=      F    non-selfconsistent MetaGGA calc.

 Electronic Relaxation 1
   ENCUT  =  350.0 eV  25.72 Ry    5.07 a.u.   5.87  5.87  5.87*2*pi/ulx,y,z
   ENINI  =  350.0     initial cutoff
   ENAUG  =  322.1 eV  augmentation charge cutoff
   NELM   =     90;   NELMIN=  6; NELMDL= -5     # of ELM steps 
   EDIFF  = 0.1E-05   stopping-criterion for ELM
   LREAL  =      F    real-space projection
   NLSPLINE    = F    spline interpolate recip. space projectors
   LCOMPAT=      F    compatible to vasp.4.4
   GGA_COMPAT  = T    GGA compatible to vasp.4.4-vasp.4.6
   LMAXPAW     = -100 max onsite density
   LMAXMIX     =    2 max onsite mixed and CHGCAR
   VOSKOWN=      0    Vosko Wilk Nusair interpolation
   ROPT   =    0.00000
 Ionic relaxation
   EDIFFG = -.2E-02   stopping-criterion for IOM
   NSW    =    100    number of steps for IOM
   NBLOCK =      1;   KBLOCK =    100    inner block; outer block 
   IBRION =      2    ionic relax: 0-MD 1-quasi-New 2-CG
   NFREE  =      1    steps in history (QN), initial steepest desc. (CG)
   ISIF   =      3    stress and relaxation
   IWAVPR =     11    prediction:  0-non 1-charg 2-wave 3-comb
   ISYM   =      2    0-nonsym 1-usesym 2-fastsym
   LCORR  =      T    Harris-Foulkes like correction to forces

   POTIM  = 0.5000    time-step for ionic-motion
   TEIN   =    0.0    initial temperature
   TEBEG  =    0.0;   TEEND  =   0.0 temperature during run
   SMASS  =  -3.00    Nose mass-parameter (am)
   estimated Nose-frequenzy (Omega)   =  0.10E-29 period in steps = 0.13E+47 mass=  -0.339E-27a.u.
   SCALEE = 1.0000    scale energy and forces
   NPACO  =    256;   APACO  = 16.0  distance and # of slots for P.C.
   PSTRESS=    0.0 pullay stress

  Mass of Ions in am
   POMASS =  28.09
  Ionic Valenz
   ZVAL   =   4.00
  Atomic Wigner-Seitz radii
   RWIGS  =  -1.00
  virtual crystal weights 
   VCA    =   1.00
   NELECT =       8.0000    total number of electrons
   NUPDOWN=      -1.0000    fix difference up-down

 DOS related values:
   EMIN   =  10.00;   EMAX   =-10.00  energy-range for DOS
   EFERMI =   0.00
   ISMEAR =     0;   SIGMA  =   0.05  broadening in eV -4-tet -1-fermi 0-gaus

 Electronic relaxation 2 (details)
   IALGO  =     38    algorithm
   LDIAG  =      T    sub-space diagonalisation (order eigenvalues)
   LSUBROT=      F    optimize rotation matrix (better conditioning)
   TURBO    =      0    0=normal 1=particle mesh
   IRESTART =      0    0=no restart 2=restart with 2 vectors
   NREBOOT  =      0    no. of reboots
   NMIN     =      0    reboot dimension
   EREF     =   0.00    reference energy to select bands
   IMIX   =      4    mixing-type and parameters
     AMIX     =   0.40;   BMIX     =  1.00
     AMIX_MAG =   1.60;   BMIX_MAG =  1.00
     AMIN     =   0.10
     WC   =   100.;   INIMIX=   1;  MIXPRE=   1;  MAXMIX= -45

 Intra band minimization:
   WEIMIN = 0.0010     energy-eigenvalue tresh-hold
   EBREAK =  0.31E-07  absolut break condition
   DEPER  =   0.30     relativ break condition  

   TIME   =   0.40     timestep for ELM

  volume/ion in A,a.u.               =      20.16       136.08
  Fermi-wavevector in a.u.,A,eV,Ry     =   0.954766  1.804247 12.402783  0.911579
  Thomas-Fermi vector in A             =   2.083543
 
 Write flags
   LWAVE        =      F    write WAVECAR
   LDOWNSAMPLE  =      F    k-point downsampling of WAVECAR
   LCHARG       =      F    write CHGCAR
   LVTOT        =      F    write LOCPOT, total local potential
   LVHAR        =      F    write LOCPOT, Hartree potential only
   LELF         =      F    write electronic localiz. function (ELF)
   LORBIT       =      0    0 simple, 1 ext, 2 COOP (PROOUT), +10 PAW based schemes


 Dipole corrections
   LMONO  =      F    monopole corrections only (constant potential shift)
   LDIPOL =      F    correct potential (dipole corrections)
   IDIPOL =      0    1-x, 2-y, 3-z, 4-all directions 
   EPSILON=  1.0000000 bulk dielectric constant

 Exchange correlation treatment:
   GGA     =    --    GGA type
   LEXCH   =     8    internal setting for exchange type
   VOSKOWN=      0    Vosko Wilk Nusair interpolation
   LHFCALC =     F    Hartree Fock is set to
   LHFONE  =     F    Hartree Fock one center treatment
   AEXX    =    0.0000 exact exchange contribution

 Linear response parameters
   LEPSILON=     F    determine dielectric tensor
   LRPA    =     F    only Hartree local field effects (RPA)
   LNABLA  =     F    use nabla operator in PAW spheres
   LVEL    =     F    velocity operator in full k-point grid
   LINTERFAST=   F  fast interpolation
   KINTER  =     0    interpolate to denser k-point grid
   CSHIFT  =0.1000    complex shift for real part using Kramers Kronig
   OMEGAMAX=  -1.0    maximum frequency
   DEG_THRESHOLD= 0.2000000E-02 threshold for treating states as degnerate
   RTIME   =   -0.100 relaxation time in fs
  (WPLASMAI=    0.000 imaginary part of plasma frequency in eV, 0.658/RTIME)
   DFIELD  = 0.0000000 0.0000000 0.0000000 field for delta impulse in time
 
 Orbital magnetization related:
   ORBITALMAG=     F  switch on orbital magnetization
   LCHIMAG   =     F  perturbation theory with respect to B field
   DQ        =  0.001000  dq finite difference perturbation B field
   LLRAUG    =     F  two centre corrections for induced B field



--------------------------------------------------------------------------------------------------------


 conjugate gradient relaxation of ions
 charge density and potential will be updated during run
 non-spin polarized calculation
 Variant of blocked Davidson
 Davidson routine will perform the subspace rotation
 perform sub-space diagonalisation
    after iterative eigenvector-optimisation
 modified Broyden-mixing scheme, WC =      100.0
 initial mixing is a Kerker type mixing with AMIX =  0.4000 and BMIX =      1.0000
 Hartree-type preconditioning will be used
 using additional bands            4
 reciprocal scheme for non local part
 use partial core corrections
 calculate Harris-corrections to forces 
   (improved forces if not selfconsistent)
 use gradient corrections 
 use of overlap-Matrix (Vanderbilt PP)
 Gauss-broadening in eV      SIGMA  =   0.05


--------------------------------------------------------------------------------------------------------


  energy-cutoff  :      350.00
  volume of cell :       40.33
      direct lattice vectors                 reciprocal lattice vectors
     3.333573000  0.000000000  1.924639000     0.299978432 -0.106058350  0.000000000
     1.111191000  3.142924000  1.924639000     0.000000000  0.318175050  0.000000000
     0.000000000  0.000000000  3.849278000    -0.149989216 -0.106058350  0.259788979

  length of vectors
     3.849278403  3.849279412  3.849278000     0.318175161  0.318175050  0.318175190


 
 k-points in units of 2pi/SCALE and weight: Automatic                               
   0.00000000  0.00000000  0.00000000       0.000
   0.01428469 -0.00505040  0.00000000       0.001
   0.02856937 -0.01010080  0.00000000       0.001
   0.04285406 -0.01515119  0.00000000       0.001
   0.05713875 -0.02020159  0.00000000       0.001
   0.07142344 -0.02525199  0.00000000       0.001
   0.08570812 -0.03030239  0.00000000       0.001
   0.09999281 -0.03535278  0.00000000       0.001
   0.11427750 -0.04040318  0.00000000       0.001
   0.12856218 -0.04545358  0.00000000       0.001
   0.14284687 -0.05050398  0.00000000       0.001
   0.01428469  0.01010080  0.00000000       0.001
   0.02856937  0.00505040  0.00000000       0.003
   0.04285406  0.00000000  0.00000000       0.003
   0.05713875 -0.00505040  0.00000000       0.003
   0.07142344 -0.01010080  0.00000000       0.003
   0.08570812 -0.01515119  0.00000000       0.003
   0.09999281 -0.02020159  0.00000000       0.003
   0.11427750 -0.02525199  0.00000000       0.003
   0.12856218 -0.03030239  0.00000000       0.003
   0.14284687 -0.03535278  0.00000000       0.003
  -0.14284687  0.06565517  0.00000000       0.003
  -0.12856218  0.06060477  0.00000000       0.003
  -0.11427750  0.05555437  0.00000000       0.003
  -0.09999281  0.05050398  0.00000000       0.003
  -0.08570812  0.04545358  0.00000000       0.003
  -0.07142344  0.04040318  0.00000000       0.003
  -0.05713875  0.03535278  0.00000000       0.003
  -0.04285406  0.03030239  0.00000000       0.003
  -0.02856937  0.02525199  0.00000000       0.003
  -0.01428469  0.02020159  0.00000000       0.001
   0.02856937  0.02020159  0.00000000       0.001
   0.04285406  0.01515119  0.00000000       0.003
   0.05713875  0.01010080  0.00000000       0.003
   0.07142344  0.00505040  0.00000000       0.003
   0.08570812 -0.00000000  0.00000000       0.003
   0.09999281 -0.00505040  0.00000000       0.003
   0.11427750 -0.01010080  0.00000000       0.003
   0.12856218 -0.01515119  0.00000000       0.003
   0.14284687 -0.02020159  0.00000000       0.003
  -0.14284687  0.08080636  0.00000000       0.003
  -0.12856218  0.07575596  0.00000000       0.003
  -0.11427750  0.07070557  0.00000000       0.003
  -0.09999281  0.06565517  0.00000000       0.003
  -0.08570812  0.06060477  0.00000000       0.003
  -0.07142344  0.05555437  0.00000000       0.003
  -0.05713875  0.05050398  0.00000000       0.003
  -0.04285406  0.04545358  0.00000000       0.003
  -0.02856937  0.04040318  0.00000000       0.001
   0.04285406  0.03030239  0.00000000       0.001
   0.05713875  0.02525199  0.00000000       0.003
   0.07142344  0.02020159  0.00000000       0.003
   0.08570812  0.01515119  0.00000000       0.003
   0.09999281  0.01010080  0.00000000       0.003
   0.11427750  0.00505040  0.00000000       0.003
   0.12856218  0.00000000  0.00000000       0.003
   0.14284687 -0.00505040  0.00000000       0.003
  -0.14284687  0.09595755  0.00000000       0.003
  -0.12856218  0.09090716  0.00000000       0.003
  -0.11427750  0.08585676  0.00000000       0.003
  -0.09999281  0.08080636  0.00000000       0.003
  -0.08570812  0.07575596  0.00000000       0.003
  -0.07142344  0.07070557  0.00000000       0.003
  -0.05713875  0.06565517  0.00000000       0.003
  -0.04285406  0.06060477  0.00000000       0.001
   0.05713875  0.04040318  0.00000000       0.001
   0.07142344  0.03535278  0.00000000       0.003
   0.08570812  0.03030239  0.00000000       0.003
   0.09999281  0.02525199  0.00000000       0.003
   0.11427750  0.02020159  0.00000000       0.003
   0.12856218  0.01515119  0.00000000       0.003
   0.14284687  0.01010080  0.00000000       0.003
  -0.14284687  0.11110875  0.00000000       0.003
  -0.12856218  0.10605835  0.00000000       0.003
  -0.11427750  0.10100795  0.00000000       0.003
  -0.09999281  0.09595755  0.00000000       0.003
  -0.08570812  0.09090716  0.00000000       0.003
  -0.07142344  0.08585676  0.00000000       0.003
  -0.05713875  0.08080636  0.00000000       0.001
   0.07142344  0.05050398  0.00000000       0.001
   0.08570812  0.04545358  0.00000000       0.003
   0.09999281  0.04040318  0.00000000       0.003
   0.11427750  0.03535278  0.00000000       0.003
   0.12856218  0.03030239  0.00000000       0.003
   0.14284687  0.02525199  0.00000000       0.003
  -0.14284687  0.12625994  0.00000000       0.003
  -0.12856218  0.12120954  0.00000000       0.003
  -0.11427750  0.11615915  0.00000000       0.003
  -0.09999281  0.11110875  0.00000000       0.003
  -0.08570812  0.10605835  0.00000000       0.003
  -0.07142344  0.10100795  0.00000000       0.001
   0.08570812  0.06060477  0.00000000       0.001
   0.09999281  0.05555437  0.00000000       0.003
   0.11427750  0.05050398  0.00000000       0.003
   0.12856218  0.04545358  0.00000000       0.003
   0.14284687  0.04040318  0.00000000       0.003
  -0.14284687  0.14141113  0.00000000       0.003
  -0.12856218  0.13636074  0.00000000       0.003
  -0.11427750  0.13131034  0.00000000       0.003
  -0.09999281  0.12625994  0.00000000       0.003
  -0.08570812  0.12120954  0.00000000       0.001
   0.09999281  0.07070557  0.00000000       0.001
   0.11427750  0.06565517  0.00000000       0.003
   0.12856218  0.06060477  0.00000000       0.003
   0.14284687  0.05555437  0.00000000       0.003
  -0.14284687  0.15656233  0.00000000       0.003
  -0.12856218  0.15151193  0.00000000       0.003
  -0.11427750  0.14646153  0.00000000       0.003
  -0.09999281  0.14141113  0.00000000       0.001
   0.11427750  0.08080636  0.00000000       0.001
   0.12856218  0.07575596  0.00000000       0.003
   0.14284687  0.07070557  0.00000000       0.003
  -0.14284687  0.17171352  0.00000000       0.003
  -0.12856218  0.16666312  0.00000000       0.003
  -0.11427750  0.16161272  0.00000000       0.001
   0.12856218  0.09090716  0.00000000       0.001
   0.14284687  0.08585676  0.00000000       0.003
  -0.14284687  0.18686471  0.00000000       0.003
  -0.12856218  0.18181431  0.00000000       0.001
   0.14284687  0.10100795  0.00000000       0.001
  -0.14284687  0.20201590  0.00000000       0.001
   0.03571172  0.01010080  0.01237090       0.003
   0.04999641  0.00505040  0.01237090       0.005
   0.06428109 -0.00000000  0.01237090       0.005
   0.07856578 -0.00505040  0.01237090       0.005
   0.09285047 -0.01010080  0.01237090       0.005
   0.10713515 -0.01515119  0.01237090       0.005
   0.12141984 -0.02020159  0.01237090       0.005
   0.13570453 -0.02525199  0.01237090       0.005
  -0.14998922  0.07575596  0.01237090       0.005
   0.04999641  0.02020159  0.01237090       0.003
   0.06428109  0.01515119  0.01237090       0.005
   0.07856578  0.01010080  0.01237090       0.005
   0.09285047  0.00505040  0.01237090       0.005
   0.10713515  0.00000000  0.01237090       0.005
   0.12141984 -0.00505040  0.01237090       0.005
   0.13570453 -0.01010080  0.01237090       0.005
  -0.14998922  0.09090716  0.01237090       0.005
  -0.13570453  0.08585676  0.01237090       0.005
  -0.12141984  0.08080636  0.01237090       0.005
  -0.10713515  0.07575596  0.01237090       0.005
  -0.09285047  0.07070557  0.01237090       0.005
  -0.07856578  0.06565517  0.01237090       0.005
  -0.06428109  0.06060477  0.01237090       0.005
  -0.04999641  0.05555437  0.01237090       0.005
  -0.03571172  0.05050398  0.01237090       0.003
   0.06428109  0.03030239  0.01237090       0.003
   0.07856578  0.02525199  0.01237090       0.005
   0.09285047  0.02020159  0.01237090       0.005
   0.10713515  0.01515119  0.01237090       0.005
   0.12141984  0.01010080  0.01237090       0.005
   0.13570453  0.00505040  0.01237090       0.005
  -0.14998922  0.10605835  0.01237090       0.005
  -0.13570453  0.10100795  0.01237090       0.005
  -0.12141984  0.09595755  0.01237090       0.005
  -0.10713515  0.09090716  0.01237090       0.005
  -0.09285047  0.08585676  0.01237090       0.005
  -0.07856578  0.08080636  0.01237090       0.005
  -0.06428109  0.07575596  0.01237090       0.005
  -0.04999641  0.07070557  0.01237090       0.003
   0.07856578  0.04040318  0.01237090       0.003
   0.09285047  0.03535278  0.01237090       0.005
   0.10713515  0.03030239  0.01237090       0.005
   0.12141984  0.02525199  0.01237090       0.005
   0.13570453  0.02020159  0.01237090       0.005
  -0.14998922  0.12120954  0.01237090       0.005
  -0.13570453  0.11615915  0.01237090       0.005
  -0.12141984  0.11110875  0.01237090       0.005
  -0.10713515  0.10605835  0.01237090       0.005
  -0.09285047  0.10100795  0.01237090       0.005
  -0.07856578  0.09595755  0.01237090       0.005
  -0.06428109  0.09090716  0.01237090       0.003
   0.09285047  0.05050398  0.01237090       0.003
   0.10713515  0.04545358  0.01237090       0.005
   0.12141984  0.04040318  0.01237090       0.005
   0.13570453  0.03535278  0.01237090       0.005
  -0.14998922  0.13636074  0.01237090       0.005
  -0.13570453  0.13131034  0.01237090       0.005
  -0.12141984  0.12625994  0.01237090       0.005
  -0.10713515  0.12120954  0.01237090       0.005
  -0.09285047  0.11615915  0.01237090       0.005
  -0.07856578  0.11110875  0.01237090       0.003
   0.10713515  0.06060477  0.01237090       0.003
   0.12141984  0.05555437  0.01237090       0.005
   0.13570453  0.05050398  0.01237090       0.005
  -0.14998922  0.15151193  0.01237090       0.005
  -0.13570453  0.14646153  0.01237090       0.005
  -0.12141984  0.14141113  0.01237090       0.005
  -0.10713515  0.13636074  0.01237090       0.005
  -0.09285047  0.13131034  0.01237090       0.003
   0.12141984  0.07070557  0.01237090       0.003
   0.13570453  0.06565517  0.01237090       0.005
  -0.14998922  0.16666312  0.01237090       0.005
  -0.13570453  0.16161272  0.01237090       0.005
  -0.12141984  0.15656233  0.01237090       0.005
  -0.10713515  0.15151193  0.01237090       0.003
   0.13570453  0.08080636  0.01237090       0.003
  -0.14998922  0.18181431  0.01237090       0.005
  -0.13570453  0.17676392  0.01237090       0.005
  -0.12141984  0.17171352  0.01237090       0.003
  -0.14998922  0.19696551  0.01237090       0.003
  -0.13570453  0.19191511  0.01237090       0.003
   0.07142344  0.02020159  0.02474181       0.003
   0.08570812  0.01515119  0.02474181       0.005
   0.09999281  0.01010080  0.02474181       0.005
   0.11427750  0.00505040  0.02474181       0.005
   0.12856218 -0.00000000  0.02474181       0.005
  -0.15713156  0.10100795  0.02474181       0.005
  -0.14284687  0.09595755  0.02474181       0.005
   0.08570812  0.03030239  0.02474181       0.003
   0.09999281  0.02525199  0.02474181       0.005
   0.11427750  0.02020159  0.02474181       0.005
   0.12856218  0.01515119  0.02474181       0.005
  -0.15713156  0.11615915  0.02474181       0.005
  -0.14284687  0.11110875  0.02474181       0.005
  -0.12856218  0.10605835  0.02474181       0.005
  -0.11427750  0.10100795  0.02474181       0.005
  -0.09999281  0.09595755  0.02474181       0.005
  -0.08570812  0.09090716  0.02474181       0.005
  -0.07142344  0.08585676  0.02474181       0.005
  -0.05713875  0.08080636  0.02474181       0.003
   0.09999281  0.04040318  0.02474181       0.003
   0.11427750  0.03535278  0.02474181       0.005
   0.12856218  0.03030239  0.02474181       0.005
  -0.15713156  0.13131034  0.02474181       0.005
  -0.14284687  0.12625994  0.02474181       0.005
  -0.12856218  0.12120954  0.02474181       0.005
  -0.11427750  0.11615915  0.02474181       0.005
  -0.09999281  0.11110875  0.02474181       0.005
  -0.08570812  0.10605835  0.02474181       0.005
  -0.07142344  0.10100795  0.02474181       0.003
   0.11427750  0.05050398  0.02474181       0.003
   0.12856218  0.04545358  0.02474181       0.005
  -0.15713156  0.14646153  0.02474181       0.005
  -0.14284687  0.14141113  0.02474181       0.005
  -0.12856218  0.13636074  0.02474181       0.005
  -0.11427750  0.13131034  0.02474181       0.005
  -0.09999281  0.12625994  0.02474181       0.005
  -0.08570812  0.12120954  0.02474181       0.003
   0.12856218  0.06060477  0.02474181       0.003
  -0.15713156  0.16161272  0.02474181       0.005
  -0.14284687  0.15656233  0.02474181       0.005
  -0.12856218  0.15151193  0.02474181       0.005
  -0.11427750  0.14646153  0.02474181       0.005
  -0.09999281  0.14141113  0.02474181       0.003
  -0.15713156  0.17676392  0.02474181       0.003
  -0.14284687  0.17171352  0.02474181       0.005
  -0.12856218  0.16666312  0.02474181       0.005
  -0.11427750  0.16161272  0.02474181       0.003
  -0.14284687  0.18686471  0.02474181       0.003
  -0.12856218  0.18181431  0.02474181       0.003
   0.10713515  0.03030239  0.03711271       0.003
   0.12141984  0.02525199  0.03711271       0.005
  -0.16427390  0.12625994  0.03711271       0.005
  -0.14998922  0.12120954  0.03711271       0.005
  -0.13570453  0.11615915  0.03711271       0.005
   0.12141984  0.04040318  0.03711271       0.003
  -0.16427390  0.14141113  0.03711271       0.005
  -0.14998922  0.13636074  0.03711271       0.005
  -0.13570453  0.13131034  0.03711271       0.005
  -0.12141984  0.12625994  0.03711271       0.005
  -0.10713515  0.12120954  0.03711271       0.005
  -0.09285047  0.11615915  0.03711271       0.005
  -0.07856578  0.11110875  0.03711271       0.003
  -0.16427390  0.15656233  0.03711271       0.003
  -0.14998922  0.15151193  0.03711271       0.005
  -0.13570453  0.14646153  0.03711271       0.005
  -0.12141984  0.14141113  0.03711271       0.005
  -0.10713515  0.13636074  0.03711271       0.005
  -0.09285047  0.13131034  0.03711271       0.003
  -0.14998922  0.16666312  0.03711271       0.003
  -0.13570453  0.16161272  0.03711271       0.005
  -0.12141984  0.15656233  0.03711271       0.005
  -0.10713515  0.15151193  0.03711271       0.003
  -0.13570453  0.17676392  0.03711271       0.003
  -0.12141984  0.17171352  0.03711271       0.003
  -0.15713156  0.14646153  0.04948361       0.003
  -0.14284687  0.14141113  0.04948361       0.005
  -0.12856218  0.13636074  0.04948361       0.005
  -0.14284687  0.15656233  0.04948361       0.003
  -0.12856218  0.15151193  0.04948361       0.005
  -0.11427750  0.14646153  0.04948361       0.005
  -0.09999281  0.14141113  0.04948361       0.003
  -0.12856218  0.16666312  0.04948361       0.003
  -0.11427750  0.16161272  0.04948361       0.003
  -0.12141984  0.15656233  0.06185452       0.003
 
 k-points in reciprocal lattice and weights: Automatic                               
   0.00000000  0.00000000  0.00000000       0.000
   0.04761905  0.00000000  0.00000000       0.001
   0.09523810  0.00000000  0.00000000       0.001
   0.14285714 -0.00000000  0.00000000       0.001
   0.19047619  0.00000000  0.00000000       0.001
   0.23809524  0.00000000  0.00000000       0.001
   0.28571429 -0.00000000  0.00000000       0.001
   0.33333333  0.00000000  0.00000000       0.001
   0.38095238  0.00000000  0.00000000       0.001
   0.42857143  0.00000000  0.00000000       0.001
   0.47619048  0.00000000  0.00000000       0.001
   0.04761905  0.04761905  0.00000000       0.001
   0.09523810  0.04761905  0.00000000       0.003
   0.14285714  0.04761905  0.00000000       0.003
   0.19047619  0.04761905  0.00000000       0.003
   0.23809524  0.04761905  0.00000000       0.003
   0.28571429  0.04761905  0.00000000       0.003
   0.33333333  0.04761905  0.00000000       0.003
   0.38095238  0.04761905  0.00000000       0.003
   0.42857143  0.04761905  0.00000000       0.003
   0.47619048  0.04761905  0.00000000       0.003
  -0.47619048  0.04761905  0.00000000       0.003
  -0.42857143  0.04761905  0.00000000       0.003
  -0.38095238  0.04761905  0.00000000       0.003
  -0.33333333  0.04761905  0.00000000       0.003
  -0.28571429  0.04761905  0.00000000       0.003
  -0.23809524  0.04761905  0.00000000       0.003
  -0.19047619  0.04761905  0.00000000       0.003
  -0.14285714  0.04761905  0.00000000       0.003
  -0.09523810  0.04761905  0.00000000       0.003
  -0.04761905  0.04761905  0.00000000       0.001
   0.09523810  0.09523810  0.00000000       0.001
   0.14285714  0.09523810  0.00000000       0.003
   0.19047619  0.09523810  0.00000000       0.003
   0.23809524  0.09523810  0.00000000       0.003
   0.28571429  0.09523810  0.00000000       0.003
   0.33333333  0.09523810  0.00000000       0.003
   0.38095238  0.09523810  0.00000000       0.003
   0.42857143  0.09523810  0.00000000       0.003
   0.47619048  0.09523810  0.00000000       0.003
  -0.47619048  0.09523810  0.00000000       0.003
  -0.42857143  0.09523810  0.00000000       0.003
  -0.38095238  0.09523810  0.00000000       0.003
  -0.33333333  0.09523810  0.00000000       0.003
  -0.28571429  0.09523810  0.00000000       0.003
  -0.23809524  0.09523810  0.00000000       0.003
  -0.19047619  0.09523810  0.00000000       0.003
  -0.14285714  0.09523810  0.00000000       0.003
  -0.09523810  0.09523810  0.00000000       0.001
   0.14285714  0.14285714  0.00000000       0.001
   0.19047619  0.14285714  0.00000000       0.003
   0.23809524  0.14285714  0.00000000       0.003
   0.28571429  0.14285714  0.00000000       0.003
   0.33333333  0.14285714  0.00000000       0.003
   0.38095238  0.14285714  0.00000000       0.003
   0.42857143  0.14285714  0.00000000       0.003
   0.47619048  0.14285714  0.00000000       0.003
  -0.47619048  0.14285714  0.00000000       0.003
  -0.42857143  0.14285714  0.00000000       0.003
  -0.38095238  0.14285714  0.00000000       0.003
  -0.33333333  0.14285714  0.00000000       0.003
  -0.28571429  0.14285714  0.00000000       0.003
  -0.23809524  0.14285714  0.00000000       0.003
  -0.19047619  0.14285714  0.00000000       0.003
  -0.14285714  0.14285714  0.00000000       0.001
   0.19047619  0.19047619  0.00000000       0.001
   0.23809524  0.19047619  0.00000000       0.003
   0.28571429  0.19047619  0.00000000       0.003
   0.33333333  0.19047619  0.00000000       0.003
   0.38095238  0.19047619  0.00000000       0.003
   0.42857143  0.19047619  0.00000000       0.003
   0.47619048  0.19047619  0.00000000       0.003
  -0.47619048  0.19047619  0.00000000       0.003
  -0.42857143  0.19047619  0.00000000       0.003
  -0.38095238  0.19047619  0.00000000       0.003
  -0.33333333  0.19047619  0.00000000       0.003
  -0.28571429  0.19047619  0.00000000       0.003
  -0.23809524  0.19047619  0.00000000       0.003
  -0.19047619  0.19047619  0.00000000       0.001
   0.23809524  0.23809524  0.00000000       0.001
   0.28571429  0.23809524  0.00000000       0.003
   0.33333333  0.23809524  0.00000000       0.003
   0.38095238  0.23809524  0.00000000       0.003
   0.42857143  0.23809524  0.00000000       0.003
   0.47619048  0.23809524  0.00000000       0.003
  -0.47619048  0.23809524  0.00000000       0.003
  -0.42857143  0.23809524  0.00000000       0.003
  -0.38095238  0.23809524  0.00000000       0.003
  -0.33333333  0.23809524  0.00000000       0.003
  -0.28571429  0.23809524  0.00000000       0.003
  -0.23809524  0.23809524  0.00000000       0.001
   0.28571429  0.28571429  0.00000000       0.001
   0.33333333  0.28571429  0.00000000       0.003
   0.38095238  0.28571429  0.00000000       0.003
   0.42857143  0.28571429  0.00000000       0.003
   0.47619048  0.28571429  0.00000000       0.003
  -0.47619048  0.28571429  0.00000000       0.003
  -0.42857143  0.28571429  0.00000000       0.003
  -0.38095238  0.28571429  0.00000000       0.003
  -0.33333333  0.28571429  0.00000000       0.003
  -0.28571429  0.28571429  0.00000000       0.001
   0.33333333  0.33333333  0.00000000       0.001
   0.38095238  0.33333333  0.00000000       0.003
   0.42857143  0.33333333  0.00000000       0.003
   0.47619048  0.33333333  0.00000000       0.003
  -0.47619048  0.33333333  0.00000000       0.003
  -0.42857143  0.33333333  0.00000000       0.003
  -0.38095238  0.33333333  0.00000000       0.003
  -0.33333333  0.33333333  0.00000000       0.001
   0.38095238  0.38095238  0.00000000       0.001
   0.42857143  0.38095238  0.00000000       0.003
   0.47619048  0.38095238  0.00000000       0.003
  -0.47619048  0.38095238  0.00000000       0.003
  -0.42857143  0.38095238  0.00000000       0.003
  -0.38095238  0.38095238  0.00000000       0.001
   0.42857143  0.42857143  0.00000000       0.001
   0.47619048  0.42857143  0.00000000       0.003
  -0.47619048  0.42857143  0.00000000       0.003
  -0.42857143  0.42857143  0.00000000       0.001
   0.47619048  0.47619048  0.00000000       0.001
  -0.47619048  0.47619048  0.00000000       0.001
   0.14285714  0.09523810  0.04761905       0.003
   0.19047619  0.09523810  0.04761905       0.005
   0.23809524  0.09523810  0.04761905       0.005
   0.28571429  0.09523810  0.04761905       0.005
   0.33333333  0.09523810  0.04761905       0.005
   0.38095238  0.09523810  0.04761905       0.005
   0.42857143  0.09523810  0.04761905       0.005
   0.47619048  0.09523810  0.04761905       0.005
  -0.47619048  0.09523810  0.04761905       0.005
   0.19047619  0.14285714  0.04761905       0.003
   0.23809524  0.14285714  0.04761905       0.005
   0.28571429  0.14285714  0.04761905       0.005
   0.33333333  0.14285714  0.04761905       0.005
   0.38095238  0.14285714  0.04761905       0.005
   0.42857143  0.14285714  0.04761905       0.005
   0.47619048  0.14285714  0.04761905       0.005
  -0.47619048  0.14285714  0.04761905       0.005
  -0.42857143  0.14285714  0.04761905       0.005
  -0.38095238  0.14285714  0.04761905       0.005
  -0.33333333  0.14285714  0.04761905       0.005
  -0.28571429  0.14285714  0.04761905       0.005
  -0.23809524  0.14285714  0.04761905       0.005
  -0.19047619  0.14285714  0.04761905       0.005
  -0.14285714  0.14285714  0.04761905       0.005
  -0.09523810  0.14285714  0.04761905       0.003
   0.23809524  0.19047619  0.04761905       0.003
   0.28571429  0.19047619  0.04761905       0.005
   0.33333333  0.19047619  0.04761905       0.005
   0.38095238  0.19047619  0.04761905       0.005
   0.42857143  0.19047619  0.04761905       0.005
   0.47619048  0.19047619  0.04761905       0.005
  -0.47619048  0.19047619  0.04761905       0.005
  -0.42857143  0.19047619  0.04761905       0.005
  -0.38095238  0.19047619  0.04761905       0.005
  -0.33333333  0.19047619  0.04761905       0.005
  -0.28571429  0.19047619  0.04761905       0.005
  -0.23809524  0.19047619  0.04761905       0.005
  -0.19047619  0.19047619  0.04761905       0.005
  -0.14285714  0.19047619  0.04761905       0.003
   0.28571429  0.23809524  0.04761905       0.003
   0.33333333  0.23809524  0.04761905       0.005
   0.38095238  0.23809524  0.04761905       0.005
   0.42857143  0.23809524  0.04761905       0.005
   0.47619048  0.23809524  0.04761905       0.005
  -0.47619048  0.23809524  0.04761905       0.005
  -0.42857143  0.23809524  0.04761905       0.005
  -0.38095238  0.23809524  0.04761905       0.005
  -0.33333333  0.23809524  0.04761905       0.005
  -0.28571429  0.23809524  0.04761905       0.005
  -0.23809524  0.23809524  0.04761905       0.005
  -0.19047619  0.23809524  0.04761905       0.003
   0.33333333  0.28571429  0.04761905       0.003
   0.38095238  0.28571429  0.04761905       0.005
   0.42857143  0.28571429  0.04761905       0.005
   0.47619048  0.28571429  0.04761905       0.005
  -0.47619048  0.28571429  0.04761905       0.005
  -0.42857143  0.28571429  0.04761905       0.005
  -0.38095238  0.28571429  0.04761905       0.005
  -0.33333333  0.28571429  0.04761905       0.005
  -0.28571429  0.28571429  0.04761905       0.005
  -0.23809524  0.28571429  0.04761905       0.003
   0.38095238  0.33333333  0.04761905       0.003
   0.42857143  0.33333333  0.04761905       0.005
   0.47619048  0.33333333  0.04761905       0.005
  -0.47619048  0.33333333  0.04761905       0.005
  -0.42857143  0.33333333  0.04761905       0.005
  -0.38095238  0.33333333  0.04761905       0.005
  -0.33333333  0.33333333  0.04761905       0.005
  -0.28571429  0.33333333  0.04761905       0.003
   0.42857143  0.38095238  0.04761905       0.003
   0.47619048  0.38095238  0.04761905       0.005
  -0.47619048  0.38095238  0.04761905       0.005
  -0.42857143  0.38095238  0.04761905       0.005
  -0.38095238  0.38095238  0.04761905       0.005
  -0.33333333  0.38095238  0.04761905       0.003
   0.47619048  0.42857143  0.04761905       0.003
  -0.47619048  0.42857143  0.04761905       0.005
  -0.42857143  0.42857143  0.04761905       0.005
  -0.38095238  0.42857143  0.04761905       0.003
  -0.47619048  0.47619048  0.04761905       0.003
  -0.42857143  0.47619048  0.04761905       0.003
   0.28571429  0.19047619  0.09523810       0.003
   0.33333333  0.19047619  0.09523810       0.005
   0.38095238  0.19047619  0.09523810       0.005
   0.42857143  0.19047619  0.09523810       0.005
   0.47619048  0.19047619  0.09523810       0.005
  -0.47619048  0.19047619  0.09523810       0.005
  -0.42857143  0.19047619  0.09523810       0.005
   0.33333333  0.23809524  0.09523810       0.003
   0.38095238  0.23809524  0.09523810       0.005
   0.42857143  0.23809524  0.09523810       0.005
   0.47619048  0.23809524  0.09523810       0.005
  -0.47619048  0.23809524  0.09523810       0.005
  -0.42857143  0.23809524  0.09523810       0.005
  -0.38095238  0.23809524  0.09523810       0.005
  -0.33333333  0.23809524  0.09523810       0.005
  -0.28571429  0.23809524  0.09523810       0.005
  -0.23809524  0.23809524  0.09523810       0.005
  -0.19047619  0.23809524  0.09523810       0.005
  -0.14285714  0.23809524  0.09523810       0.003
   0.38095238  0.28571429  0.09523810       0.003
   0.42857143  0.28571429  0.09523810       0.005
   0.47619048  0.28571429  0.09523810       0.005
  -0.47619048  0.28571429  0.09523810       0.005
  -0.42857143  0.28571429  0.09523810       0.005
  -0.38095238  0.28571429  0.09523810       0.005
  -0.33333333  0.28571429  0.09523810       0.005
  -0.28571429  0.28571429  0.09523810       0.005
  -0.23809524  0.28571429  0.09523810       0.005
  -0.19047619  0.28571429  0.09523810       0.003
   0.42857143  0.33333333  0.09523810       0.003
   0.47619048  0.33333333  0.09523810       0.005
  -0.47619048  0.33333333  0.09523810       0.005
  -0.42857143  0.33333333  0.09523810       0.005
  -0.38095238  0.33333333  0.09523810       0.005
  -0.33333333  0.33333333  0.09523810       0.005
  -0.28571429  0.33333333  0.09523810       0.005
  -0.23809524  0.33333333  0.09523810       0.003
   0.47619048  0.38095238  0.09523810       0.003
  -0.47619048  0.38095238  0.09523810       0.005
  -0.42857143  0.38095238  0.09523810       0.005
  -0.38095238  0.38095238  0.09523810       0.005
  -0.33333333  0.38095238  0.09523810       0.005
  -0.28571429  0.38095238  0.09523810       0.003
  -0.47619048  0.42857143  0.09523810       0.003
  -0.42857143  0.42857143  0.09523810       0.005
  -0.38095238  0.42857143  0.09523810       0.005
  -0.33333333  0.42857143  0.09523810       0.003
  -0.42857143  0.47619048  0.09523810       0.003
  -0.38095238  0.47619048  0.09523810       0.003
   0.42857143  0.28571429  0.14285714       0.003
   0.47619048  0.28571429  0.14285714       0.005
  -0.47619048  0.28571429  0.14285714       0.005
  -0.42857143  0.28571429  0.14285714       0.005
  -0.38095238  0.28571429  0.14285714       0.005
   0.47619048  0.33333333  0.14285714       0.003
  -0.47619048  0.33333333  0.14285714       0.005
  -0.42857143  0.33333333  0.14285714       0.005
  -0.38095238  0.33333333  0.14285714       0.005
  -0.33333333  0.33333333  0.14285714       0.005
  -0.28571429  0.33333333  0.14285714       0.005
  -0.23809524  0.33333333  0.14285714       0.005
  -0.19047619  0.33333333  0.14285714       0.003
  -0.47619048  0.38095238  0.14285714       0.003
  -0.42857143  0.38095238  0.14285714       0.005
  -0.38095238  0.38095238  0.14285714       0.005
  -0.33333333  0.38095238  0.14285714       0.005
  -0.28571429  0.38095238  0.14285714       0.005
  -0.23809524  0.38095238  0.14285714       0.003
  -0.42857143  0.42857143  0.14285714       0.003
  -0.38095238  0.42857143  0.14285714       0.005
  -0.33333333  0.42857143  0.14285714       0.005
  -0.28571429  0.42857143  0.14285714       0.003
  -0.38095238  0.47619048  0.14285714       0.003
  -0.33333333  0.47619048  0.14285714       0.003
  -0.42857143  0.38095238  0.19047619       0.003
  -0.38095238  0.38095238  0.19047619       0.005
  -0.33333333  0.38095238  0.19047619       0.005
  -0.38095238  0.42857143  0.19047619       0.003
  -0.33333333  0.42857143  0.19047619       0.005
  -0.28571429  0.42857143  0.19047619       0.005
  -0.23809524  0.42857143  0.19047619       0.003
  -0.33333333  0.47619048  0.19047619       0.003
  -0.28571429  0.47619048  0.19047619       0.003
  -0.28571429  0.47619048  0.23809524       0.003
 
 position of ions in fractional coordinates (direct lattice) 
   0.87500000  0.87500000  0.87500000
   0.12500000  0.12500000  0.12500000
 
 position of ions in cartesian coordinates  (Angst):
   3.88916850  2.75005850  6.73623650
   0.55559550  0.39286550  0.96231950
 


--------------------------------------------------------------------------------------------------------


 k-point   1 :   0.0000 0.0000 0.0000  plane waves:     609
 k-point   2 :   0.0476 0.0000 0.0000  plane waves:     600
 k-point   3 :   0.0952 0.0000 0.0000  plane waves:     585
 k-point   4 :   0.1429-0.0000 0.0000  plane waves:     585
 k-point   5 :   0.1905 0.0000 0.0000  plane waves:     585
 k-point   6 :   0.2381 0.0000 0.0000  plane waves:     589
 k-point   7 :   0.2857-0.0000 0.0000  plane waves:     598
 k-point   8 :   0.3333 0.0000 0.0000  plane waves:     601
 k-point   9 :   0.3810 0.0000 0.0000  plane waves:     601
 k-point  10 :   0.4286 0.0000 0.0000  plane waves:     595
 k-point  11 :   0.4762 0.0000 0.0000  plane waves:     598
 k-point  12 :   0.0476 0.0476 0.0000  plane waves:     601
 k-point  13 :   0.0952 0.0476 0.0000  plane waves:     588
 k-point  14 :   0.1429 0.0476 0.0000  plane waves:     586
 k-point  15 :   0.1905 0.0476 0.0000  plane waves:     587
 k-point  16 :   0.2381 0.0476 0.0000  plane waves:     590
 k-point  17 :   0.2857 0.0476 0.0000  plane waves:     599
 k-point  18 :   0.3333 0.0476 0.0000  plane waves:     602
 k-point  19 :   0.3810 0.0476 0.0000  plane waves:     602
 k-point  20 :   0.4286 0.0476 0.0000  plane waves:     599
 k-point  21 :   0.4762 0.0476 0.0000  plane waves:     597
 k-point  22 :  -0.4762 0.0476 0.0000  plane waves:     599
 k-point  23 :  -0.4286 0.0476 0.0000  plane waves:     597
 k-point  24 :  -0.3810 0.0476 0.0000  plane waves:     601
 k-point  25 :  -0.3333 0.0476 0.0000  plane waves:     605
 k-point  26 :  -0.2857 0.0476 0.0000  plane waves:     602
 k-point  27 :  -0.2381 0.0476 0.0000  plane waves:     596
 k-point  28 :  -0.1905 0.0476 0.0000  plane waves:     589
 k-point  29 :  -0.1429 0.0476 0.0000  plane waves:     589
 k-point  30 :  -0.0952 0.0476 0.0000  plane waves:     587
 k-point  31 :  -0.0476 0.0476 0.0000  plane waves:     595
 k-point  32 :   0.0952 0.0952 0.0000  plane waves:     589
 k-point  33 :   0.1429 0.0952 0.0000  plane waves:     589
 k-point  34 :   0.1905 0.0952 0.0000  plane waves:     587
 k-point  35 :   0.2381 0.0952 0.0000  plane waves:     589
 k-point  36 :   0.2857 0.0952 0.0000  plane waves:     596
 k-point  37 :   0.3333 0.0952 0.0000  plane waves:     599
 k-point  38 :   0.3810 0.0952 0.0000  plane waves:     601
 k-point  39 :   0.4286 0.0952 0.0000  plane waves:     598
 k-point  40 :   0.4762 0.0952 0.0000  plane waves:     596
 k-point  41 :  -0.4762 0.0952 0.0000  plane waves:     597
 k-point  42 :  -0.4286 0.0952 0.0000  plane waves:     597
 k-point  43 :  -0.3810 0.0952 0.0000  plane waves:     599
 k-point  44 :  -0.3333 0.0952 0.0000  plane waves:     603
 k-point  45 :  -0.2857 0.0952 0.0000  plane waves:     600
 k-point  46 :  -0.2381 0.0952 0.0000  plane waves:     594
 k-point  47 :  -0.1905 0.0952 0.0000  plane waves:     597
 k-point  48 :  -0.1429 0.0952 0.0000  plane waves:     590
 k-point  49 :  -0.0952 0.0952 0.0000  plane waves:     594
 k-point  50 :   0.1429 0.1429 0.0000  plane waves:     593
 k-point  51 :   0.1905 0.1429 0.0000  plane waves:     588
 k-point  52 :   0.2381 0.1429 0.0000  plane waves:     590
 k-point  53 :   0.2857 0.1429 0.0000  plane waves:     602
 k-point  54 :   0.3333 0.1429 0.0000  plane waves:     602
 k-point  55 :   0.3810 0.1429 0.0000  plane waves:     601
 k-point  56 :   0.4286 0.1429 0.0000  plane waves:     595
 k-point  57 :   0.4762 0.1429 0.0000  plane waves:     598
 k-point  58 :  -0.4762 0.1429 0.0000  plane waves:     596
 k-point  59 :  -0.4286 0.1429 0.0000  plane waves:     598
 k-point  60 :  -0.3810 0.1429 0.0000  plane waves:     598
 k-point  61 :  -0.3333 0.1429 0.0000  plane waves:     596
 k-point  62 :  -0.2857 0.1429 0.0000  plane waves:     599
 k-point  63 :  -0.2381 0.1429 0.0000  plane waves:     599
 k-point  64 :  -0.1905 0.1429 0.0000  plane waves:     598
 k-point  65 :  -0.1429 0.1429 0.0000  plane waves:     594
 k-point  66 :   0.1905 0.1905 0.0000  plane waves:     584
 k-point  67 :   0.2381 0.1905 0.0000  plane waves:     588
 k-point  68 :   0.2857 0.1905 0.0000  plane waves:     591
 k-point  69 :   0.3333 0.1905 0.0000  plane waves:     602
 k-point  70 :   0.3810 0.1905 0.0000  plane waves:     602
 k-point  71 :   0.4286 0.1905 0.0000  plane waves:     603
 k-point  72 :   0.4762 0.1905 0.0000  plane waves:     598
 k-point  73 :  -0.4762 0.1905 0.0000  plane waves:     598
 k-point  74 :  -0.4286 0.1905 0.0000  plane waves:     597
 k-point  75 :  -0.3810 0.1905 0.0000  plane waves:     599
 k-point  76 :  -0.3333 0.1905 0.0000  plane waves:     599
 k-point  77 :  -0.2857 0.1905 0.0000  plane waves:     604
 k-point  78 :  -0.2381 0.1905 0.0000  plane waves:     601
 k-point  79 :  -0.1905 0.1905 0.0000  plane waves:     596
 k-point  80 :   0.2381 0.2381 0.0000  plane waves:     592
 k-point  81 :   0.2857 0.2381 0.0000  plane waves:     590
 k-point  82 :   0.3333 0.2381 0.0000  plane waves:     603
 k-point  83 :   0.3810 0.2381 0.0000  plane waves:     603
 k-point  84 :   0.4286 0.2381 0.0000  plane waves:     604
 k-point  85 :   0.4762 0.2381 0.0000  plane waves:     605
 k-point  86 :  -0.4762 0.2381 0.0000  plane waves:     601
 k-point  87 :  -0.4286 0.2381 0.0000  plane waves:     597
 k-point  88 :  -0.3810 0.2381 0.0000  plane waves:     599
 k-point  89 :  -0.3333 0.2381 0.0000  plane waves:     597
 k-point  90 :  -0.2857 0.2381 0.0000  plane waves:     603
 k-point  91 :  -0.2381 0.2381 0.0000  plane waves:     600
 k-point  92 :   0.2857 0.2857 0.0000  plane waves:     592
 k-point  93 :   0.3333 0.2857 0.0000  plane waves:     597
 k-point  94 :   0.3810 0.2857 0.0000  plane waves:     599
 k-point  95 :   0.4286 0.2857 0.0000  plane waves:     597
 k-point  96 :   0.4762 0.2857 0.0000  plane waves:     602
 k-point  97 :  -0.4762 0.2857 0.0000  plane waves:     601
 k-point  98 :  -0.4286 0.2857 0.0000  plane waves:     601
 k-point  99 :  -0.3810 0.2857 0.0000  plane waves:     597
 k-point 100 :  -0.3333 0.2857 0.0000  plane waves:     596
 k-point 101 :  -0.2857 0.2857 0.0000  plane waves:     610
 k-point 102 :   0.3333 0.3333 0.0000  plane waves:     612
 k-point 103 :   0.3810 0.3333 0.0000  plane waves:     601
 k-point 104 :   0.4286 0.3333 0.0000  plane waves:     599
 k-point 105 :   0.4762 0.3333 0.0000  plane waves:     600
 k-point 106 :  -0.4762 0.3333 0.0000  plane waves:     604
[...]
      8      13.6016      0.00000

 k-point   252 :       0.4286    0.2857    0.1429
  band No.  band energies     occupation 
      1      -4.5108      2.00000
      2       0.7525      2.00000
      3       2.5734      2.00000
      4       3.8707      2.00000
      5       8.2037      0.00000
      6       9.4409      0.00000
      7       9.7343      0.00000
      8      11.7048      0.00000

 k-point   253 :       0.4762    0.2857    0.1429
  band No.  band energies     occupation 
      1      -4.1779      2.00000
      2       0.2423      2.00000
      3       2.2843      2.00000
      4       3.6675      2.00000
      5       8.4684      0.00000
      6       9.5124      0.00000
      7       9.7144      0.00000
      8      12.0047      0.00000

 k-point   254 :      -0.4762    0.2857    0.1429
  band No.  band energies     occupation 
      1      -3.8245      2.00000
      2      -0.2832      2.00000
      3       2.1056      2.00000
      4       3.4839      2.00000
      5       8.5996      0.00000
      6       9.2912      0.00000
      7      10.2899      0.00000
      8      12.1260      0.00000

 k-point   255 :      -0.4286    0.2857    0.1429
  band No.  band energies     occupation 
      1      -3.4900      2.00000
      2      -0.7502      2.00000
      3       2.0055      2.00000
      4       3.3471      2.00000
      5       8.6856      0.00000
      6       9.0902      0.00000
      7      11.0524      0.00000
      8      12.1569      0.00000

 k-point   256 :      -0.3810    0.2857    0.1429
  band No.  band energies     occupation 
      1      -3.2613      2.00000
      2      -1.0500      2.00000
      3       1.9612      2.00000
      4       3.2742      2.00000
      5       8.7857      0.00000
      6       8.9204      0.00000
      7      11.9039      0.00000
      8      12.1646      0.00000

 k-point   257 :       0.4762    0.3333    0.1429
  band No.  band energies     occupation 
      1      -4.0468      2.00000
      2       0.1611      2.00000
      3       2.3304      2.00000
      4       3.3295      2.00000
      5       8.0149      0.00000
      6       8.9448      0.00000
      7      10.3122      0.00000
      8      12.6603      0.00000

 k-point   258 :      -0.4762    0.3333    0.1429
  band No.  band energies     occupation 
      1      -3.6979      2.00000
      2      -0.2907      2.00000
      3       2.0657      2.00000
      4       3.1340      2.00000
      5       8.2833      0.00000
      6       9.2846      0.00000
      7      10.1135      0.00000
      8      12.9718      0.00000

 k-point   259 :      -0.4286    0.3333    0.1429
  band No.  band energies     occupation 
      1      -3.3491      2.00000
      2      -0.7282      2.00000
      3       1.8745      2.00000
      4       2.9959      2.00000
      5       8.4064      0.00000
      6       9.7465      0.00000
      7      10.1182      0.00000
      8      13.0828      0.00000

 k-point   260 :      -0.3810    0.3333    0.1429
  band No.  band energies     occupation 
      1      -3.0689      2.00000
      2      -1.0640      2.00000
      3       1.7438      2.00000
      4       2.9361      2.00000
      5       8.5115      0.00000
      6       9.6561      0.00000
      7      10.8553      0.00000
      8      12.9454      0.00000

 k-point   261 :      -0.3333    0.3333    0.1429
  band No.  band energies     occupation 
      1      -2.9889      2.00000
      2      -1.1556      2.00000
      3       1.6704      2.00000
      4       2.9598      2.00000
      5       8.6461      0.00000
      6       9.5127      0.00000
      7      11.6751      0.00000
      8      12.0892      0.00000

 k-point   262 :      -0.2857    0.3333    0.1429
  band No.  band energies     occupation 
      1      -3.1680      2.00000
      2      -0.9442      2.00000
      3       1.6638      2.00000
      4       3.0606      2.00000
      5       8.8195      0.00000
      6       9.3870      0.00000
      7      11.0560      0.00000
      8      12.7963      0.00000

 k-point   263 :      -0.2381    0.3333    0.1429
  band No.  band energies     occupation 
      1      -3.4872      2.00000
      2      -0.5620      2.00000
      3       1.7451      2.00000
      4       3.2258      2.00000
      5       9.0288      0.00000
      6       9.2463      0.00000
      7      10.3017      0.00000
      8      12.8874      0.00000

 k-point   264 :      -0.1905    0.3333    0.1429
  band No.  band energies     occupation 
      1      -3.8396      2.00000
      2      -0.1419      2.00000
      3       1.9440      2.00000
      4       3.4371      2.00000
      5       8.9518      0.00000
      6       9.2672      0.00000
      7       9.8307      0.00000
      8      12.5594      0.00000

 k-point   265 :      -0.4762    0.3810    0.1429
  band No.  band energies     occupation 
      1      -3.5256      2.00000
      2      -0.4494      2.00000
      3       2.1703      2.00000
      4       2.8648      2.00000
      5       7.8917      0.00000
      6       8.5285      0.00000
      7      10.9817      0.00000
      8      13.6236      0.00000

 k-point   266 :      -0.4286    0.3810    0.1429
  band No.  band energies     occupation 
      1      -3.1711      2.00000
      2      -0.8420      2.00000
      3       1.9271      2.00000
      4       2.6968      2.00000
      5       8.1490      0.00000
      6       8.9869      0.00000
      7      10.7789      0.00000
      8      13.8995      0.00000

 k-point   267 :      -0.3810    0.3810    0.1429
  band No.  band energies     occupation 
      1      -2.8533      2.00000
      2      -1.1807      2.00000
      3       1.7099      2.00000
      4       2.6384      2.00000
      5       8.2689      0.00000
      6       9.7230      0.00000
      7      10.6179      0.00000
      8      13.0522      0.00000

 k-point   268 :      -0.3333    0.3810    0.1429
  band No.  band energies     occupation 
      1      -2.7009      2.00000
      2      -1.3357      2.00000
      3       1.5507      2.00000
      4       2.6797      2.00000
      5       8.4018      0.00000
      6      10.2387      0.00000
      7      10.8162      0.00000
      8      12.0782      0.00000

 k-point   269 :      -0.2857    0.3810    0.1429
  band No.  band energies     occupation 
      1      -2.8347      2.00000
      2      -1.1930      2.00000
      3       1.4829      2.00000
      4       2.8025      2.00000
      5       8.5744      0.00000
      6      10.1586      0.00000
      7      11.1036      0.00000
      8      11.7817      0.00000

 k-point   270 :      -0.2381    0.3810    0.1429
  band No.  band energies     occupation 
      1      -3.1400      2.00000
      2      -0.8846      2.00000
      3       1.5388      2.00000
      4       2.9904      2.00000
      5       8.7870      0.00000
      6       9.8657      0.00000
      7      10.4915      0.00000
      8      12.7630      0.00000

 k-point   271 :      -0.4286    0.4286    0.1429
  band No.  band energies     occupation 
      1      -2.9556      2.00000
      2      -1.0787      2.00000
      3       2.1002      2.00000
      4       2.5052      2.00000
      5       7.8432      0.00000
      6       8.2139      0.00000
      7      11.7154      0.00000
      8      14.1885      0.00000

 k-point   272 :      -0.3810    0.4286    0.1429
  band No.  band energies     occupation 
      1      -2.6125      2.00000
      2      -1.4110      2.00000
      3       1.8648      2.00000
      4       2.4003      2.00000
      5       8.0688      0.00000
      6       8.8053      0.00000
      7      11.5173      0.00000
      8      13.1853      0.00000

 k-point   273 :      -0.3333    0.4286    0.1429
  band No.  band energies     occupation 
      1      -2.4031      2.00000
      2      -1.6019      2.00000
      3       1.6219      2.00000
      4       2.4528      2.00000
      5       8.1984      0.00000
      6       9.6422      0.00000
      7      11.3452      0.00000
      8      12.1849      0.00000

 k-point   274 :      -0.2857    0.4286    0.1429
  band No.  band energies     occupation 
      1      -2.5301      2.00000
      2      -1.4678      2.00000
      3       1.4771      2.00000
      4       2.5947      2.00000
      5       8.3649      0.00000
      6      10.4566      0.00000
      7      11.2035      0.00000
      8      11.3602      0.00000

 k-point   275 :      -0.3810    0.4762    0.1429
  band No.  band energies     occupation 
      1      -2.3479      2.00000
      2      -1.7168      2.00000
      3       2.1275      2.00000
      4       2.2601      2.00000
      5       7.8766      0.00000
      6       7.9981      0.00000
      7      12.5076      0.00000
      8      13.3503      0.00000

 k-point   276 :      -0.3333    0.4762    0.1429
  band No.  band energies     occupation 
      1      -2.1395      2.00000
      2      -1.8871      2.00000
      3       1.8533      2.00000
      4       2.2904      2.00000
      5       8.0425      0.00000
      6       8.7443      0.00000
      7      12.2695      0.00000
      8      12.3784      0.00000

 k-point   277 :      -0.4286    0.3810    0.1905
  band No.  band energies     occupation 
      1      -3.3484      2.00000
      2      -0.6491      2.00000
      3       1.8139      2.00000
      4       2.8877      2.00000
      5       8.8356      0.00000
      6       9.3628      0.00000
      7       9.9321      0.00000
      8      13.5827      0.00000

 k-point   278 :      -0.3810    0.3810    0.1905
  band No.  band energies     occupation 
      1      -3.0071      2.00000
      2      -1.0073      2.00000
      3       1.6605      2.00000
      4       2.6996      2.00000
      5       9.0966      0.00000
      6       9.5497      0.00000
      7      10.1139      0.00000
      8      12.8927      0.00000

 k-point   279 :      -0.3333    0.3810    0.1905
  band No.  band energies     occupation 
      1      -2.7588      2.00000
      2      -1.2688      2.00000
      3       1.5906      2.00000
      4       2.5982      2.00000
      5       9.1866      0.00000
      6       9.4711      0.00000
      7      10.8769      0.00000
      8      11.9048      0.00000

 k-point   280 :      -0.3810    0.4286    0.1905
  band No.  band energies     occupation 
      1      -2.8205      2.00000
      2      -1.1731      2.00000
      3       1.7871      2.00000
      4       2.4273      2.00000
      5       8.7866      0.00000
      6       9.1059      0.00000
      7      10.5745      0.00000
      8      13.0207      0.00000

 k-point   281 :      -0.3333    0.4286    0.1905
  band No.  band energies     occupation 
      1      -2.5172      2.00000
      2      -1.4608      2.00000
      3       1.6739      2.00000
      4       2.2902      2.00000
      5       9.0193      0.00000
      6       9.7368      0.00000
      7      10.4428      0.00000
      8      11.9956      0.00000

 k-point   282 :      -0.2857    0.4286    0.1905
  band No.  band energies     occupation 
      1      -2.4414      2.00000
      2      -1.5295      2.00000
      3       1.5864      2.00000
      4       2.3117      2.00000
      5       9.1597      0.00000
      6      10.0563      0.00000
      7      10.7643      0.00000
      8      11.1437      0.00000

 k-point   283 :      -0.2381    0.4286    0.1905
  band No.  band energies     occupation 
      1      -2.6728      2.00000
      2      -1.3070      2.00000
      3       1.5688      2.00000
      4       2.4605      2.00000
      5       9.3246      0.00000
      6       9.8109      0.00000
      7      10.2857      0.00000
      8      11.8567      0.00000

 k-point   284 :      -0.3333    0.4762    0.1905
  band No.  band energies     occupation 
      1      -2.2707      2.00000
      2      -1.7165      2.00000
      3       1.8746      2.00000
      4       2.0865      2.00000
      5       8.8123      0.00000
      6       8.9178      0.00000
      7      11.3200      0.00000
      8      12.1403      0.00000

 k-point   285 :      -0.2857    0.4762    0.1905
  band No.  band energies     occupation 
      1      -2.1577      2.00000
      2      -1.8053      2.00000
      3       1.7225      2.00000
      4       2.1046      2.00000
      5       8.9928      0.00000
      6       9.7189      0.00000
      7      11.1284      0.00000
      8      11.2002      0.00000

 k-point   286 :      -0.2857    0.4762    0.2381
  band No.  band energies     occupation 
      1      -2.2027      2.00000
      2      -1.7451      2.00000
      3       1.7306      2.00000
      4       2.0305      2.00000
      5       9.7448      0.00000
      6       9.8017      0.00000
      7      10.3891      0.00000
      8      11.0245      0.00000


--------------------------------------------------------------------------------------------------------


 soft charge-density along one line, spin component           1
         0         1         2         3         4         5         6         7         8         9
 total charge-density along one line
 
 pseudopotential strength for first ion, spin component:           1
 18.437  25.722   0.000  -0.000   0.000   0.000  -0.000   0.000
 25.722  35.892   0.000  -0.000   0.000   0.000  -0.000   0.000
  0.000   0.000   4.181  -0.000  -0.000   7.791  -0.000  -0.000
 -0.000  -0.000  -0.000   4.181  -0.000  -0.000   7.791  -0.000
  0.000   0.000  -0.000  -0.000   4.181  -0.000  -0.000   7.791
  0.000   0.000   7.791  -0.000  -0.000  14.528  -0.000  -0.000
 -0.000  -0.000  -0.000   7.791  -0.000  -0.000  14.528  -0.000
  0.000   0.000  -0.000  -0.000   7.791  -0.000  -0.000  14.528
 total augmentation occupancy for first ion, spin component:           1
  5.531  -2.065  -0.000  -0.000   0.000  -0.000   0.000   0.000
 -2.065   0.887   0.000  -0.000   0.000   0.000   0.000  -0.000
 -0.000   0.000   2.942  -0.000   0.000  -0.663   0.000  -0.000
  0.000  -0.000  -0.000   2.942  -0.000   0.000  -0.663   0.000
  0.000  -0.000   0.000  -0.000   2.942  -0.000   0.000  -0.663
  0.000  -0.000  -0.663   0.000  -0.000   0.158  -0.000   0.000
 -0.000   0.000   0.000  -0.663   0.000  -0.000   0.158  -0.000
  0.000  -0.000  -0.000   0.000  -0.663   0.000  -0.000   0.158


------------------------ aborting loop because EDIFF is reached ----------------------------------------


    CHARGE:  cpu time    0.1580: real time    0.1590
    FORLOC:  cpu time    0.0010: real time    0.0017
    FORNL :  cpu time    0.1810: real time    0.1818
    STRESS:  cpu time    1.9297: real time    1.9322
    FORCOR:  cpu time    0.0310: real time    0.0311
    FORHAR:  cpu time    0.0060: real time    0.0059
    MIXING:  cpu time    0.0000: real time    0.0012
    OFIELD:  cpu time    0.0010: real time    0.0002

  FORCE on cell =-STRESS in cart. coord.  units (eV):
  Direction    XX          YY          ZZ          XY          YZ          ZX
  --------------------------------------------------------------------------------------
  Alpha Z     3.29544     3.29544     3.29544
  Ewald     -75.66558   -75.66565   -75.66557     0.00001    -0.00000     0.00000
  Hartree     5.05399     5.05398     5.05399     0.00000     0.00000     0.00000
  E(xc)     -25.25216   -25.25216   -25.25216    -0.00000    -0.00000    -0.00000
  Local     -29.52423   -29.52422   -29.52421    -0.00000     0.00001     0.00001
  n-local    73.88134    77.19409    81.38996    -0.88237    -0.99010    -0.01013
  augment   -11.64879   -11.64879   -11.64881    -0.00000    -0.00001    -0.00001
  Kinetic    53.01980    55.04589    60.69833     0.86295     1.28755    -0.59791
  Fock        0.00000     0.00000     0.00000     0.00000     0.00000     0.00000
  -------------------------------------------------------------------------------------
  Total       0.00178     0.00178     0.00178     0.00000    -0.00000    -0.00000
  in kB       0.06977     0.06977     0.06977     0.00000    -0.00000    -0.00000
  external pressure =        0.07 kB  Pullay stress =        0.00 kB


 VOLUME and BASIS-vectors are now :
 -----------------------------------------------------------------------------
  energy-cutoff  :      350.00
  volume of cell :       40.86
      direct lattice vectors                 reciprocal lattice vectors
     3.348133938  0.000000000  1.933045758     0.298673834 -0.105597105 -0.000000000
     1.116044646  3.156652200  1.933045758     0.000000000  0.316791314  0.000000000
     0.000000000  0.000000000  3.866091516    -0.149336917 -0.105597105  0.258659164

  length of vectors
     3.866091925  3.866092946  3.866091516     0.316791426  0.316791314  0.316791456


 FORCES acting on ions
    electron-ion (+dipol)            ewald-force                    non-local-force                 convergence-correction
 -----------------------------------------------------------------------------------------------
   0.525E-05 0.245E-04 0.591E-07   -.892E-05 -.418E-04 0.954E-15   -.330E-16 0.000E+00 0.180E-15   -.456E-07 -.320E-07 -.791E-07
   -.525E-05 -.245E-04 -.591E-07   0.892E-05 0.418E-04 -.874E-15   0.181E-17 -.555E-16 -.160E-15   0.456E-07 0.320E-07 0.791E-07
 -----------------------------------------------------------------------------------------------
   0.559E-13 -.462E-13 0.127E-12   0.440E-15 -.748E-16 0.801E-16   -.312E-16 -.555E-16 0.208E-16   0.200E-15 -.158E-15 0.210E-15
 
 
 POSITION                                       TOTAL-FORCE (eV/Angst)
 -----------------------------------------------------------------------------------
      3.90616      2.76207      6.76566         0.000000     -0.000000     -0.000000
      0.55802      0.39458      0.96652        -0.000000      0.000000      0.000000
 -----------------------------------------------------------------------------------
    total drift:                                0.000000     -0.000000      0.000000


--------------------------------------------------------------------------------------------------------



  FREE ENERGIE OF THE ION-ELECTRON SYSTEM (eV)
  ---------------------------------------------------
  free  energy   TOTEN  =       -10.84766679 eV

  energy  without entropy=      -10.84766679  energy(sigma->0) =      -10.84766679
 
 d Force = 0.0000000E+00[ 0.000E+00, 0.000E+00]  d Energy = 0.8988284E-03-0.899E-03
 d Force = 0.0000000E+00[ 0.000E+00, 0.000E+00]  d Ewald  = 0.6761275E+00-0.676E+00


--------------------------------------------------------------------------------------------------------


    POTLOK:  cpu time    0.2050: real time    0.2118


--------------------------------------------------------------------------------------------------------




--------------------------------------------------------------------------------------------------------


  
 reached required accuracy - stopping structural energy minimisation
     LOOP+:  cpu time   20.4259: real time   20.7514
    4ORBIT:  cpu time    0.0000: real time    0.0000

 total amount of memory used by VASP MPI-rank0    53077. kBytes
=======================================================================

   base      :      30000. kBytes
   nonl-proj :      11221. kBytes
   fftplans  :       4177. kBytes
   grid      :       1926. kBytes
   one-center:          6. kBytes
   wavefun   :       5747. kBytes
 
  
  
 General timing and accounting informations for this job:
 ========================================================
  
                  Total CPU time used (sec):       82.007
                            User time (sec):       80.936
                          System time (sec):        1.071
                         Elapsed time (sec):       84.181
  
                   Maximum memory used (kb):       80244.
                   Average memory used (kb):          N/A
  
                          Minor page faults:        15481
                          Major page faults:            1
                 Voluntary context switches:        42967
