<?xml version="1.0" encoding="ISO-8859-1"?>
<modeling>
 <generator>
  <i name="program" type="string">vasp </i>
  <i name="version" type="string">6.2.0  </i>
  <i name="subversion" type="string">18Jan21 (build Aug 12 2022 13:00:08) complex                          parallel </i>
  <i name="platform" type="string">LinuxIFC </i>
  <i name="date" type="string">2024 11 03 </i>
  <i name="time" type="string">22:10:08 </i>
 </generator>
 <incar>
  <i type="int" name="ISTART">     0</i>
  <i type="string" name="PREC">Accurate      (Accurate strictly avoids</i>
  <i type="logical" name="ADDGRID"> T  </i>
  <i type="int" name="ISPIN">     1</i>
  <i type="int" name="NELM">    90</i>
  <i type="int" name="NELMIN">     6</i>
  <i type="int" name="IBRION">     2</i>
  <i name="EDIFF">      0.00000100</i>
  <i name="EDIFFG">     -0.00200000</i>
  <i type="int" name="NSW">   100</i>
  <i type="int" name="ISIF">     3</i>
  <i type="int" name="ISYM">     2</i>
  <i name="ENCUT">    350.00000000</i>
  <i type="logical" name="LREAL"> F  </i>
  <i type="int" name="ISMEAR">     0</i>
  <i name="SIGMA">      0.05000000</i>
  <i type="logical" name="LWAVE"> F  </i>
  <i type="logical" name="LCHARG"> F  </i>
  <i type="logical" name="LASPH"> T  </i>
 </incar>
 <primitive_cell>
  <structure name="primitive_cell" >
   <crystal>
    <varray name="basis" >
     <v>       3.33357300       0.00000000       1.92463900 </v>
     <v>       1.11119100       3.14292400       1.92463900 </v>
     <v>       0.00000000       0.00000000       3.84927800 </v>
    </varray>
    <i name="volume">     40.32952685 </i>
    <varray name="rec_basis" >
     <v>       0.29997843      -0.10605835       0.00000000 </v>
     <v>       0.00000000       0.31817505       0.00000000 </v>
     <v>      -0.14998922      -0.10605835       0.25978898 </v>
    </varray>
   </crystal>
   <varray name="positions" >
    <v>       0.87500000       0.87500000       0.87500000 </v>
    <v>       0.12500000       0.12500000       0.12500000 </v>
   </varray>
  </structure>
  <varray name="primitive_index" >
   <v type="int" >        1 </v>
   <v type="int" >        2 </v>
  </varray>
 </primitive_cell>
 <kpoints>
  <generation param="Monkhorst-Pack">
   <v type="int" name="divisions">      21       21       21 </v>
   <v name="usershift">      0.00000000       0.00000000       0.00000000 </v>
   <v name="genvec1">      0.04761905       0.00000000       0.00000000 </v>
   <v name="genvec2">      0.00000000       0.04761905       0.00000000 </v>
   <v name="genvec3">      0.00000000       0.00000000       0.04761905 </v>
   <v name="shift">      0.00000000       0.00000000       0.00000000 </v>
  </generation>
  <varray name="kpointlist" >
   <v>       0.00000000       0.00000000       0.00000000 </v>
   <v>       0.04761905       0.00000000       0.00000000 </v>
   <v>       0.09523810       0.00000000       0.00000000 </v>
   <v>       0.14285714      -0.00000000       0.00000000 </v>
   <v>       0.19047619       0.00000000       0.00000000 </v>
   <v>       0.23809524       0.00000000       0.00000000 </v>
   <v>       0.28571429      -0.00000000       0.00000000 </v>
   <v>       0.33333333       0.00000000       0.00000000 </v>
   <v>       0.38095238       0.00000000       0.00000000 </v>
   <v>       0.42857143       0.00000000       0.00000000 </v>
   <v>       0.47619048       0.00000000       0.00000000 </v>
   <v>       0.04761905       0.04761905       0.00000000 </v>
   <v>       0.09523810       0.04761905       0.00000000 </v>
   <v>       0.14285714       0.04761905       0.00000000 </v>
   <v>       0.19047619       0.04761905       0.00000000 </v>
   <v>       0.23809524       0.04761905       0.00000000 </v>
   <v>       0.28571429       0.04761905       0.00000000 </v>
   <v>       0.33333333       0.04761905       0.00000000 </v>
   <v>       0.38095238       0.04761905       0.00000000 </v>
   <v>       0.42857143       0.04761905       0.00000000 </v>
   <v>       0.47619048       0.04761905       0.00000000 </v>
   <v>      -0.47619048       0.04761905       0.00000000 </v>
   <v>      -0.42857143       0.04761905       0.00000000 </v>
   <v>      -0.38095238       0.04761905       0.00000000 </v>
   <v>      -0.33333333       0.04761905       0.00000000 </v>
   <v>      -0.28571429       0.04761905       0.00000000 </v>
   <v>      -0.23809524       0.04761905       0.00000000 </v>
   <v>      -0.19047619       0.04761905       0.00000000 </v>
   <v>      -0.14285714       0.04761905       0.00000000 </v>
   <v>      -0.09523810       0.04761905       0.00000000 </v>
   <v>      -0.04761905       0.04761905       0.00000000 </v>
   <v>       0.09523810       0.09523810       0.00000000 </v>
   <v>       0.14285714       0.09523810       0.00000000 </v>
   <v>       0.19047619       0.09523810       0.00000000 </v>
   <v>       0.23809524       0.09523810       0.00000000 </v>
   <v>       0.28571429       0.09523810       0.00000000 </v>
   <v>       0.33333333       0.09523810       0.00000000 </v>
   <v>       0.38095238       0.09523810       0.00000000 </v>
   <v>       0.42857143       0.09523810       0.00000000 </v>
   <v>       0.47619048       0.09523810       0.00000000 </v>
   <v>      -0.47619048       0.09523810       0.00000000 </v>
   <v>      -0.42857143       0.09523810       0.00000000 </v>
   <v>      -0.38095238       0.09523810       0.00000000 </v>
   <v>      -0.33333333       0.09523810       0.00000000 </v>
   <v>      -0.28571429       0.09523810       0.00000000 </v>
   <v>      -0.23809524       0.09523810       0.00000000 </v>
   <v>      -0.19047619       0.09523810       0.00000000 </v>
   <v>      -0.14285714       0.09523810       0.00000000 </v>
   <v>      -0.09523810       0.09523810       0.00000000 </v>
   <v>       0.14285714       0.14285714       0.00000000 </v>
   <v>       0.19047619       0.14285714       0.00000000 </v>
   <v>       0.23809524       0.14285714       0.00000000 </v>
   <v>       0.28571429       0.14285714       0.00000000 </v>
   <v>       0.33333333       0.14285714       0.00000000 </v>
   <v>       0.38095238       0.14285714       0.00000000 </v>
   <v>       0.42857143       0.14285714       0.00000000 </v>
   <v>       0.47619048       0.14285714       0.00000000 </v>
   <v>      -0.47619048       0.14285714       0.00000000 </v>
   <v>      -0.42857143       0.14285714       0.00000000 </v>
   <v>      -0.38095238       0.14285714       0.00000000 </v>
   <v>      -0.33333333       0.14285714       0.00000000 </v>
   <v>      -0.28571429       0.14285714       0.00000000 </v>
   <v>      -0.23809524       0.14285714       0.00000000 </v>
   <v>      -0.19047619       0.14285714       0.00000000 </v>
   <v>      -0.14285714       0.14285714       0.00000000 </v>
   <v>       0.19047619       0.19047619       0.00000000 </v>
   <v>       0.23809524       0.19047619       0.00000000 </v>
   <v>       0.28571429       0.19047619       0.00000000 </v>
   <v>       0.33333333       0.19047619       0.00000000 </v>
   <v>       0.38095238       0.19047619       0.00000000 </v>
   <v>       0.42857143       0.19047619       0.00000000 </v>
   <v>       0.47619048       0.19047619       0.00000000 </v>
   <v>      -0.47619048       0.19047619       0.00000000 </v>
   <v>      -0.42857143       0.19047619       0.00000000 </v>
   <v>      -0.38095238       0.19047619       0.00000000 </v>
   <v>      -0.33333333       0.19047619       0.00000000 </v>
   <v>      -0.28571429       0.19047619       0.00000000 </v>
   <v>      -0.23809524       0.19047619       0.00000000 </v>
   <v>      -0.19047619       0.19047619       0.00000000 </v>
   <v>       0.23809524       0.23809524       0.00000000 </v>
   <v>       0.28571429       0.23809524       0.00000000 </v>
   <v>       0.33333333       0.23809524       0.00000000 </v>
   <v>       0.38095238       0.23809524       0.00000000 </v>
   <v>       0.42857143       0.23809524       0.00000000 </v>
   <v>       0.47619048       0.23809524       0.00000000 </v>
   <v>      -0.47619048       0.23809524       0.00000000 </v>
   <v>      -0.42857143       0.23809524       0.00000000 </v>
   <v>      -0.38095238       0.23809524       0.00000000 </v>
   <v>      -0.33333333       0.23809524       0.00000000 </v>
   <v>      -0.28571429       0.23809524       0.00000000 </v>
   <v>      -0.23809524       0.23809524       0.00000000 </v>
   <v>       0.28571429       0.28571429       0.00000000 </v>
   <v>       0.33333333       0.28571429       0.00000000 </v>
   <v>       0.38095238       0.28571429       0.00000000 </v>
   <v>       0.42857143       0.28571429       0.00000000 </v>
   <v>       0.47619048       0.28571429       0.00000000 </v>
   <v>      -0.47619048       0.28571429       0.00000000 </v>
   <v>      -0.42857143       0.28571429       0.00000000 </v>
   <v>      -0.38095238       0.28571429       0.00000000 </v>
   <v>      -0.33333333       0.28571429       0.00000000 </v>
   <v>      -0.28571429       0.28571429       0.00000000 </v>
   <v>       0.33333333       0.33333333       0.00000000 </v>
   <v>       0.38095238       0.33333333       0.00000000 </v>
   <v>       0.42857143       0.33333333       0.00000000 </v>
   <v>       0.47619048       0.33333333       0.00000000 </v>
   <v>      -0.47619048       0.33333333       0.00000000 </v>
   <v>      -0.42857143       0.33333333       0.00000000 </v>
   <v>      -0.38095238       0.33333333       0.00000000 </v>
   <v>      -0.33333333       0.33333333       0.00000000 </v>
   <v>       0.38095238       0.38095238       0.00000000 </v>
   <v>       0.42857143       0.38095238       0.00000000 </v>
   <v>       0.47619048       0.38095238       0.00000000 </v>
   <v>      -0.47619048       0.38095238       0.00000000 </v>
   <v>      -0.42857143       0.38095238       0.00000000 </v>
   <v>      -0.38095238       0.38095238       0.00000000 </v>
   <v>       0.42857143       0.42857143       0.00000000 </v>
   <v>       0.47619048       0.42857143       0.00000000 </v>
   <v>      -0.47619048       0.42857143       0.00000000 </v>
   <v>      -0.42857143       0.42857143       0.00000000 </v>
   <v>       0.47619048       0.47619048       0.00000000 </v>
   <v>      -0.47619048       0.47619048       0.00000000 </v>
   <v>       0.14285714       0.09523810       0.04761905 </v>
   <v>       0.19047619       0.09523810       0.04761905 </v>
   <v>       0.23809524       0.09523810       0.04761905 </v>
   <v>       0.28571429       0.09523810       0.04761905 </v>
   <v>       0.33333333       0.09523810       0.04761905 </v>
   <v>       0.38095238       0.09523810       0.04761905 </v>
   <v>       0.42857143       0.09523810       0.04761905 </v>
   <v>       0.47619048       0.09523810       0.04761905 </v>
   <v>      -0.47619048       0.09523810       0.04761905 </v>
   <v>       0.19047619       0.14285714       0.04761905 </v>
   <v>       0.23809524       0.14285714       0.04761905 </v>
   <v>       0.28571429       0.14285714       0.04761905 </v>
   <v>       0.33333333       0.14285714       0.04761905 </v>
   <v>       0.38095238       0.14285714       0.04761905 </v>
   <v>       0.42857143       0.14285714       0.04761905 </v>
   <v>       0.47619048       0.14285714       0.04761905 </v>
   <v>      -0.47619048       0.14285714       0.04761905 </v>
   <v>      -0.42857143       0.14285714       0.04761905 </v>
   <v>      -0.38095238       0.14285714       0.04761905 </v>
   <v>      -0.33333333       0.14285714       0.04761905 </v>
   <v>      -0.28571429       0.14285714       0.04761905 </v>
   <v>      -0.23809524       0.14285714       0.04761905 </v>
   <v>      -0.19047619       0.14285714       0.04761905 </v>
   <v>      -0.14285714       0.14285714       0.04761905 </v>
   <v>      -0.09523810       0.14285714       0.04761905 </v>
   <v>       0.23809524       0.19047619       0.04761905 </v>
   <v>       0.28571429       0.19047619       0.04761905 </v>
   <v>       0.33333333       0.19047619       0.04761905 </v>
   <v>       0.38095238       0.19047619       0.04761905 </v>
   <v>       0.42857143       0.19047619       0.04761905 </v>
   <v>       0.47619048       0.19047619       0.04761905 </v>
   <v>      -0.47619048       0.19047619       0.04761905 </v>
   <v>      -0.42857143       0.19047619       0.04761905 </v>
   <v>      -0.38095238       0.19047619       0.04761905 </v>
   <v>      -0.33333333       0.19047619       0.04761905 </v>
   <v>      -0.28571429       0.19047619       0.04761905 </v>
   <v>      -0.23809524       0.19047619       0.04761905 </v>
   <v>      -0.19047619       0.19047619       0.04761905 </v>
   <v>      -0.14285714       0.19047619       0.04761905 </v>
   <v>       0.28571429       0.23809524       0.04761905 </v>
   <v>       0.33333333       0.23809524       0.04761905 </v>
   <v>       0.38095238       0.23809524       0.04761905 </v>
   <v>       0.42857143       0.23809524       0.04761905 </v>
   <v>       0.47619048       0.23809524       0.04761905 </v>
   <v>      -0.47619048       0.23809524       0.04761905 </v>
   <v>      -0.42857143       0.23809524       0.04761905 </v>
   <v>      -0.38095238       0.23809524       0.04761905 </v>
   <v>      -0.33333333       0.23809524       0.04761905 </v>
   <v>      -0.28571429       0.23809524       0.04761905 </v>
   <v>      -0.23809524       0.23809524       0.04761905 </v>
   <v>      -0.19047619       0.23809524       0.04761905 </v>
   <v>       0.33333333       0.28571429       0.04761905 </v>
   <v>       0.38095238       0.28571429       0.04761905 </v>
   <v>       0.42857143       0.28571429       0.04761905 </v>
   <v>       0.47619048       0.28571429       0.04761905 </v>
   <v>      -0.47619048       0.28571429       0.04761905 </v>
   <v>      -0.42857143       0.28571429       0.04761905 </v>
   <v>      -0.38095238       0.28571429       0.04761905 </v>
   <v>      -0.33333333       0.28571429       0.04761905 </v>
   <v>      -0.28571429       0.28571429       0.04761905 </v>
   <v>      -0.23809524       0.28571429       0.04761905 </v>
   <v>       0.38095238       0.33333333       0.04761905 </v>
   <v>       0.42857143       0.33333333       0.04761905 </v>
   <v>       0.47619048       0.33333333       0.04761905 </v>
   <v>      -0.47619048       0.33333333       0.04761905 </v>
   <v>      -0.42857143       0.33333333       0.04761905 </v>
   <v>      -0.38095238       0.33333333       0.04761905 </v>
   <v>      -0.33333333       0.33333333       0.04761905 </v>
   <v>      -0.28571429       0.33333333       0.04761905 </v>
   <v>       0.42857143       0.38095238       0.04761905 </v>
   <v>       0.47619048       0.38095238       0.04761905 </v>
   <v>      -0.47619048       0.38095238       0.04761905 </v>
   <v>      -0.42857143       0.38095238       0.04761905 </v>
   <v>      -0.38095238       0.38095238       0.04761905 </v>
   <v>      -0.33333333       0.38095238       0.04761905 </v>
   <v>       0.47619048       0.42857143       0.04761905 </v>
   <v>      -0.47619048       0.42857143       0.04761905 </v>
   <v>      -0.42857143       0.42857143       0.04761905 </v>
   <v>      -0.38095238       0.42857143       0.04761905 </v>
   <v>      -0.47619048       0.47619048       0.04761905 </v>
   <v>      -0.42857143       0.47619048       0.04761905 </v>
   <v>       0.28571429       0.19047619       0.09523810 </v>
   <v>       0.33333333       0.19047619       0.09523810 </v>
   <v>       0.38095238       0.19047619       0.09523810 </v>
   <v>       0.42857143       0.19047619       0.09523810 </v>
   <v>       0.47619048       0.19047619       0.09523810 </v>
   <v>      -0.47619048       0.19047619       0.09523810 </v>
   <v>      -0.42857143       0.19047619       0.09523810 </v>
   <v>       0.33333333       0.23809524       0.09523810 </v>
   <v>       0.38095238       0.23809524       0.09523810 </v>
   <v>       0.42857143       0.23809524       0.09523810 </v>
   <v>       0.47619048       0.23809524       0.09523810 </v>
   <v>      -0.47619048       0.23809524       0.09523810 </v>
   <v>      -0.42857143       0.23809524       0.09523810 </v>
   <v>      -0.38095238       0.23809524       0.09523810 </v>
   <v>      -0.33333333       0.23809524       0.09523810 </v>
   <v>      -0.28571429       0.23809524       0.09523810 </v>
   <v>      -0.23809524       0.23809524       0.09523810 </v>
   <v>      -0.19047619       0.23809524       0.09523810 </v>
   <v>      -0.14285714       0.23809524       0.09523810 </v>
   <v>       0.38095238       0.28571429       0.09523810 </v>
   <v>       0.42857143       0.28571429       0.09523810 </v>
   <v>       0.47619048       0.28571429       0.09523810 </v>
   <v>      -0.47619048       0.28571429       0.09523810 </v>
   <v>      -0.42857143       0.28571429       0.09523810 </v>
   <v>      -0.38095238       0.28571429       0.09523810 </v>
   <v>      -0.33333333       0.28571429       0.09523810 </v>
   <v>      -0.28571429       0.28571429       0.09523810 </v>
   <v>      -0.23809524       0.28571429       0.09523810 </v>
   <v>      -0.19047619       0.28571429       0.09523810 </v>
   <v>       0.42857143       0.33333333       0.09523810 </v>
   <v>       0.47619048       0.33333333       0.09523810 </v>
   <v>      -0.47619048       0.33333333       0.09523810 </v>
   <v>      -0.42857143       0.33333333       0.09523810 </v>
   <v>      -0.38095238       0.33333333       0.09523810 </v>
   <v>      -0.33333333       0.33333333       0.09523810 </v>
   <v>      -0.28571429       0.33333333       0.09523810 </v>
   <v>      -0.23809524       0.33333333       0.09523810 </v>
   <v>       0.47619048       0.38095238       0.09523810 </v>
   <v>      -0.47619048       0.38095238       0.09523810 </v>
   <v>      -0.42857143       0.38095238       0.09523810 </v>
   <v>      -0.38095238       0.38095238       0.09523810 </v>
   <v>      -0.33333333       0.38095238       0.09523810 </v>
   <v>      -0.28571429       0.38095238       0.09523810 </v>
   <v>      -0.47619048       0.42857143       0.09523810 </v>
   <v>      -0.42857143       0.42857143       0.09523810 </v>
   <v>      -0.38095238       0.42857143       0.09523810 </v>
   <v>      -0.33333333       0.42857143       0.09523810 </v>
   <v>      -0.42857143       0.47619048       0.09523810 </v>
   <v>      -0.38095238       0.47619048       0.09523810 </v>
   <v>       0.42857143       0.28571429       0.14285714 </v>
   <v>       0.47619048       0.28571429       0.14285714 </v>
   <v>      -0.47619048       0.28571429       0.14285714 </v>
   <v>      -0.42857143       0.28571429       0.14285714 </v>
   <v>      -0.38095238       0.28571429       0.14285714 </v>
   <v>       0.47619048       0.33333333       0.14285714 </v>
   <v>      -0.47619048       0.33333333       0.14285714 </v>
   <v>      -0.42857143       0.33333333       0.14285714 </v>
   <v>      -0.38095238       0.33333333       0.14285714 </v>
   <v>      -0.33333333       0.33333333       0.14285714 </v>
   <v>      -0.28571429       0.33333333       0.14285714 </v>
   <v>      -0.23809524       0.33333333       0.14285714 </v>
   <v>      -0.19047619       0.33333333       0.14285714 </v>
   <v>      -0.47619048       0.38095238       0.14285714 </v>
   <v>      -0.42857143       0.38095238       0.14285714 </v>
   <v>      -0.38095238       0.38095238       0.14285714 </v>
   <v>      -0.33333333       0.38095238       0.14285714 </v>
   <v>      -0.28571429       0.38095238       0.14285714 </v>
   <v>      -0.23809524       0.38095238       0.14285714 </v>
   <v>      -0.42857143       0.42857143       0.14285714 </v>
   <v>      -0.38095238       0.42857143       0.14285714 </v>
   <v>      -0.33333333       0.42857143       0.14285714 </v>
   <v>      -0.28571429       0.42857143       0.14285714 </v>
   <v>      -0.38095238       0.47619048       0.14285714 </v>
   <v>      -0.33333333       0.47619048       0.14285714 </v>
   <v>      -0.42857143       0.38095238       0.19047619 </v>
   <v>      -0.38095238       0.38095238       0.19047619 </v>
   <v>      -0.33333333       0.38095238       0.19047619 </v>
   <v>      -0.38095238       0.42857143       0.19047619 </v>
   <v>      -0.33333333       0.42857143       0.19047619 </v>
   <v>      -0.28571429       0.42857143       0.19047619 </v>
   <v>      -0.23809524       0.42857143       0.19047619 </v>
   <v>      -0.33333333       0.47619048       0.19047619 </v>
   <v>      -0.28571429       0.47619048       0.19047619 </v>
   <v>      -0.28571429       0.47619048       0.23809524 </v>
  </varray>
  <varray name="weights" >
   <v>       0.00010798 </v>
   <v>       0.00086384 </v>
   <v>       0.00086384 </v>
   <v>       0.00086384 </v>
   <v>       0.00086384 </v>
   <v>       0.00086384 </v>
   <v>       0.00086384 </v>
   <v>       0.00086384 </v>
   <v>       0.00086384 </v>
   <v>       0.00086384 </v>
   <v>       0.00086384 </v>
   <v>       0.00064788 </v>
   <v>       0.00259151 </v>
   <v>       0.00259151 </v>
   <v>       0.00259151 </v>
   <v>       0.00259151 </v>
   <v>       0.00259151 </v>
   <v>       0.00259151 </v>
   <v>       0.00259151 </v>
   <v>       0.00259151 </v>
   <v>       0.00259151 </v>
   <v>       0.00259151 </v>
   <v>       0.00259151 </v>
   <v>       0.00259151 </v>
   <v>       0.00259151 </v>
   <v>       0.00259151 </v>
   <v>       0.00259151 </v>
   <v>       0.00259151 </v>
   <v>       0.00259151 </v>
   <v>       0.00259151 </v>
   <v>       0.00129576 </v>
   <v>       0.00064788 </v>
   <v>       0.00259151 </v>
   <v>       0.00259151 </v>
   <v>       0.00259151 </v>
   <v>       0.00259151 </v>
   <v>       0.00259151 </v>
   <v>       0.00259151 </v>
   <v>       0.00259151 </v>
   <v>       0.00259151 </v>
   <v>       0.00259151 </v>
   <v>       0.00259151 </v>
   <v>       0.00259151 </v>
   <v>       0.00259151 </v>
   <v>       0.00259151 </v>
   <v>       0.00259151 </v>
   <v>       0.00259151 </v>
   <v>       0.00259151 </v>
   <v>       0.00129576 </v>
   <v>       0.00064788 </v>
   <v>       0.00259151 </v>
   <v>       0.00259151 </v>
   <v>       0.00259151 </v>
   <v>       0.00259151 </v>
   <v>       0.00259151 </v>
   <v>       0.00259151 </v>
   <v>       0.00259151 </v>
   <v>       0.00259151 </v>
   <v>       0.00259151 </v>
   <v>       0.00259151 </v>
   <v>       0.00259151 </v>
   <v>       0.00259151 </v>
   <v>       0.00259151 </v>
   <v>       0.00259151 </v>
   <v>       0.00129576 </v>
   <v>       0.00064788 </v>
   <v>       0.00259151 </v>
   <v>       0.00259151 </v>
   <v>       0.00259151 </v>
   <v>       0.00259151 </v>
   <v>       0.00259151 </v>
   <v>       0.00259151 </v>
   <v>       0.00259151 </v>
   <v>       0.00259151 </v>
   <v>       0.00259151 </v>
   <v>       0.00259151 </v>
   <v>       0.00259151 </v>
   <v>       0.00259151 </v>
   <v>       0.00129576 </v>
   <v>       0.00064788 </v>
   <v>       0.00259151 </v>
   <v>       0.00259151 </v>
   <v>       0.00259151 </v>
   <v>       0.00259151 </v>
   <v>       0.00259151 </v>
   <v>       0.00259151 </v>
   <v>       0.00259151 </v>
   <v>       0.00259151 </v>
   <v>       0.00259151 </v>
   <v>       0.00259151 </v>
   <v>       0.00129576 </v>
   <v>       0.00064788 </v>
   <v>       0.00259151 </v>
   <v>       0.00259151 </v>
   <v>       0.00259151 </v>
   <v>       0.00259151 </v>
   <v>       0.00259151 </v>
   <v>       0.00259151 </v>
   <v>       0.00259151 </v>
   <v>       0.00259151 </v>
   <v>       0.00129576 </v>
   <v>       0.00064788 </v>
   <v>       0.00259151 </v>
   <v>       0.00259151 </v>
   <v>       0.00259151 </v>
   <v>       0.00259151 </v>
   <v>       0.00259151 </v>
   <v>       0.00259151 </v>
   <v>       0.00129576 </v>
   <v>       0.00064788 </v>
   <v>       0.00259151 </v>
   <v>       0.00259151 </v>
   <v>       0.00259151 </v>
   <v>       0.00259151 </v>
   <v>       0.00129576 </v>
   <v>       0.00064788 </v>
   <v>       0.00259151 </v>
   <v>       0.00259151 </v>
   <v>       0.00129576 </v>
   <v>       0.00064788 </v>
   <v>       0.00129576 </v>
   <v>       0.00259151 </v>
   <v>       0.00518303 </v>
   <v>       0.00518303 </v>
   <v>       0.00518303 </v>
   <v>       0.00518303 </v>
   <v>       0.00518303 </v>
   <v>       0.00518303 </v>
   <v>       0.00518303 </v>
   <v>       0.00518303 </v>
   <v>       0.00259151 </v>
   <v>       0.00518303 </v>
   <v>       0.00518303 </v>
   <v>       0.00518303 </v>
   <v>       0.00518303 </v>
   <v>       0.00518303 </v>
   <v>       0.00518303 </v>
   <v>       0.00518303 </v>
   <v>       0.00518303 </v>
   <v>       0.00518303 </v>
   <v>       0.00518303 </v>
   <v>       0.00518303 </v>
   <v>       0.00518303 </v>
   <v>       0.00518303 </v>
   <v>       0.00518303 </v>
   <v>       0.00259151 </v>
   <v>       0.00259151 </v>
   <v>       0.00518303 </v>
   <v>       0.00518303 </v>
   <v>       0.00518303 </v>
   <v>       0.00518303 </v>
   <v>       0.00518303 </v>
   <v>       0.00518303 </v>
   <v>       0.00518303 </v>
   <v>       0.00518303 </v>
   <v>       0.00518303 </v>
   <v>       0.00518303 </v>
   <v>       0.00518303 </v>
   <v>       0.00518303 </v>
   <v>       0.00259151 </v>
   <v>       0.00259151 </v>
   <v>       0.00518303 </v>
   <v>       0.00518303 </v>
   <v>       0.00518303 </v>
   <v>       0.00518303 </v>
   <v>       0.00518303 </v>
   <v>       0.00518303 </v>
   <v>       0.00518303 </v>
   <v>       0.00518303 </v>
   <v>       0.00518303 </v>
   <v>       0.00518303 </v>
   <v>       0.00259151 </v>
   <v>       0.00259151 </v>
   <v>       0.00518303 </v>
   <v>       0.00518303 </v>
   <v>       0.00518303 </v>
   <v>       0.00518303 </v>
   <v>       0.00518303 </v>
   <v>       0.00518303 </v>
   <v>       0.00518303 </v>
   <v>       0.00518303 </v>
   <v>       0.00259151 </v>
   <v>       0.00259151 </v>
   <v>       0.00518303 </v>
   <v>       0.00518303 </v>
   <v>       0.00518303 </v>
   <v>       0.00518303 </v>
   <v>       0.00518303 </v>
   <v>       0.00518303 </v>
   <v>       0.00259151 </v>
   <v>       0.00259151 </v>
   <v>       0.00518303 </v>
   <v>       0.00518303 </v>
   <v>       0.00518303 </v>
   <v>       0.00518303 </v>
   <v>       0.00259151 </v>
   <v>       0.00259151 </v>
   <v>       0.00518303 </v>
   <v>       0.00518303 </v>
   <v>       0.00259151 </v>
   <v>       0.00259151 </v>
   <v>       0.00259151 </v>
   <v>       0.00259151 </v>
   <v>       0.00518303 </v>
   <v>       0.00518303 </v>
   <v>       0.00518303 </v>
   <v>       0.00518303 </v>
   <v>       0.00518303 </v>
   <v>       0.00518303 </v>
   <v>       0.00259151 </v>
   <v>       0.00518303 </v>
   <v>       0.00518303 </v>
   <v>       0.00518303 </v>
   <v>       0.00518303 </v>
   <v>       0.00518303 </v>
   <v>       0.00518303 </v>
   <v>       0.00518303 </v>
   <v>       0.00518303 </v>
   <v>       0.00518303 </v>
   <v>       0.00518303 </v>
   <v>       0.00259151 </v>
   <v>       0.00259151 </v>
   <v>       0.00518303 </v>
   <v>       0.00518303 </v>
   <v>       0.00518303 </v>
   <v>       0.00518303 </v>
   <v>       0.00518303 </v>
   <v>       0.00518303 </v>
   <v>       0.00518303 </v>
   <v>       0.00518303 </v>
   <v>       0.00259151 </v>
   <v>       0.00259151 </v>
   <v>       0.00518303 </v>
   <v>       0.00518303 </v>
   <v>       0.00518303 </v>
   <v>       0.00518303 </v>
   <v>       0.00518303 </v>
   <v>       0.00518303 </v>
   <v>       0.00259151 </v>
   <v>       0.00259151 </v>
   <v>       0.00518303 </v>
   <v>       0.00518303 </v>
   <v>       0.00518303 </v>
   <v>       0.00518303 </v>
   <v>       0.00259151 </v>
   <v>       0.00259151 </v>
   <v>       0.00518303 </v>
   <v>       0.00518303 </v>
   <v>       0.00259151 </v>
   <v>       0.00259151 </v>
   <v>       0.00259151 </v>
   <v>       0.00259151 </v>
   <v>       0.00518303 </v>
   <v>       0.00518303 </v>
   <v>       0.00518303 </v>
   <v>       0.00518303 </v>
   <v>       0.00259151 </v>
   <v>       0.00518303 </v>
   <v>       0.00518303 </v>
   <v>       0.00518303 </v>
   <v>       0.00518303 </v>
   <v>       0.00518303 </v>
   <v>       0.00518303 </v>
   <v>       0.00259151 </v>
   <v>       0.00259151 </v>
   <v>       0.00518303 </v>
   <v>       0.00518303 </v>
   <v>       0.00518303 </v>
   <v>       0.00518303 </v>
   <v>       0.00259151 </v>
   <v>       0.00259151 </v>
   <v>       0.00518303 </v>
   <v>       0.00518303 </v>
   <v>       0.00259151 </v>
   <v>       0.00259151 </v>
   <v>       0.00259151 </v>
   <v>       0.00259151 </v>
   <v>       0.00518303 </v>
   <v>       0.00518303 </v>
   <v>       0.00259151 </v>
   <v>       0.00518303 </v>
   <v>       0.00518303 </v>
   <v>       0.00259151 </v>
   <v>       0.00259151 </v>
   <v>       0.00259151 </v>
   <v>       0.00259151 </v>
  </varray>
 </kpoints>
 <parameters>
  <separator name="general" >
   <i type="string" name="SYSTEM">unknown system</i>
   <i type="logical" name="LCOMPAT"> F  </i>
  </separator>
  <separator name="electronic" >
   <i type="string" name="PREC">accura</i>
   <i name="ENMAX">    350.00000000</i>
   <i name="ENAUG">    322.06900000</i>
   <i name="EDIFF">      0.00000100</i>
   <i type="int" name="IALGO">    38</i>
   <i type="int" name="IWAVPR">    11</i>
   <i type="int" name="NBANDS">     8</i>
   <i type="int" name="NBANDSLOW">    -1</i>
   <i type="int" name="NBANDSHIGH">    -1</i>
   <i name="NELECT">      8.00000000</i>
   <i type="int" name="TURBO">     0</i>
   <i type="int" name="IRESTART">     0</i>
   <i type="int" name="NREBOOT">     0</i>
   <i type="int" name="NMIN">     0</i>
   <i name="EREF">      0.00000000</i>
   <separator name="electronic smearing" >
    <i type="int" name="ISMEAR">     0</i>
    <i name="SIGMA">      0.05000000</i>
    <i name="KSPACING">      0.50000000</i>
    <i type="logical" name="KGAMMA"> T  </i>
    <i type="logical" name="KBLOWUP"> T  </i>
   </separator>
   <separator name="electronic projectors" >
    <i type="logical" name="LREAL"> F  </i>
    <v name="ROPT">      0.00000000</v>
    <i type="int" name="LMAXPAW">  -100</i>
    <i type="int" name="LMAXMIX">     2</i>
    <i type="logical" name="NLSPLINE"> F  </i>
   </separator>
   <separator name="electronic startup" >
    <i type="int" name="ISTART">     0</i>
    <i type="int" name="ICHARG">     2</i>
    <i type="int" name="INIWAV">     1</i>
   </separator>
   <separator name="electronic spin" >
    <i type="int" name="ISPIN">     1</i>
    <i type="logical" name="LNONCOLLINEAR"> F  </i>
    <v name="MAGMOM">      1.00000000      1.00000000</v>
    <i name="NUPDOWN">     -1.00000000</i>
    <i type="logical" name="LSORBIT"> F  </i>
    <v name="SAXIS">      0.00000000      0.00000000      1.00000000</v>
    <i type="logical" name="LSPIRAL"> F  </i>
    <v name="QSPIRAL">      0.00000000      0.00000000      0.00000000</v>
    <i type="logical" name="LZEROZ"> F  </i>
   </separator>
   <separator name="electronic exchange-correlation" >
    <i type="logical" name="LASPH"> T  </i>
    <i type="logical" name="LMETAGGA"> F  </i>
   </separator>
   <separator name="electronic convergence" >
    <i type="int" name="NELM">    90</i>
    <i type="int" name="NELMDL">    -5</i>
    <i type="int" name="NELMIN">     6</i>
    <i name="ENINI">    350.00000000</i>
    <separator name="electronic convergence detail" >
     <i type="logical" name="LDIAG"> T  </i>
     <i type="logical" name="LSUBROT"> F  </i>
     <i name="WEIMIN">      0.00100000</i>
     <i name="EBREAK">      0.00000003</i>
     <i name="DEPER">      0.30000000</i>
     <i type="int" name="NRMM">     4</i>
     <i name="TIME">      0.40000000</i>
    </separator>
   </separator>
   <separator name="electronic mixer" >
    <i name="AMIX">      0.40000000</i>
    <i name="BMIX">      1.00000000</i>
    <i name="AMIN">      0.10000000</i>
    <i name="AMIX_MAG">      1.60000000</i>
    <i name="BMIX_MAG">      1.00000000</i>
    <separator name="electronic mixer details" >
     <i type="int" name="IMIX">     4</i>
     <i type="logical" name="MIXFIRST"> F  </i>
     <i type="int" name="MAXMIX">   -45</i>
     <i name="WC">    100.00000000</i>
     <i type="int" name="INIMIX">     1</i>
     <i type="int" name="MIXPRE">     1</i>
     <i type="int" name="MREMOVE">     5</i>
    </separator>
   </separator>
   <separator name="electronic dipolcorrection" >
    <i type="logical" name="LDIPOL"> F  </i>
    <i type="logical" name="LMONO"> F  </i>
    <i type="int" name="IDIPOL">     0</i>
    <i name="EPSILON">      1.00000000</i>
    <v name="DIPOL">   -100.00000000   -100.00000000   -100.00000000</v>
    <i name="EFIELD">      0.00000000</i>
   </separator>
  </separator>
  <separator name="grids" >
   <i type="int" name="NGX">    24</i>
   <i type="int" name="NGY">    24</i>
   <i type="int" name="NGZ">    24</i>
   <i type="int" name="NGXF">    48</i>
   <i type="int" name="NGYF">    48</i>
   <i type="int" name="NGZF">    48</i>
   <i type="logical" name="ADDGRID"> T  </i>
  </separator>
  <separator name="ionic" >
   <i type="int" name="NSW">   100</i>
   <i type="int" name="IBRION">     2</i>
   <i type="int" name="MDALGO">     0</i>
   <i type="int" name="ISIF">     3</i>
   <i name="PSTRESS">      0.00000000</i>
   <i name="EDIFFG">     -0.00200000</i>
   <i type="int" name="NFREE">     1</i>
   <i name="POTIM">      0.50000000</i>
   <i name="SMASS">     -3.00000000</i>
   <i name="SCALEE">      1.00000000</i>
  </separator>
  <separator name="ionic md" >
   <i name="TEBEG">      0.00010000</i>
   <i name="TEEND">      0.00010000</i>
   <i type="int" name="NBLOCK">     1</i>
   <i type="int" name="KBLOCK">   100</i>
   <i type="int" name="NPACO">   256</i>
   <i name="APACO">     16.00000000</i>
  </separator>
  <separator name="symmetry" >
   <i type="int" name="ISYM">     2</i>
   <i name="SYMPREC">      0.00001000</i>
  </separator>
  <separator name="dos" >
   <i type="int" name="LORBIT">     0</i>
   <v name="RWIGS">     -1.00000000</v>
   <i type="int" name="NEDOS">   301</i>
   <i name="EMIN">     10.00000000</i>
   <i name="EMAX">    -10.00000000</i>
   <i name="EFERMI">      0.00000000</i>
  </separator>
  <separator name="writing" >
   <i type="int" name="NWRITE">     2</i>
   <i type="logical" name="LWAVE"> F  </i>
   <i type="logical" name="LDOWNSAMPLE"> F  </i>
   <i type="logical" name="LCHARG"> F  </i>
   <i type="logical" name="LPARD"> F  </i>
   <i type="logical" name="LVTOT"> F  </i>
   <i type="logical" name="LVHAR"> F  </i>
   <i type="logical" name="LELF"> F  </i>
   <i type="logical" name="LOPTICS"> F  </i>
   <v name="STM">      0.00000000      0.00000000      0.00000000      0.00000000      0.00000000      0.00000000      0.00000000</v>
  </separator>
  <separator name="performance" >
   <i type="int" name="NPAR">     4</i>
   <i type="int" name="NSIM">     4</i>
   <i type="int" name="NBLK">    -1</i>
   <i type="logical" name="LPLANE"> T  </i>
   <i type="logical" name="LSCALAPACK"> T  </i>
   <i type="logical" name="LSCAAWARE"> F  </i>
   <i type="logical" name="LSCALU"> F  </i>
   <i type="logical" name="LASYNC"> F  </i>
   <i type="logical" name="LORBITALREAL"> F  </i>
  </separator>
  <separator name="miscellaneous" >
   <i type="int" name="IDIOT">     3</i>
   <i type="int" name="PHON_NSTRUCT">    -1</i>
   <i type="logical" name="LMUSIC"> F  </i>
   <v name="POMASS">     28.08500000</v>
   <v name="DARWINR">      0.00000000</v>
   <v name="DARWINV">      1.00000000</v>
   <i type="logical" name="LCORR"> T  </i>
  </separator>
  <i type="logical" name="GGA_COMPAT"> T  </i>
  <i type="logical" name="LBERRY"> F  </i>
  <i type="int" name="ICORELEVEL">     0</i>
  <i type="logical" name="LDAU"> F  </i>
  <i type="int" name="I_CONSTRAINED_M">     0</i>
  <separator name="electronic exchange-correlation" >
   <i type="string" name="GGA">--</i>
   <i type="int" name="VOSKOWN">     0</i>
   <i type="logical" name="LHFCALC"> F  </i>
   <i type="string" name="PRECFOCK"></i>
   <i type="logical" name="LSYMGRAD"> F  </i>
   <i type="logical" name="LHFONE"> F  </i>
   <i type="logical" name="LRHFCALC"> F  </i>
   <i type="logical" name="LTHOMAS"> F  </i>
   <i type="logical" name="LMODELHF"> F  </i>
   <i type="logical" name="LFOCKACE"> F  </i>
   <i name="ENCUT4O">     -1.00000000</i>
   <i type="int" name="EXXOEP">     0</i>
   <i type="int" name="FOURORBIT">     0</i>
   <i name="AEXX">      0.00000000</i>
   <i name="HFALPHA">      0.00000000</i>
   <i name="MCALPHA">      0.00000000</i>
   <i name="ALDAX">      1.00000000</i>
   <i name="AGGAX">      1.00000000</i>
   <i name="ALDAC">      1.00000000</i>
   <i name="AGGAC">      1.00000000</i>
   <i type="int" name="NKREDX">     1</i>
   <i type="int" name="NKREDY">     1</i>
   <i type="int" name="NKREDZ">     1</i>
   <i type="logical" name="SHIFTRED"> F  </i>
   <i type="logical" name="ODDONLY"> F  </i>
   <i type="logical" name="EVENONLY"> F  </i>
   <i type="int" name="LMAXFOCK">     0</i>
   <i type="int" name="NMAXFOCKAE">     0</i>
   <i type="logical" name="LFOCKAEDFT"> F  </i>
   <i name="HFSCREEN">      0.00000000</i>
   <i name="HFSCREENC">      0.00000000</i>
   <i type="int" name="NBANDSGWLOW">     0</i>
  </separator>
  <separator name="vdW DFT" >
   <i type="logical" name="LUSE_VDW"> F  </i>
   <i name="Zab_VDW">     -0.84910000</i>
   <i name="PARAM1">      0.12340000</i>
   <i name="PARAM2">      1.00000000</i>
   <i name="PARAM3">      0.00000000</i>
  </separator>
  <separator name="model GW" >
   <i type="int" name="MODEL_GW">     0</i>
   <i name="MODEL_EPS0">     12.09885805</i>
   <i name="MODEL_ALPHA">      1.00000000</i>
  </separator>
  <separator name="linear response parameters" >
   <i type="logical" name="LEPSILON"> F  </i>
   <i type="logical" name="LRPA"> F  </i>
   <i type="logical" name="LNABLA"> F  </i>
   <i type="logical" name="LVEL"> F  </i>
   <i type="int" name="KINTER">     0</i>
   <i name="CSHIFT">      0.10000000</i>
   <i name="OMEGAMAX">     -1.00000000</i>
   <i name="DEG_THRESHOLD">      0.00200000</i>
   <i name="RTIME">     -0.10000000</i>
   <i name="WPLASMAI">      0.00000000</i>
   <v name="DFIELD">      0.00000000      0.00000000      0.00000000</v>
   <v name="WPLASMA">      0.00000000      0.00000000      0.00000000      0.00000000      0.00000000      0.00000000      0.00000000      0.00000000      0.00000000</v>
  </separator>
  <separator name="orbital magnetization" >
   <i type="logical" name="NUCIND"> F  </i>
   <v name="MAGPOS">      0.00000000      0.00000000      0.00000000</v>
   <i type="logical" name="LNICSALL"> T  </i>
   <i type="logical" name="ORBITALMAG"> F  </i>
   <i type="logical" name="LMAGBLOCH"> F  </i>
   <i type="logical" name="LCHIMAG"> F  </i>
   <i type="logical" name="LGAUGE"> T  </i>
   <i type="int" name="MAGATOM">     0</i>
   <v name="MAGDIPOL">      0.00000000      0.00000000      0.00000000</v>
   <v name="AVECCONST">      0.00000000      0.00000000      0.00000000</v>
  </separator>
  <separator name="response functions" >
   <i type="logical" name="LFINITE_TEMPERATURE"> F  </i>
   <i type="logical" name="LADDER"> F  </i>
   <i type="logical" name="LRPAFORCE"> F  </i>
   <i type="logical" name="LFXC"> F  </i>
   <i type="logical" name="LHARTREE"> T  </i>
   <i type="int" name="IBSE">     0</i>
   <v type="int" name="KPOINT">    -1     0     0     0</v>
   <i type="logical" name="LTCTC"> F  </i>
   <i type="logical" name="LTCTE"> F  </i>
   <i type="logical" name="LTETE"> F  </i>
   <i type="logical" name="LTRIPLET"> F  </i>
   <i type="logical" name="LFXCEPS"> F  </i>
   <i type="logical" name="LFXHEG"> F  </i>
   <i type="int" name="NATURALO">     2</i>
   <i type="logical" name="LHOLEGF"> F  </i>
   <i type="logical" name="L2ORDER"> F  </i>
   <i type="logical" name="LDMP1"> F  </i>
   <i type="logical" name="LMP2LT"> F  </i>
   <i type="logical" name="LSMP2LT"> F  </i>
   <i type="logical" name="LGWLF"> F  </i>
   <i name="ENCUTGW">     -2.00000000</i>
   <i name="ENCUTGWSOFT">     -2.00000000</i>
   <i name="ENCUTLF">     -1.00000000</i>
   <i type="logical" name="LESF_SPLINES"> F  </i>
   <i type="int" name="LMAXMP2">    -1</i>
   <i name="SCISSOR">      0.00000000</i>
   <i type="int" name="NOMEGA">     0</i>
   <i type="int" name="NOMEGAR">     0</i>
   <i type="int" name="NBANDSGW">    -1</i>
   <i type="int" name="NBANDSO">    -1</i>
   <i type="int" name="NBANDSV">    -1</i>
   <i type="int" name="NELM">    90</i>
   <i type="int" name="NELMHF">     1</i>
   <i type="int" name="DIM">     3</i>
   <i type="int" name="IESPILON">     4</i>
   <i type="int" name="ANTIRES">     0</i>
   <i name="OMEGAMAX">    -30.00000000</i>
   <i name="OMEGAMIN">    -30.00000000</i>
   <i name="OMEGATL">   -200.00000000</i>
   <i type="int" name="OMEGAGRID">     0</i>
   <i name="CSHIFT">     -0.10000000</i>
   <i type="logical" name="LSELFENERGY"> F  </i>
   <i type="logical" name="LSPECTRAL"> F  </i>
   <i type="logical" name="LSPECTRALGW"> F  </i>
   <i type="logical" name="LSINGLES"> F  </i>
   <i type="logical" name="LFERMIGW"> F  </i>
   <i type="logical" name="ODDONLYGW"> F  </i>
   <i type="logical" name="EVENONLYGW"> F  </i>
   <i type="int" name="NKREDLFX">     1</i>
   <i type="int" name="NKREDLFY">     1</i>
   <i type="int" name="NKREDLFZ">     1</i>
   <i type="int" name="MAXMEM">  2800</i>
   <i type="int" name="TELESCOPE">     0</i>
   <i type="int" name="NTAUPAR">    -1</i>
   <i type="int" name="NOMEGAPAR">    -1</i>
   <i name="DAMP_NEWTON">      0.80000001</i>
   <i name="LAMBDA">      1.00000000</i>
  </separator>
  <separator name="External order field" >
   <i name="OFIELD_KAPPA">      0.00000000</i>
   <v name="OFIELD_K">      0.00000000      0.00000000      0.00000000</v>
   <i name="OFIELD_Q6_NEAR">      0.00000000</i>
   <i name="OFIELD_Q6_FAR">      0.00000000</i>
   <i name="OFIELD_A">      0.00000000</i>
  </separator>
 </parameters>
 <atominfo>
  <atoms>       2 </atoms>
  <types>       1 </types>
  <array name="atoms" >
   <dimension dim="1">ion</dimension>
   <field type="string">element</field>
   <field type="int">atomtype</field>
   <set>
    <rc><c>Si</c><c>   1</c></rc>
    <rc><c>Si</c><c>   1</c></rc>
   </set>
  </array>
  <array name="atomtypes" >
   <dimension dim="1">type</dimension>
   <field type="int">atomspertype</field>
   <field type="string">element</field>
   <field>mass</field>
   <field>valence</field>
   <field type="string">pseudopotential</field>
   <set>
    <rc><c>   2</c><c>Si</c><c>     28.08500000</c><c>      4.00000000</c><c>  PAW_PBE Si 05Jan2001                  </c></rc>
   </set>
  </array>
 </atominfo>
 <structure name="initialpos" >
  <crystal>
   <varray name="basis" >
    <v>       3.33357300       0.00000000       1.92463900 </v>
    <v>       1.11119100       3.14292400       1.92463900 </v>
    <v>       0.00000000       0.00000000       3.84927800 </v>
   </varray>
   <i name="volume">     40.32952685 </i>
   <varray name="rec_basis" >
    <v>       0.29997843      -0.10605835       0.00000000 </v>
    <v>       0.00000000       0.31817505       0.00000000 </v>
    <v>      -0.14998922      -0.10605835       0.25978898 </v>
   </varray>
  </crystal>
  <varray name="positions" >
   <v>       0.87500000       0.87500000       0.87500000 </v>
   <v>       0.12500000       0.12500000       0.12500000 </v>
  </varray>
 </structure>
 <calculation>
  <scstep>
   <time name="dav">    2.69    2.69</time>
   <time name="total">    2.91    2.92</time>
   <energy>
    <i name="alphaZ">      3.33880741 </i>
    <i name="ewald">   -227.98820643 </i>
    <i name="hartreedc">    -11.11484531 </i>
    <i name="XCdc">    -18.63153637 </i>
    <i name="pawpsdc">    176.24759923 </i>
    <i name="pawaedc">   -141.06103558 </i>
    <i name="eentropy">     -0.00048972 </i>
    <i name="bandstr">     14.50542344 </i>
    <i name="atom">    206.13125414 </i>
    <i name="e_fr_energy">      1.42697080 </i>
    <i name="e_wo_entrp">      1.42746052 </i>
    <i name="e_0_energy">      1.42721566 </i>
   </energy>
  </scstep>
  <scstep>
   <time name="dav">    3.49    3.50</time>
   <time name="total">    3.49    3.51</time>
   <energy>
    <i name="e_fr_energy">    -10.88555550 </i>
    <i name="e_wo_entrp">    -10.88555550 </i>
    <i name="e_0_energy">    -10.88555550 </i>
   </energy>
  </scstep>
  <scstep>
   <time name="dav">    2.93    2.94</time>
   <time name="total">    2.93    2.94</time>
   <energy>
    <i name="e_fr_energy">    -11.02092375 </i>
    <i name="e_wo_entrp">    -11.02092375 </i>
    <i name="e_0_energy">    -11.02092375 </i>
   </energy>
  </scstep>
  <scstep>
   <time name="dav">    3.42    3.44</time>
   <time name="total">    3.43    3.44</time>
   <energy>
    <i name="e_fr_energy">    -11.02146329 </i>
    <i name="e_wo_entrp">    -11.02146329 </i>
    <i name="e_0_energy">    -11.02146329 </i>
   </energy>
  </scstep>
  <scstep>
   <time name="dav">    3.07    3.08</time>
   <time name="total">    3.24    3.25</time>
   <energy>
    <i name="e_fr_energy">    -11.02146361 </i>
    <i name="e_wo_entrp">    -11.02146361 </i>
    <i name="e_0_energy">    -11.02146361 </i>
   </energy>
  </scstep>
  <scstep>
   <time name="dav">    2.67    2.67</time>
   <time name="total">    3.04    3.05</time>
   <energy>
    <i name="e_fr_energy">    -10.89996283 </i>
    <i name="e_wo_entrp">    -10.89996283 </i>
    <i name="e_0_energy">    -10.89996283 </i>
   </energy>
  </scstep>
  <scstep>
   <time name="dav">    2.87    2.87</time>
   <time name="total">    3.24    3.26</time>
   <energy>
    <i name="e_fr_energy">    -10.84441309 </i>
    <i name="e_wo_entrp">    -10.84441309 </i>
    <i name="e_0_energy">    -10.84441309 </i>
   </energy>
  </scstep>
  <scstep>
   <time name="dav">    2.64    2.64</time>
   <time name="total">    3.01    3.04</time>
   <energy>
    <i name="e_fr_energy">    -10.84547303 </i>
    <i name="e_wo_entrp">    -10.84547303 </i>
    <i name="e_0_energy">    -10.84547303 </i>
   </energy>
  </scstep>
  <scstep>
   <time name="dav">    3.30    3.31</time>
   <time name="total">    3.69    3.71</time>
   <energy>
    <i name="e_fr_energy">    -10.84566461 </i>
    <i name="e_wo_entrp">    -10.84566461 </i>
    <i name="e_0_energy">    -10.84566461 </i>
   </energy>
  </scstep>
  <scstep>
   <time name="dav">    2.98    2.99</time>
   <time name="total">    3.36    3.38</time>
   <energy>
    <i name="e_fr_energy">    -10.84569038 </i>
    <i name="e_wo_entrp">    -10.84569038 </i>
    <i name="e_0_energy">    -10.84569038 </i>
   </energy>
  </scstep>
  <scstep>
   <time name="dav">    3.04    3.05</time>
   <time name="total">    3.25    3.27</time>
   <energy>
    <i name="alphaZ">      3.33880741 </i>
    <i name="ewald">   -227.98820643 </i>
    <i name="hartreedc">    -15.00441215 </i>
    <i name="XCdc">    -17.99570932 </i>
    <i name="pawpsdc">    864.83595325 </i>
    <i name="pawaedc">   -829.86750653 </i>
    <i name="eentropy">     -0.00000000 </i>
    <i name="bandstr">      5.70412960 </i>
    <i name="atom">    206.13125414 </i>
    <i name="e_fr_energy">    -10.84569003 </i>
    <i name="e_wo_entrp">    -10.84569003 </i>
    <i name="e_0_energy">    -10.84569003 </i>
   </energy>
  </scstep>
  <structure>
   <crystal>
    <varray name="basis" >
     <v>       3.33357300       0.00000000       1.92463900 </v>
     <v>       1.11119100       3.14292400       1.92463900 </v>
     <v>       0.00000000       0.00000000       3.84927800 </v>
    </varray>
    <i name="volume">     40.32952685 </i>
    <varray name="rec_basis" >
     <v>       0.29997843      -0.10605835       0.00000000 </v>
     <v>       0.00000000       0.31817505       0.00000000 </v>
     <v>      -0.14998922      -0.10605835       0.25978898 </v>
    </varray>
   </crystal>
   <varray name="positions" >
    <v>       0.87500000       0.87500000       0.87500000 </v>
    <v>       0.12500000       0.12500000       0.12500000 </v>
   </varray>
  </structure>
  <varray name="forces" >
   <v>      -0.00000000       0.00000000      -0.00000000 </v>
   <v>       0.00000000      -0.00000000       0.00000000 </v>
  </varray>
  <varray name="stress" >
   <v>      12.13570327       0.00000000      -0.00000000 </v>
   <v>       0.00000000      12.13571280       0.00000000 </v>
   <v>       0.00000000       0.00000000      12.13569987 </v>
  </varray>
  <energy>
   <i name="e_fr_energy">    -10.84569003 </i>
   <i name="e_wo_entrp">    -10.84569003 </i>
   <i name="e_0_energy">    -10.84569003 </i>
  </energy>
  <time name="totalsc">   38.69   39.13</time>
 </calculation>
 <calculation>
  <scstep>
   <time name="dav">    2.84    2.84</time>
   <time name="total">    3.21    3.22</time>
   <energy>
    <i name="alphaZ">      3.26607593 </i>
    <i name="ewald">   -226.32056460 </i>
    <i name="hartreedc">    -14.89623554 </i>
    <i name="XCdc">    -18.10333217 </i>
    <i name="pawpsdc">    864.79847162 </i>
    <i name="pawaedc">   -829.83003537 </i>
    <i name="eentropy">     -0.00000000 </i>
    <i name="bandstr">      4.10489597 </i>
    <i name="atom">    206.13125414 </i>
    <i name="e_fr_energy">    -10.84947002 </i>
    <i name="e_wo_entrp">    -10.84947002 </i>
    <i name="e_0_energy">    -10.84947002 </i>
   </energy>
  </scstep>
  <scstep>
   <time name="dav">    3.04    3.04</time>
   <time name="total">    3.42    3.44</time>
   <energy>
    <i name="e_fr_energy">    -10.84770386 </i>
    <i name="e_wo_entrp">    -10.84770386 </i>
    <i name="e_0_energy">    -10.84770386 </i>
   </energy>
  </scstep>
  <scstep>
   <time name="dav">    2.71    2.71</time>
   <time name="total">    3.08    3.09</time>
   <energy>
    <i name="e_fr_energy">    -10.84677416 </i>
    <i name="e_wo_entrp">    -10.84677416 </i>
    <i name="e_0_energy">    -10.84677416 </i>
   </energy>
  </scstep>
  <scstep>
   <time name="dav">    3.16    3.16</time>
   <time name="total">    3.53    3.54</time>
   <energy>
    <i name="e_fr_energy">    -10.84677405 </i>
    <i name="e_wo_entrp">    -10.84677405 </i>
    <i name="e_0_energy">    -10.84677405 </i>
   </energy>
  </scstep>
  <scstep>
   <time name="dav">    2.66    2.66</time>
   <time name="total">    3.02    3.04</time>
   <energy>
    <i name="e_fr_energy">    -10.84676782 </i>
    <i name="e_wo_entrp">    -10.84676782 </i>
    <i name="e_0_energy">    -10.84676782 </i>
   </energy>
  </scstep>
  <scstep>
   <time name="dav">    1.81    1.82</time>
   <time name="total">    2.02    2.04</time>
   <energy>
    <i name="alphaZ">      3.26607593 </i>
    <i name="ewald">   -226.32056460 </i>
    <i name="hartreedc">    -15.26868785 </i>
    <i name="XCdc">    -18.09608729 </i>
    <i name="pawpsdc">    826.74756378 </i>
    <i name="pawaedc">   -791.76016065 </i>
    <i name="eentropy">     -0.00000000 </i>
    <i name="bandstr">      4.45383858 </i>
    <i name="atom">    206.13125414 </i>
    <i name="e_fr_energy">    -10.84676796 </i>
    <i name="e_wo_entrp">    -10.84676796 </i>
    <i name="e_0_energy">    -10.84676796 </i>
   </energy>
  </scstep>
  <structure>
   <crystal>
    <varray name="basis" >
     <v>       3.35813641       0.00000000       1.93882069 </v>
     <v>       1.11937880       3.16608263       1.93882069 </v>
     <v>       0.00000000       0.00000000       3.87764137 </v>
    </varray>
    <i name="volume">     41.22761571 </i>
    <varray name="rec_basis" >
     <v>       0.29778421      -0.10528258      -0.00000000 </v>
     <v>       0.00000000       0.31584773       0.00000000 </v>
     <v>      -0.14889211      -0.10528258       0.25788873 </v>
    </varray>
   </crystal>
   <varray name="positions" >
    <v>       0.87500000       0.87500000       0.87500000 </v>
    <v>       0.12500000       0.12500000       0.12500000 </v>
   </varray>
  </structure>
  <varray name="forces" >
   <v>       0.00000000      -0.00000000      -0.00000000 </v>
   <v>      -0.00000000       0.00000000       0.00000000 </v>
  </varray>
  <varray name="stress" >
   <v>      -7.74936417      -0.00000000       0.00000000 </v>
   <v>      -0.00000000      -7.74937035       0.00000000 </v>
   <v>       0.00000000       0.00000000      -7.74936197 </v>
  </varray>
  <energy>
   <i name="e_fr_energy">    -10.84676796 </i>
   <i name="e_wo_entrp">    -10.84676796 </i>
   <i name="e_0_energy">    -10.84676796 </i>
  </energy>
  <time name="totalsc">   21.39   21.72</time>
 </calculation>
 <calculation>
  <scstep>
   <time name="dav">    2.81    2.81</time>
   <time name="total">    3.18    3.19</time>
   <energy>
    <i name="alphaZ">      3.29543544 </i>
    <i name="ewald">   -226.99669210 </i>
    <i name="hartreedc">    -15.31504464 </i>
    <i name="XCdc">    -18.05261195 </i>
    <i name="pawpsdc">    825.02008552 </i>
    <i name="pawaedc">   -790.03279632 </i>
    <i name="eentropy">     -0.00000000 </i>
    <i name="bandstr">      5.10226711 </i>
    <i name="atom">    206.13125414 </i>
    <i name="e_fr_energy">    -10.84810279 </i>
    <i name="e_wo_entrp">    -10.84810279 </i>
    <i name="e_0_energy">    -10.84810279 </i>
   </energy>
  </scstep>
  <scstep>
   <time name="dav">    3.06    3.06</time>
   <time name="total">    3.43    3.46</time>
   <energy>
    <i name="e_fr_energy">    -10.84781181 </i>
    <i name="e_wo_entrp">    -10.84781181 </i>
    <i name="e_0_energy">    -10.84781181 </i>
   </energy>
  </scstep>
  <scstep>
   <time name="dav">    2.64    2.65</time>
   <time name="total">    3.02    3.03</time>
   <energy>
    <i name="e_fr_energy">    -10.84766450 </i>
    <i name="e_wo_entrp">    -10.84766450 </i>
    <i name="e_0_energy">    -10.84766450 </i>
   </energy>
  </scstep>
  <scstep>
   <time name="dav">    3.06    3.06</time>
   <time name="total">    3.43    3.45</time>
   <energy>
    <i name="e_fr_energy">    -10.84766514 </i>
    <i name="e_wo_entrp">    -10.84766514 </i>
    <i name="e_0_energy">    -10.84766514 </i>
   </energy>
  </scstep>
  <scstep>
   <time name="dav">    2.46    2.46</time>
   <time name="total">    2.83    2.84</time>
   <energy>
    <i name="e_fr_energy">    -10.84766684 </i>
    <i name="e_wo_entrp">    -10.84766684 </i>
    <i name="e_0_energy">    -10.84766684 </i>
   </energy>
  </scstep>
  <scstep>
   <time name="dav">    1.57    1.57</time>
   <time name="total">    1.78    1.79</time>
   <energy>
    <i name="alphaZ">      3.29543544 </i>
    <i name="ewald">   -226.99669210 </i>
    <i name="hartreedc">    -15.16218785 </i>
    <i name="XCdc">    -18.05538113 </i>
    <i name="pawpsdc">    840.72960278 </i>
    <i name="pawaedc">   -805.74989554 </i>
    <i name="eentropy">     -0.00000000 </i>
    <i name="bandstr">      4.96019747 </i>
    <i name="atom">    206.13125414 </i>
    <i name="e_fr_energy">    -10.84766679 </i>
    <i name="e_wo_entrp">    -10.84766679 </i>
    <i name="e_0_energy">    -10.84766679 </i>
   </energy>
  </scstep>
  <structure>
   <crystal>
    <varray name="basis" >
     <v>       3.34813394       0.00000000       1.93304576 </v>
     <v>       1.11604465       3.15665220       1.93304576 </v>
     <v>       0.00000000       0.00000000       3.86609152 </v>
    </varray>
    <i name="volume">     40.86031284 </i>
    <varray name="rec_basis" >
     <v>       0.29867383      -0.10559710      -0.00000000 </v>
     <v>       0.00000000       0.31679131       0.00000000 </v>
     <v>      -0.14933692      -0.10559710       0.25865916 </v>
    </varray>
   </crystal>
   <varray name="positions" >
    <v>       0.87500000       0.87500000       0.87500000 </v>
    <v>       0.12500000       0.12500000       0.12500000 </v>
   </varray>
  </structure>
  <varray name="forces" >
   <v>       0.00000000      -0.00000000      -0.00000000 </v>
   <v>      -0.00000000       0.00000000       0.00000000 </v>
  </varray>
  <varray name="stress" >
   <v>       0.06977194      -0.00000000      -0.00000000 </v>
   <v>       0.00000000       0.06977200       0.00000000 </v>
   <v>      -0.00000000      -0.00000000       0.06977193 </v>
  </varray>
  <energy>
   <i name="e_fr_energy">    -10.84766679 </i>
   <i name="e_wo_entrp">    -10.84766679 </i>
   <i name="e_0_energy">    -10.84766679 </i>
  </energy>
  <time name="totalsc">   20.43   20.75</time>
  <eigenvalues>
   <array>
    <dimension dim="1">band</dimension>
    <dimension dim="2">kpoint</dimension>
    <dimension dim="3">spin</dimension>
    <field>eigene</field>
    <field>occ</field>
    <set>
     <set comment="spin 1">
      <set comment="kpoint 1">
       <r>   -6.1966    1.0000 </r>
       <r>    5.6236    1.0000 </r>
       <r>    5.6236    1.0000 </r>
       <r>    5.6236    1.0000 </r>
       <r>    8.1813    0.0000 </r>
       <r>    8.1813    0.0000 </r>
       <r>    8.1813    0.0000 </r>
       <r>    8.7641    0.0000 </r>
      </set>
      <set comment="kpoint 2">
       <r>   -6.1674    1.0000 </r>
       <r>    5.2950    1.0000 </r>
       <r>    5.5745    1.0000 </r>
       <r>    5.5745    1.0000 </r>
       <r>    8.2265    0.0000 </r>
       <r>    8.2534    0.0000 </r>
       <r>    8.2534    0.0000 </r>
       <r>    8.9975    0.0000 </r>
      </set>
      <set comment="kpoint 3">
       <r>   -6.0799    1.0000 </r>
       <r>    4.5642    1.0000 </r>
       <r>    5.4455    1.0000 </r>
       <r>    5.4455    1.0000 </r>
       <r>    8.1619    0.0000 </r>
       <r>    8.4445    0.0000 </r>
       <r>    8.4445    0.0000 </r>
       <r>    9.6549    0.0000 </r>
      </set>
      <set comment="kpoint 4">
       <r>   -5.9351    1.0000 </r>
       <r>    3.7030    1.0000 </r>
       <r>    5.2739    1.0000 </r>
       <r>    5.2739    1.0000 </r>
       <r>    8.0045    0.0000 </r>
       <r>    8.6935    0.0000 </r>
       <r>    8.6935    0.0000 </r>
       <r>   10.4791    0.0000 </r>
      </set>
      <set comment="kpoint 5">
       <r>   -5.7348    1.0000 </r>
       <r>    2.8166    1.0000 </r>
       <r>    5.0914    1.0000 </r>
       <r>    5.0914    1.0000 </r>
       <r>    7.8171    0.0000 </r>
       <r>    8.9302    0.0000 </r>
       <r>    8.9302    0.0000 </r>
       <r>   11.3370    0.0000 </r>
      </set>
      <set comment="kpoint 6">
       <r>   -5.4821    1.0000 </r>
       <r>    1.9473    1.0000 </r>
       <r>    4.9182    1.0000 </r>
       <r>    4.9182    1.0000 </r>
       <r>    7.6304    0.0000 </r>
       <r>    9.0918    0.0000 </r>
       <r>    9.0918    0.0000 </r>
       <r>   12.1782    0.0000 </r>
      </set>
      <set comment="kpoint 7">
       <r>   -5.1823    1.0000 </r>
       <r>    1.1189    1.0000 </r>
       <r>    4.7657    1.0000 </r>
       <r>    4.7657    1.0000 </r>
       <r>    7.4609    0.0000 </r>
       <r>    9.1508    0.0000 </r>
       <r>    9.1508    0.0000 </r>
       <r>   12.9408    0.0000 </r>
      </set>
      <set comment="kpoint 8">
       <r>   -4.8457    1.0000 </r>
       <r>    0.3515    1.0000 </r>
       <r>    4.6401    1.0000 </r>
       <r>    4.6401    1.0000 </r>
       <r>    7.3189    0.0000 </r>
       <r>    9.1292    0.0000 </r>
       <r>    9.1292    0.0000 </r>
       <r>   13.4107    0.0000 </r>
      </set>
      <set comment="kpoint 9">
       <r>   -4.4921    1.0000 </r>
       <r>   -0.3291    1.0000 </r>
       <r>    4.5445    1.0000 </r>
       <r>    4.5445    1.0000 </r>
       <r>    7.2093    0.0000 </r>
       <r>    9.0709    0.0000 </r>
       <r>    9.0709    0.0000 </r>
       <r>   13.4579    0.0000 </r>
      </set>
      <set comment="kpoint 10">
       <r>   -4.1642    1.0000 </r>
       <r>   -0.8768    1.0000 </r>
       <r>    4.4803    1.0000 </r>
       <r>    4.4803    1.0000 </r>
       <r>    7.1354    0.0000 </r>
       <r>    9.0135    0.0000 </r>
       <r>    9.0135    0.0000 </r>
       <r>   13.3858    0.0000 </r>
      </set>
      <set comment="kpoint 11">
       <r>   -3.9472    1.0000 </r>
       <r>   -1.2040    1.0000 </r>
       <r>    4.4480    1.0000 </r>
       <r>    4.4480    1.0000 </r>
       <r>    7.0979    0.0000 </r>
       <r>    8.9795    0.0000 </r>
       <r>    8.9795    0.0000 </r>
       <r>   13.3347    0.0000 </r>
      </set>
      <set comment="kpoint 12">
       <r>   -6.1576    1.0000 </r>
       <r>    5.3600    1.0000 </r>
       <r>    5.4675    1.0000 </r>
       <r>    5.4675    1.0000 </r>
       <r>    8.0872    0.0000 </r>
       <r>    8.3858    0.0000 </r>
       <r>    8.3858    0.0000 </r>
       <r>    9.0196    0.0000 </r>
      </set>
      <set comment="kpoint 13">
       <r>   -6.0895    1.0000 </r>
       <r>    4.7803    1.0000 </r>
       <r>    5.2988    1.0000 </r>
       <r>    5.4170    1.0000 </r>
       <r>    8.0783    0.0000 </r>
       <r>    8.4653    0.0000 </r>
       <r>    8.6218    0.0000 </r>
       <r>    9.4991    0.0000 </r>
      </set>
      <set comment="kpoint 14">
       <r>   -5.9637    1.0000 </r>
       <r>    3.9693    1.0000 </r>
       <r>    5.1055    1.0000 </r>
       <r>    5.3034    1.0000 </r>
       <r>    8.1324    0.0000 </r>
       <r>    8.4587    0.0000 </r>
       <r>    8.9033    0.0000 </r>
       <r>   10.2380    0.0000 </r>
      </set>
      <set comment="kpoint 15">
       <r>   -5.7817    1.0000 </r>
       <r>    3.0999    1.0000 </r>
       <r>    4.9149    1.0000 </r>
       <r>    5.1353    1.0000 </r>
       <r>    8.0452    0.0000 </r>
       <r>    8.6080    0.0000 </r>
       <r>    9.1668    0.0000 </r>
       <r>   10.9696    0.0000 </r>
      </set>
      <set comment="kpoint 16">
       <r>   -5.5461    1.0000 </r>
       <r>    2.2312    1.0000 </r>
       <r>    4.7434    1.0000 </r>
       <r>    4.9482    1.0000 </r>
       <r>    7.8835    0.0000 </r>
       <r>    8.8018    0.0000 </r>
       <r>    9.3506    0.0000 </r>
       <r>   11.5182    0.0000 </r>
      </set>
      <set comment="kpoint 17">
       <r>   -5.2613    1.0000 </r>
       <r>    1.3931    1.0000 </r>
       <r>    4.6001    1.0000 </r>
       <r>    4.7649    1.0000 </r>
       <r>    7.7187    0.0000 </r>
       <r>    8.9254    0.0000 </r>
       <r>    9.4204    0.0000 </r>
       <r>   11.9250    0.0000 </r>
      </set>
      <set comment="kpoint 18">
       <r>   -4.9355    1.0000 </r>
       <r>    0.6071    1.0000 </r>
       <r>    4.4899    1.0000 </r>
       <r>    4.5981    1.0000 </r>
       <r>    7.5727    0.0000 </r>
       <r>    8.9611    0.0000 </r>
       <r>    9.3906    0.0000 </r>
       <r>   12.3964    0.0000 </r>
      </set>
      <set comment="kpoint 19">
       <r>   -4.5843    1.0000 </r>
       <r>   -0.1036    1.0000 </r>
       <r>    4.4152    1.0000 </r>
       <r>    4.4550    1.0000 </r>
       <r>    7.4549    0.0000 </r>
       <r>    8.9453    0.0000 </r>
       <r>    9.3054    0.0000 </r>
       <r>   12.9404    0.0000 </r>
      </set>
      <set comment="kpoint 20">
       <r>   -4.2407    1.0000 </r>
       <r>   -0.7012    1.0000 </r>
       <r>    4.3398    1.0000 </r>
       <r>    4.3764    1.0000 </r>
       <r>    7.3699    0.0000 </r>
       <r>    8.9209    0.0000 </r>
       <r>    9.2067    0.0000 </r>
       <r>   13.3351    0.0000 </r>
      </set>
      <set comment="kpoint 21">
       <r>   -3.9740    1.0000 </r>
       <r>   -1.1140    1.0000 </r>
       <r>    4.2554    1.0000 </r>
       <r>    4.3732    1.0000 </r>
       <r>    7.3202    0.0000 </r>
       <r>    8.9164    0.0000 </r>
       <r>    9.1228    0.0000 </r>
       <r>   13.4252    0.0000 </r>
      </set>
      <set comment="kpoint 22">
       <r>   -3.8936    1.0000 </r>
       <r>   -1.2309    1.0000 </r>
       <r>    4.2037    1.0000 </r>
       <r>    4.4044    1.0000 </r>
       <r>    7.3067    0.0000 </r>
       <r>    8.9452    0.0000 </r>
       <r>    9.0684    0.0000 </r>
       <r>   13.4378    0.0000 </r>
      </set>
      <set comment="kpoint 23">
       <r>   -4.0482    1.0000 </r>
       <r>   -1.0031    1.0000 </r>
       <r>    4.1865    1.0000 </r>
       <r>    4.4686    1.0000 </r>
       <r>    7.3298    0.0000 </r>
       <r>    9.0099    0.0000 </r>
       <r>    9.0477    0.0000 </r>
       <r>   13.4545    0.0000 </r>
      </set>
      <set comment="kpoint 24">
       <r>   -4.3514    1.0000 </r>
       <r>   -0.5175    1.0000 </r>
       <r>    4.2050    1.0000 </r>
       <r>    4.5638    1.0000 </r>
       <r>    7.3893    0.0000 </r>
       <r>    9.0550    0.0000 </r>
       <r>    9.1028    0.0000 </r>
       <r>   13.4274    0.0000 </r>
      </set>
      <set comment="kpoint 25">
       <r>   -4.7029    1.0000 </r>
       <r>    0.1237    1.0000 </r>
       <r>    4.2602    1.0000 </r>
       <r>    4.6876    1.0000 </r>
       <r>    7.4841    0.0000 </r>
       <r>    9.0725    0.0000 </r>
       <r>    9.2046    0.0000 </r>
       <r>   13.1741    0.0000 </r>
      </set>
      <set comment="kpoint 26">
       <r>   -5.0481    1.0000 </r>
       <r>    0.8625    1.0000 </r>
       <r>    4.3526    1.0000 </r>
       <r>    4.8365    1.0000 </r>
       <r>    7.6116    0.0000 </r>
       <r>    9.0678    0.0000 </r>
       <r>    9.2803    0.0000 </r>
       <r>   12.6733    0.0000 </r>
      </set>
      <set comment="kpoint 27">
       <r>   -5.3615    1.0000 </r>
       <r>    1.6678    1.0000 </r>
       <r>    4.4814    1.0000 </r>
       <r>    5.0053    1.0000 </r>
       <r>    7.7674    0.0000 </r>
       <r>    8.9993    0.0000 </r>
       <r>    9.2797    0.0000 </r>
       <r>   12.1110    0.0000 </r>
      </set>
      <set comment="kpoint 28">
       <r>   -5.6305    1.0000 </r>
       <r>    2.5172    1.0000 </r>
       <r>    4.6446    1.0000 </r>
       <r>    5.1851    1.0000 </r>
       <r>    7.9430    0.0000 </r>
       <r>    8.8423    0.0000 </r>
       <r>    9.1582    0.0000 </r>
       <r>   11.4991    0.0000 </r>
      </set>
      <set comment="kpoint 29">
       <r>   -5.8486    1.0000 </r>
       <r>    3.3862    1.0000 </r>
       <r>    4.8380    1.0000 </r>
       <r>    5.3605    1.0000 </r>
       <r>    8.1234    0.0000 </r>
       <r>    8.6213    0.0000 </r>
       <r>    8.9188    0.0000 </r>
       <r>   10.7940    0.0000 </r>
      </set>
      <set comment="kpoint 30">
       <r>   -6.0121    1.0000 </r>
       <r>    4.2312    1.0000 </r>
       <r>    5.0567    1.0000 </r>
       <r>    5.5065    1.0000 </r>
       <r>    8.2800    0.0000 </r>
       <r>    8.4026    0.0000 </r>
       <r>    8.6204    0.0000 </r>
       <r>   10.0403    0.0000 </r>
      </set>
      <set comment="kpoint 31">
       <r>   -6.1187    1.0000 </r>
       <r>    4.9386    1.0000 </r>
       <r>    5.3111    1.0000 </r>
       <r>    5.5877    1.0000 </r>
       <r>    8.2617    0.0000 </r>
       <r>    8.3268    0.0000 </r>
       <r>    8.3756    0.0000 </r>
       <r>    9.3652    0.0000 </r>
      </set>
      <set comment="kpoint 32">
       <r>   -6.0407    1.0000 </r>
       <r>    4.7405    1.0000 </r>
       <r>    5.1034    1.0000 </r>
       <r>    5.1034    1.0000 </r>
       <r>    7.8402    0.0000 </r>
       <r>    8.8939    0.0000 </r>
       <r>    8.8939    0.0000 </r>
       <r>    9.5640    0.0000 </r>
      </set>
      <set comment="kpoint 33">
       <r>   -5.9341    1.0000 </r>
       <r>    4.1281    1.0000 </r>
       <r>    4.8940    1.0000 </r>
       <r>    4.9962    1.0000 </r>
       <r>    7.7892    0.0000 </r>
       <r>    8.9834    0.0000 </r>
       <r>    9.2086    0.0000 </r>
       <r>   10.0457    0.0000 </r>
      </set>
      <set comment="kpoint 34">
       <r>   -5.7708    1.0000 </r>
       <r>    3.3294    1.0000 </r>
       <r>    4.6950    1.0000 </r>
       <r>    4.8626    1.0000 </r>
       <r>    7.8828    0.0000 </r>
       <r>    8.9129    0.0000 </r>
       <r>    9.5079    0.0000 </r>
       <r>   10.5276    0.0000 </r>
      </set>
      <set comment="kpoint 35">
       <r>   -5.5529    1.0000 </r>
       <r>    2.4927    1.0000 </r>
       <r>    4.5205    1.0000 </r>
       <r>    4.6742    1.0000 </r>
       <r>    7.9859    0.0000 </r>
       <r>    8.8805    0.0000 </r>
       <r>    9.7305    0.0000 </r>
       <r>   10.7515    0.0000 </r>
      </set>
      <set comment="kpoint 36">
       <r>   -5.2841    1.0000 </r>
       <r>    1.6654    1.0000 </r>
       <r>    4.3790    1.0000 </r>
       <r>    4.4655    1.0000 </r>
       <r>    7.9908    0.0000 </r>
       <r>    8.9186    0.0000 </r>
       <r>    9.8322    0.0000 </r>
       <r>   10.9397    0.0000 </r>
      </set>
      <set comment="kpoint 37">
       <r>   -4.9709    1.0000 </r>
       <r>    0.8755    1.0000 </r>
       <r>    4.2609    1.0000 </r>
       <r>    4.2750    1.0000 </r>
       <r>    7.9188    0.0000 </r>
       <r>    8.9504    0.0000 </r>
       <r>    9.8154    0.0000 </r>
       <r>   11.2942    0.0000 </r>
      </set>
      <set comment="kpoint 38">
       <r>   -4.6257    1.0000 </r>
       <r>    0.1472    1.0000 </r>
       <r>    4.0740    1.0000 </r>
       <r>    4.2107    1.0000 </r>
       <r>    7.8292    0.0000 </r>
       <r>    8.9404    0.0000 </r>
       <r>    9.7214    0.0000 </r>
       <r>   11.8335    0.0000 </r>
      </set>
      <set comment="kpoint 39">
       <r>   -4.2739    1.0000 </r>
       <r>   -0.4873    1.0000 </r>
       <r>    3.9129    1.0000 </r>
       <r>    4.1866    1.0000 </r>
       <r>    7.7541    0.0000 </r>
       <r>    8.9170    0.0000 </r>
       <r>    9.5969    0.0000 </r>
       <r>   12.4903    0.0000 </r>
      </set>
      <set comment="kpoint 40">
       <r>   -3.9702    1.0000 </r>
       <r>   -0.9691    1.0000 </r>
       <r>    3.7828    1.0000 </r>
       <r>    4.2021    1.0000 </r>
       <r>    7.7072    0.0000 </r>
       <r>    8.9106    0.0000 </r>
       <r>    9.4754    0.0000 </r>
       <r>   13.1537    0.0000 </r>
      </set>
      <set comment="kpoint 41">
       <r>   -3.8156    1.0000 </r>
       <r>   -1.1949    1.0000 </r>
       <r>    3.6873    1.0000 </r>
       <r>    4.2558    1.0000 </r>
       <r>    7.6940    0.0000 </r>
       <r>    8.9376    0.0000 </r>
       <r>    9.3758    0.0000 </r>
       <r>   13.5959    0.0000 </r>
      </set>
      <set comment="kpoint 42">
       <r>   -3.8973    1.0000 </r>
       <r>   -1.0767    1.0000 </r>
       <r>    3.6297    1.0000 </r>
       <r>    4.3454    1.0000 </r>
       <r>    7.7158    0.0000 </r>
       <r>    9.0035    0.0000 </r>
       <r>    9.3060    0.0000 </r>
       <r>   13.6852    0.0000 </r>
      </set>
      <set comment="kpoint 43">
       <r>   -4.1653    1.0000 </r>
       <r>   -0.6649    1.0000 </r>
       <r>    3.6123    1.0000 </r>
       <r>    4.4678    1.0000 </r>
       <r>    7.7721    0.0000 </r>
       <r>    9.1045    0.0000 </r>
       <r>    9.2639    0.0000 </r>
       <r>   13.4813    0.0000 </r>
      </set>
      <set comment="kpoint 44">
       <r>   -4.5094    1.0000 </r>
       <r>   -0.0720    1.0000 </r>
       <r>    3.6375    1.0000 </r>
       <r>    4.6187    1.0000 </r>
       <r>    7.8612    0.0000 </r>
       <r>    9.2258    0.0000 </r>
       <r>    9.2359    0.0000 </r>
       <r>   12.9937    0.0000 </r>
      </set>
      <set comment="kpoint 45">
       <r>   -4.8604    1.0000 </r>
       <r>    0.6290    1.0000 </r>
       <r>    3.7075    1.0000 </r>
       <r>    4.7925    1.0000 </r>
       <r>    7.9800    0.0000 </r>
       <r>    9.1936    0.0000 </r>
       <r>    9.3346    0.0000 </r>
       <r>   12.4038    0.0000 </r>
      </set>
      <set comment="kpoint 46">
       <r>   -5.1858    1.0000 </r>
       <r>    1.3977    1.0000 </r>
       <r>    3.8251    1.0000 </r>
       <r>    4.9809    1.0000 </r>
       <r>    8.1235    0.0000 </r>
       <r>    9.0976    0.0000 </r>
       <r>    9.3720    0.0000 </r>
       <r>   11.8654    0.0000 </r>
      </set>
      <set comment="kpoint 47">
       <r>   -5.4700    1.0000 </r>
       <r>    2.2038    1.0000 </r>
       <r>    3.9951    1.0000 </r>
       <r>    5.1710    1.0000 </r>
       <r>    8.2824    0.0000 </r>
       <r>    8.9241    0.0000 </r>
       <r>    9.2641    0.0000 </r>
       <r>   11.4379    0.0000 </r>
      </set>
      <set comment="kpoint 48">
       <r>   -5.7051    1.0000 </r>
       <r>    3.0066    1.0000 </r>
       <r>    4.2316    1.0000 </r>
       <r>    5.3427    1.0000 </r>
       <r>    8.4388    0.0000 </r>
       <r>    8.7017    0.0000 </r>
       <r>    8.9937    0.0000 </r>
       <r>   11.0537    0.0000 </r>
      </set>
      <set comment="kpoint 49">
       <r>   -5.8867    1.0000 </r>
       <r>    3.7214    1.0000 </r>
       <r>    4.5762    1.0000 </r>
       <r>    5.4661    1.0000 </r>
       <r>    8.5026    0.0000 </r>
       <r>    8.5252    0.0000 </r>
       <r>    8.6732    0.0000 </r>
       <r>   10.5753    0.0000 </r>
      </set>
      <set comment="kpoint 50">
       <r>   -5.8466    1.0000 </r>
       <r>    3.9756    1.0000 </r>
       <r>    4.6730    1.0000 </r>
       <r>    4.6730    1.0000 </r>
       <r>    7.5122    0.0000 </r>
       <r>    9.5608    0.0000 </r>
       <r>    9.5608    0.0000 </r>
       <r>    9.9183    0.0000 </r>
      </set>
      <set comment="kpoint 51">
       <r>   -5.7021    1.0000 </r>
       <r>    3.4015    1.0000 </r>
       <r>    4.4652    1.0000 </r>
       <r>    4.5072    1.0000 </r>
       <r>    7.4508    0.0000 </r>
       <r>    9.5755    0.0000 </r>
       <r>    9.9063    0.0000 </r>
       <r>   10.1330    0.0000 </r>
      </set>
      <set comment="kpoint 52">
       <r>   -5.5023    1.0000 </r>
       <r>    2.6652    1.0000 </r>
       <r>    4.2846    1.0000 </r>
       <r>    4.3207    1.0000 </r>
       <r>    7.5572    0.0000 </r>
       <r>    9.4654    0.0000 </r>
       <r>   10.1841    0.0000 </r>
       <r>   10.2095    0.0000 </r>
      </set>
      <set comment="kpoint 53">
       <r>   -5.2502    1.0000 </r>
       <r>    1.8895    1.0000 </r>
       <r>    4.0909    1.0000 </r>
       <r>    4.1393    1.0000 </r>
       <r>    7.7004    0.0000 </r>
       <r>    9.4540    0.0000 </r>
       <r>   10.1880    0.0000 </r>
       <r>   10.3393    0.0000 </r>
      </set>
      <set comment="kpoint 54">
       <r>   -4.9511    1.0000 </r>
       <r>    1.1230    1.0000 </r>
       <r>    3.8492    1.0000 </r>
       <r>    4.0341    1.0000 </r>
       <r>    7.7747    0.0000 </r>
       <r>    9.4978    0.0000 </r>
       <r>   10.3121    0.0000 </r>
       <r>   10.3579    0.0000 </r>
      </set>
      <set comment="kpoint 55">
       <r>   -4.6148    1.0000 </r>
       <r>    0.3970    1.0000 </r>
       <r>    3.6184    1.0000 </r>
       <r>    3.9714    1.0000 </r>
       <r>    7.7772    0.0000 </r>
       <r>    9.4717    0.0000 </r>
       <r>   10.2746    0.0000 </r>
       <r>   10.7336    0.0000 </r>
      </set>
      <set comment="kpoint 56">
       <r>   -4.2609    1.0000 </r>
       <r>   -0.2564    1.0000 </r>
       <r>    3.4118    1.0000 </r>
       <r>    3.9519    1.0000 </r>
       <r>    7.7576    0.0000 </r>
       <r>    9.4045    0.0000 </r>
       <r>   10.1406    0.0000 </r>
       <r>   11.3744    0.0000 </r>
      </set>
      <set comment="kpoint 57">
       <r>   -3.9315    1.0000 </r>
       <r>   -0.7880    1.0000 </r>
       <r>    3.2375    1.0000 </r>
       <r>    3.9753    1.0000 </r>
       <r>    7.7527    0.0000 </r>
       <r>    9.3468    0.0000 </r>
       <r>    9.9954    0.0000 </r>
       <r>   12.1360    0.0000 </r>
      </set>
      <set comment="kpoint 58">
       <r>   -3.7134    1.0000 </r>
       <r>   -1.1069    1.0000 </r>
       <r>    3.1008    1.0000 </r>
       <r>    4.0404    1.0000 </r>
       <r>    7.7801    0.0000 </r>
       <r>    9.3189    0.0000 </r>
       <r>    9.8629    0.0000 </r>
       <r>   12.9544    0.0000 </r>
      </set>
      <set comment="kpoint 59">
       <r>   -3.7163    1.0000 </r>
       <r>   -1.1019    1.0000 </r>
       <r>    3.0060    1.0000 </r>
       <r>    4.1446    1.0000 </r>
       <r>    7.8446    0.0000 </r>
       <r>    9.3280    0.0000 </r>
       <r>    9.7542    0.0000 </r>
       <r>   13.7238    0.0000 </r>
      </set>
      <set comment="kpoint 60">
       <r>   -3.9381    1.0000 </r>
       <r>   -0.7752    1.0000 </r>
       <r>    2.9572    1.0000 </r>
       <r>    4.2844    1.0000 </r>
       <r>    7.9452    0.0000 </r>
       <r>    9.3750    0.0000 </r>
       <r>    9.6699    0.0000 </r>
       <r>   13.5445    0.0000 </r>
      </set>
      <set comment="kpoint 61">
       <r>   -4.2684    1.0000 </r>
       <r>   -0.2402    1.0000 </r>
       <r>    2.9583    1.0000 </r>
       <r>    4.4548    1.0000 </r>
       <r>    8.0759    0.0000 </r>
       <r>    9.4522    0.0000 </r>
       <r>    9.5981    0.0000 </r>
       <r>   12.8708    0.0000 </r>
      </set>
      <set comment="kpoint 62">
       <r>   -4.6219    1.0000 </r>
       <r>    0.4111    1.0000 </r>
       <r>    3.0151    1.0000 </r>
       <r>    4.6484    1.0000 </r>
       <r>    8.2282    0.0000 </r>
       <r>    9.5114    0.0000 </r>
       <r>    9.5342    0.0000 </r>
       <r>   12.1974    0.0000 </r>
      </set>
      <set comment="kpoint 63">
       <r>   -4.9573    1.0000 </r>
       <r>    1.1231    1.0000 </r>
       <r>    3.1379    1.0000 </r>
       <r>    4.8544    1.0000 </r>
       <r>    8.3899    0.0000 </r>
       <r>    9.3694    0.0000 </r>
       <r>    9.5587    0.0000 </r>
       <r>   11.6373    0.0000 </r>
      </set>
      <set comment="kpoint 64">
       <r>   -5.2554    1.0000 </r>
       <r>    1.8449    1.0000 </r>
       <r>    3.3498    1.0000 </r>
       <r>    5.0567    1.0000 </r>
       <r>    8.5404    0.0000 </r>
       <r>    9.1529    0.0000 </r>
       <r>    9.4272    0.0000 </r>
       <r>   11.2972    0.0000 </r>
      </set>
      <set comment="kpoint 65">
       <r>   -5.5064    1.0000 </r>
       <r>    2.4998    1.0000 </r>
       <r>    3.7008    1.0000 </r>
       <r>    5.2305    1.0000 </r>
       <r>    8.6179    0.0000 </r>
       <r>    8.9033    0.0000 </r>
       <r>    9.1507    0.0000 </r>
       <r>   11.1687    0.0000 </r>
      </set>
      <set comment="kpoint 66">
       <r>   -5.5763    1.0000 </r>
       <r>    3.1560    1.0000 </r>
       <r>    4.2489    1.0000 </r>
       <r>    4.2489    1.0000 </r>
       <r>    7.1675    0.0000 </r>
       <r>    9.6010    0.0000 </r>
       <r>   10.3118    0.0000 </r>
       <r>   10.3118    0.0000 </r>
      </set>
      <set comment="kpoint 67">
       <r>   -5.3947    1.0000 </r>
       <r>    2.6275    1.0000 </r>
       <r>    4.0445    1.0000 </r>
       <r>    4.0600    1.0000 </r>
       <r>    7.1171    0.0000 </r>
       <r>    9.3295    0.0000 </r>
       <r>   10.5645    0.0000 </r>
       <r>   10.6639    0.0000 </r>
      </set>
      <set comment="kpoint 68">
       <r>   -5.1598    1.0000 </r>
       <r>    1.9742    1.0000 </r>
       <r>    3.7928    1.0000 </r>
       <r>    3.9075    1.0000 </r>
       <r>    7.2396    0.0000 </r>
       <r>    9.1946    0.0000 </r>
       <r>   10.5761    0.0000 </r>
       <r>   10.8977    0.0000 </r>
      </set>
      <set comment="kpoint 69">
       <r>   -4.8759    1.0000 </r>
       <r>    1.2809    1.0000 </r>
       <r>    3.5066    1.0000 </r>
       <r>    3.7961    1.0000 </r>
       <r>    7.3887    0.0000 </r>
       <r>    9.2952    0.0000 </r>
       <r>   10.4813    0.0000 </r>
       <r>   10.9777    0.0000 </r>
      </set>
      <set comment="kpoint 70">
       <r>   -4.5508    1.0000 </r>
       <r>    0.5938    1.0000 </r>
       <r>    3.2214    1.0000 </r>
       <r>    3.7289    1.0000 </r>
       <r>    7.4659    0.0000 </r>
[...]
       <r>   -1.7168    1.0000 </r>
       <r>    2.1275    1.0000 </r>
       <r>    2.2601    1.0000 </r>
       <r>    7.8766    0.0000 </r>
       <r>    7.9981    0.0000 </r>
       <r>   12.5076    0.0000 </r>
       <r>   13.3503    0.0000 </r>
      </set>
      <set comment="kpoint 276">
       <r>   -2.1395    1.0000 </r>
       <r>   -1.8871    1.0000 </r>
       <r>    1.8533    1.0000 </r>
       <r>    2.2904    1.0000 </r>
       <r>    8.0425    0.0000 </r>
       <r>    8.7443    0.0000 </r>
       <r>   12.2695    0.0000 </r>
       <r>   12.3784    0.0000 </r>
      </set>
      <set comment="kpoint 277">
       <r>   -3.3484    1.0000 </r>
       <r>   -0.6491    1.0000 </r>
       <r>    1.8139    1.0000 </r>
       <r>    2.8877    1.0000 </r>
       <r>    8.8356    0.0000 </r>
       <r>    9.3628    0.0000 </r>
       <r>    9.9321    0.0000 </r>
       <r>   13.5827    0.0000 </r>
      </set>
      <set comment="kpoint 278">
       <r>   -3.0071    1.0000 </r>
       <r>   -1.0073    1.0000 </r>
       <r>    1.6605    1.0000 </r>
       <r>    2.6996    1.0000 </r>
       <r>    9.0966    0.0000 </r>
       <r>    9.5497    0.0000 </r>
       <r>   10.1139    0.0000 </r>
       <r>   12.8927    0.0000 </r>
      </set>
      <set comment="kpoint 279">
       <r>   -2.7588    1.0000 </r>
       <r>   -1.2688    1.0000 </r>
       <r>    1.5906    1.0000 </r>
       <r>    2.5982    1.0000 </r>
       <r>    9.1866    0.0000 </r>
       <r>    9.4711    0.0000 </r>
       <r>   10.8769    0.0000 </r>
       <r>   11.9048    0.0000 </r>
      </set>
      <set comment="kpoint 280">
       <r>   -2.8205    1.0000 </r>
       <r>   -1.1731    1.0000 </r>
       <r>    1.7871    1.0000 </r>
       <r>    2.4273    1.0000 </r>
       <r>    8.7866    0.0000 </r>
       <r>    9.1059    0.0000 </r>
       <r>   10.5745    0.0000 </r>
       <r>   13.0207    0.0000 </r>
      </set>
      <set comment="kpoint 281">
       <r>   -2.5172    1.0000 </r>
       <r>   -1.4608    1.0000 </r>
       <r>    1.6739    1.0000 </r>
       <r>    2.2902    1.0000 </r>
       <r>    9.0193    0.0000 </r>
       <r>    9.7368    0.0000 </r>
       <r>   10.4428    0.0000 </r>
       <r>   11.9956    0.0000 </r>
      </set>
      <set comment="kpoint 282">
       <r>   -2.4414    1.0000 </r>
       <r>   -1.5295    1.0000 </r>
       <r>    1.5864    1.0000 </r>
       <r>    2.3117    1.0000 </r>
       <r>    9.1597    0.0000 </r>
       <r>   10.0563    0.0000 </r>
       <r>   10.7643    0.0000 </r>
       <r>   11.1437    0.0000 </r>
      </set>
      <set comment="kpoint 283">
       <r>   -2.6728    1.0000 </r>
       <r>   -1.3070    1.0000 </r>
       <r>    1.5688    1.0000 </r>
       <r>    2.4605    1.0000 </r>
       <r>    9.3246    0.0000 </r>
       <r>    9.8109    0.0000 </r>
       <r>   10.2857    0.0000 </r>
       <r>   11.8567    0.0000 </r>
      </set>
      <set comment="kpoint 284">
       <r>   -2.2707    1.0000 </r>
       <r>   -1.7165    1.0000 </r>
       <r>    1.8746    1.0000 </r>
       <r>    2.0865    1.0000 </r>
       <r>    8.8123    0.0000 </r>
       <r>    8.9178    0.0000 </r>
       <r>   11.3200    0.0000 </r>
       <r>   12.1403    0.0000 </r>
      </set>
      <set comment="kpoint 285">
       <r>   -2.1577    1.0000 </r>
       <r>   -1.8053    1.0000 </r>
       <r>    1.7225    1.0000 </r>
       <r>    2.1046    1.0000 </r>
       <r>    8.9928    0.0000 </r>
       <r>    9.7189    0.0000 </r>
       <r>   11.1284    0.0000 </r>
       <r>   11.2002    0.0000 </r>
      </set>
      <set comment="kpoint 286">
       <r>   -2.2027    1.0000 </r>
       <r>   -1.7451    1.0000 </r>
       <r>    1.7306    1.0000 </r>
       <r>    2.0305    1.0000 </r>
       <r>    9.7448    0.0000 </r>
       <r>    9.8017    0.0000 </r>
       <r>   10.3891    0.0000 </r>
       <r>   11.0245    0.0000 </r>
      </set>
     </set>
    </set>
   </array>
  </eigenvalues>
  <separator name="orbital magnetization" >
   <v name="MAGDIPOLOUT">      0.00000000      0.00000000      0.00000000</v>
  </separator>
  <dos>
   <i name="efermi">      5.82139440 </i>
   <total>
    <array>
     <dimension dim="1">gridpoints</dimension>
     <dimension dim="2">spin</dimension>
     <field>energy</field>
     <field>total</field>
     <field>integrated</field>
     <set>
      <set comment="spin 1">
       <r>    -7.2791     0.0000     0.0000 </r>
       <r>    -7.1997     0.0000     0.0000 </r>
       <r>    -7.1203     0.0000     0.0000 </r>
       <r>    -7.0410     0.0000     0.0000 </r>
       <r>    -6.9616     0.0000     0.0000 </r>
       <r>    -6.8822     0.0000     0.0000 </r>
       <r>    -6.8028     0.0000     0.0000 </r>
       <r>    -6.7234     0.0000     0.0000 </r>
       <r>    -6.6440     0.0000     0.0000 </r>
       <r>    -6.5647     0.0000     0.0000 </r>
       <r>    -6.4853     0.0000     0.0000 </r>
       <r>    -6.4059     0.0000     0.0000 </r>
       <r>    -6.3265     0.0000     0.0000 </r>
       <r>    -6.2471     0.0006     0.0000 </r>
       <r>    -6.1678     0.0224     0.0018 </r>
       <r>    -6.0884     0.0886     0.0089 </r>
       <r>    -6.0090     0.1315     0.0193 </r>
       <r>    -5.9296     0.1721     0.0330 </r>
       <r>    -5.8502     0.1968     0.0486 </r>
       <r>    -5.7708     0.2278     0.0667 </r>
       <r>    -5.6915     0.2262     0.0846 </r>
       <r>    -5.6121     0.3099     0.1092 </r>
       <r>    -5.5327     0.2412     0.1284 </r>
       <r>    -5.4533     0.3253     0.1542 </r>
       <r>    -5.3739     0.3680     0.1834 </r>
       <r>    -5.2946     0.2773     0.2054 </r>
       <r>    -5.2152     0.3850     0.2360 </r>
       <r>    -5.1358     0.4256     0.2698 </r>
       <r>    -5.0564     0.3753     0.2996 </r>
       <r>    -4.9770     0.3444     0.3269 </r>
       <r>    -4.8976     0.5472     0.3703 </r>
       <r>    -4.8183     0.4123     0.4031 </r>
       <r>    -4.7389     0.4719     0.4405 </r>
       <r>    -4.6595     0.4272     0.4744 </r>
       <r>    -4.5801     0.5939     0.5216 </r>
       <r>    -4.5007     0.5659     0.5665 </r>
       <r>    -4.4214     0.4685     0.6037 </r>
       <r>    -4.3420     0.5311     0.6459 </r>
       <r>    -4.2626     0.7000     0.7014 </r>
       <r>    -4.1832     0.6896     0.7562 </r>
       <r>    -4.1038     0.5652     0.8010 </r>
       <r>    -4.0244     0.6248     0.8506 </r>
       <r>    -3.9451     0.8977     0.9219 </r>
       <r>    -3.8657     0.9646     0.9985 </r>
       <r>    -3.7863     0.8025     1.0622 </r>
       <r>    -3.7069     0.7003     1.1178 </r>
       <r>    -3.6275     1.0496     1.2011 </r>
       <r>    -3.5482     0.8166     1.2659 </r>
       <r>    -3.4688     0.6900     1.3207 </r>
       <r>    -3.3894     0.7221     1.3780 </r>
       <r>    -3.3100     0.7856     1.4404 </r>
       <r>    -3.2306     0.7157     1.4972 </r>
       <r>    -3.1512     0.6717     1.5505 </r>
       <r>    -3.0719     0.5143     1.5913 </r>
       <r>    -2.9925     0.7226     1.6487 </r>
       <r>    -2.9131     0.6580     1.7009 </r>
       <r>    -2.8337     0.3630     1.7297 </r>
       <r>    -2.7543     0.5328     1.7720 </r>
       <r>    -2.6750     0.7013     1.8277 </r>
       <r>    -2.5956     0.3316     1.8540 </r>
       <r>    -2.5162     0.2730     1.8757 </r>
       <r>    -2.4368     0.4783     1.9137 </r>
       <r>    -2.3574     0.4940     1.9529 </r>
       <r>    -2.2780     0.1521     1.9649 </r>
       <r>    -2.1987     0.1282     1.9751 </r>
       <r>    -2.1193     0.2520     1.9951 </r>
       <r>    -2.0399     0.1341     2.0058 </r>
       <r>    -1.9605     0.0759     2.0118 </r>
       <r>    -1.8811     0.0834     2.0184 </r>
       <r>    -1.8018     0.1086     2.0270 </r>
       <r>    -1.7224     0.3629     2.0559 </r>
       <r>    -1.6430     0.3949     2.0872 </r>
       <r>    -1.5636     0.2737     2.1089 </r>
       <r>    -1.4842     0.2749     2.1307 </r>
       <r>    -1.4048     0.4244     2.1644 </r>
       <r>    -1.3255     0.8608     2.2328 </r>
       <r>    -1.2461     0.4277     2.2667 </r>
       <r>    -1.1667     0.7692     2.3278 </r>
       <r>    -1.0873     1.6678     2.4602 </r>
       <r>    -1.0079     1.6183     2.5886 </r>
       <r>    -0.9285     1.0888     2.6751 </r>
       <r>    -0.8492     0.9482     2.7503 </r>
       <r>    -0.7698     0.7967     2.8136 </r>
       <r>    -0.6904     0.8362     2.8800 </r>
       <r>    -0.6110     0.6675     2.9329 </r>
       <r>    -0.5316     0.6630     2.9856 </r>
       <r>    -0.4523     0.6953     3.0408 </r>
       <r>    -0.3729     0.5098     3.0812 </r>
       <r>    -0.2935     0.4312     3.1155 </r>
       <r>    -0.2141     0.7474     3.1748 </r>
       <r>    -0.1347     0.3352     3.2014 </r>
       <r>    -0.0553     0.5056     3.2415 </r>
       <r>     0.0240     0.5297     3.2836 </r>
       <r>     0.1034     0.2559     3.3039 </r>
       <r>     0.1828     0.5157     3.3448 </r>
       <r>     0.2622     0.3530     3.3729 </r>
       <r>     0.3416     0.3562     3.4011 </r>
       <r>     0.4209     0.4985     3.4407 </r>
       <r>     0.5003     0.1716     3.4543 </r>
       <r>     0.5797     0.2730     3.4760 </r>
       <r>     0.6591     0.5109     3.5166 </r>
       <r>     0.7385     0.1627     3.5295 </r>
       <r>     0.8179     0.2338     3.5480 </r>
       <r>     0.8972     0.4567     3.5843 </r>
       <r>     0.9766     0.2161     3.6015 </r>
       <r>     1.0560     0.1067     3.6099 </r>
       <r>     1.1354     0.3149     3.6349 </r>
       <r>     1.2148     0.2451     3.6544 </r>
       <r>     1.2941     0.2182     3.6717 </r>
       <r>     1.3735     0.5013     3.7115 </r>
       <r>     1.4529     0.6659     3.7644 </r>
       <r>     1.5323     0.8277     3.8301 </r>
       <r>     1.6117     1.1144     3.9185 </r>
       <r>     1.6911     1.3667     4.0270 </r>
       <r>     1.7704     1.0005     4.1064 </r>
       <r>     1.8498     1.2332     4.2043 </r>
       <r>     1.9292     1.2433     4.3030 </r>
       <r>     2.0086     0.7905     4.3658 </r>
       <r>     2.0880     1.0453     4.4488 </r>
       <r>     2.1673     1.1449     4.5396 </r>
       <r>     2.2467     0.9311     4.6135 </r>
       <r>     2.3261     1.0796     4.6992 </r>
       <r>     2.4055     1.2272     4.7967 </r>
       <r>     2.4849     1.2551     4.8963 </r>
       <r>     2.5643     0.8561     4.9643 </r>
       <r>     2.6436     1.2644     5.0646 </r>
       <r>     2.7230     1.3267     5.1699 </r>
       <r>     2.8024     1.4110     5.2819 </r>
       <r>     2.8818     1.3734     5.3910 </r>
       <r>     2.9612     1.5713     5.5157 </r>
       <r>     3.0405     1.7865     5.6575 </r>
       <r>     3.1199     1.4854     5.7754 </r>
       <r>     3.1993     1.1553     5.8671 </r>
       <r>     3.2787     1.2371     5.9653 </r>
       <r>     3.3581     1.9659     6.1214 </r>
       <r>     3.4375     1.4927     6.2399 </r>
       <r>     3.5168     0.9951     6.3189 </r>
       <r>     3.5962     1.3685     6.4275 </r>
       <r>     3.6756     1.5094     6.5473 </r>
       <r>     3.7550     1.2363     6.6455 </r>
       <r>     3.8344     1.2865     6.7476 </r>
       <r>     3.9137     1.4566     6.8632 </r>
       <r>     3.9931     1.1166     6.9519 </r>
       <r>     4.0725     1.1664     7.0445 </r>
       <r>     4.1519     1.1765     7.1379 </r>
       <r>     4.2313     1.3160     7.2423 </r>
       <r>     4.3107     1.2278     7.3398 </r>
       <r>     4.3900     1.1039     7.4274 </r>
       <r>     4.4694     1.0504     7.5108 </r>
       <r>     4.5488     0.9332     7.5849 </r>
       <r>     4.6282     0.7011     7.6405 </r>
       <r>     4.7076     0.7358     7.6990 </r>
       <r>     4.7869     0.6034     7.7469 </r>
       <r>     4.8663     0.4928     7.7860 </r>
       <r>     4.9457     0.5799     7.8320 </r>
       <r>     5.0251     0.3910     7.8630 </r>
       <r>     5.1045     0.3631     7.8919 </r>
       <r>     5.1839     0.3179     7.9171 </r>
       <r>     5.2632     0.2279     7.9352 </r>
       <r>     5.3426     0.3256     7.9610 </r>
       <r>     5.4220     0.2130     7.9780 </r>
       <r>     5.5014     0.1443     7.9894 </r>
       <r>     5.5808     0.0874     7.9963 </r>
       <r>     5.6601     0.0438     7.9998 </r>
       <r>     5.7395     0.0022     8.0000 </r>
       <r>     5.8189     0.0000     8.0000 </r>
       <r>     5.8983     0.0000     8.0000 </r>
       <r>     5.9777     0.0000     8.0000 </r>
       <r>     6.0571     0.0000     8.0000 </r>
       <r>     6.1364     0.0000     8.0000 </r>
       <r>     6.2158     0.0063     8.0005 </r>
       <r>     6.2952     0.0408     8.0037 </r>
       <r>     6.3746     0.1314     8.0142 </r>
       <r>     6.4540     0.1929     8.0295 </r>
       <r>     6.5334     0.2685     8.0508 </r>
       <r>     6.6127     0.3128     8.0756 </r>
       <r>     6.6921     0.4443     8.1109 </r>
       <r>     6.7715     0.4551     8.1470 </r>
       <r>     6.8509     0.4813     8.1852 </r>
       <r>     6.9303     0.3999     8.2170 </r>
       <r>     7.0096     0.5309     8.2591 </r>
       <r>     7.0890     0.6261     8.3088 </r>
       <r>     7.1684     0.6667     8.3617 </r>
       <r>     7.2478     0.9184     8.4346 </r>
       <r>     7.3272     0.7712     8.4959 </r>
       <r>     7.4066     0.8895     8.5665 </r>
       <r>     7.4859     1.1358     8.6566 </r>
       <r>     7.5653     1.0092     8.7368 </r>
       <r>     7.6447     0.8932     8.8077 </r>
       <r>     7.7241     1.2060     8.9034 </r>
       <r>     7.8035     1.6173     9.0318 </r>
       <r>     7.8828     1.7111     9.1676 </r>
       <r>     7.9622     1.7567     9.3071 </r>
       <r>     8.0416     1.6356     9.4369 </r>
       <r>     8.1210     1.3878     9.5471 </r>
       <r>     8.2004     1.5354     9.6689 </r>
       <r>     8.2798     1.1314     9.7588 </r>
       <r>     8.3591     1.4255     9.8719 </r>
       <r>     8.4385     1.1796     9.9656 </r>
       <r>     8.5179     0.8785    10.0353 </r>
       <r>     8.5973     0.8516    10.1029 </r>
       <r>     8.6767     1.3452    10.2097 </r>
       <r>     8.7560     1.0541    10.2934 </r>
       <r>     8.8354     1.4311    10.4070 </r>
       <r>     8.9148     1.9731    10.5636 </r>
       <r>     8.9942     2.7100    10.7787 </r>
       <r>     9.0736     1.8930    10.9290 </r>
       <r>     9.1530     1.8351    11.0747 </r>
       <r>     9.2323     1.5912    11.2010 </r>
       <r>     9.3117     1.4892    11.3192 </r>
       <r>     9.3911     1.6406    11.4494 </r>
       <r>     9.4705     1.4215    11.5623 </r>
       <r>     9.5499     1.7708    11.7028 </r>
       <r>     9.6292     1.3799    11.8124 </r>
       <r>     9.7086     1.2002    11.9076 </r>
       <r>     9.7880     1.7477    12.0464 </r>
       <r>     9.8674     1.3127    12.1506 </r>
       <r>     9.9468     0.8847    12.2208 </r>
       <r>    10.0262     0.9528    12.2964 </r>
       <r>    10.1055     1.3718    12.4053 </r>
       <r>    10.1849     1.2993    12.5085 </r>
       <r>    10.2643     1.1632    12.6008 </r>
       <r>    10.3437     1.5080    12.7205 </r>
       <r>    10.4231     1.1564    12.8123 </r>
       <r>    10.5024     1.7416    12.9506 </r>
       <r>    10.5818     1.3871    13.0607 </r>
       <r>    10.6612     1.0720    13.1458 </r>
       <r>    10.7406     0.9113    13.2181 </r>
       <r>    10.8200     1.2690    13.3189 </r>
       <r>    10.8994     1.2867    13.4210 </r>
       <r>    10.9787     0.8779    13.4907 </r>
       <r>    11.0581     1.3096    13.5947 </r>
       <r>    11.1375     1.1229    13.6838 </r>
       <r>    11.2169     1.2411    13.7823 </r>
       <r>    11.2963     1.2114    13.8785 </r>
       <r>    11.3756     1.4177    13.9910 </r>
       <r>    11.4550     1.1427    14.0817 </r>
       <r>    11.5344     0.8672    14.1506 </r>
       <r>    11.6138     0.7862    14.2130 </r>
       <r>    11.6932     0.9121    14.2854 </r>
       <r>    11.7726     0.8453    14.3525 </r>
       <r>    11.8519     0.8717    14.4217 </r>
       <r>    11.9313     0.9937    14.5006 </r>
       <r>    12.0107     1.0693    14.5855 </r>
       <r>    12.0901     0.9527    14.6611 </r>
       <r>    12.1695     1.4071    14.7728 </r>
       <r>    12.2488     1.5462    14.8955 </r>
       <r>    12.3282     0.7730    14.9569 </r>
       <r>    12.4076     0.4809    14.9951 </r>
       <r>    12.4870     0.5446    15.0383 </r>
       <r>    12.5664     0.6075    15.0865 </r>
       <r>    12.6458     0.4191    15.1198 </r>
       <r>    12.7251     0.5434    15.1629 </r>
       <r>    12.8045     0.8025    15.2266 </r>
       <r>    12.8839     0.6810    15.2807 </r>
       <r>    12.9633     0.8533    15.3484 </r>
       <r>    13.0427     0.7874    15.4109 </r>
       <r>    13.1221     1.1702    15.5038 </r>
       <r>    13.2014     0.6088    15.5521 </r>
       <r>    13.2808     0.2788    15.5743 </r>
       <r>    13.3602     0.4492    15.6099 </r>
       <r>    13.4396     0.4541    15.6460 </r>
       <r>    13.5190     0.3643    15.6749 </r>
       <r>    13.5983     0.3712    15.7044 </r>
       <r>    13.6777     0.4089    15.7368 </r>
       <r>    13.7571     0.4263    15.7707 </r>
       <r>    13.8365     0.1644    15.7837 </r>
       <r>    13.9159     0.4552    15.8199 </r>
       <r>    13.9953     0.6932    15.8749 </r>
       <r>    14.0746     0.2018    15.8909 </r>
       <r>    14.1540     0.0139    15.8920 </r>
       <r>    14.2334     0.0480    15.8958 </r>
       <r>    14.3128     0.0331    15.8984 </r>
       <r>    14.3922     0.1196    15.9079 </r>
       <r>    14.4715     0.0529    15.9121 </r>
       <r>    14.5509     0.2108    15.9289 </r>
       <r>    14.6303     0.1427    15.9402 </r>
       <r>    14.7097     0.0649    15.9454 </r>
       <r>    14.7891     0.2110    15.9621 </r>
       <r>    14.8685     0.2522    15.9821 </r>
       <r>    14.9478     0.0603    15.9869 </r>
       <r>    15.0272     0.0017    15.9870 </r>
       <r>    15.1066     0.0000    15.9870 </r>
       <r>    15.1860     0.0004    15.9871 </r>
       <r>    15.2654     0.0256    15.9891 </r>
       <r>    15.3447     0.0521    15.9932 </r>
       <r>    15.4241     0.0546    15.9976 </r>
       <r>    15.5035     0.0280    15.9998 </r>
       <r>    15.5829     0.0025    16.0000 </r>
       <r>    15.6623     0.0000    16.0000 </r>
       <r>    15.7417     0.0000    16.0000 </r>
       <r>    15.8210     0.0000    16.0000 </r>
       <r>    15.9004     0.0000    16.0000 </r>
       <r>    15.9798     0.0000    16.0000 </r>
       <r>    16.0592     0.0000    16.0000 </r>
       <r>    16.1386     0.0000    16.0000 </r>
       <r>    16.2179     0.0000    16.0000 </r>
       <r>    16.2973     0.0000    16.0000 </r>
       <r>    16.3767     0.0000    16.0000 </r>
       <r>    16.4561     0.0000    16.0000 </r>
       <r>    16.5355     0.0000    16.0000 </r>
      </set>
     </set>
    </array>
   </total>
  </dos>
 </calculation>
 <structure name="finalpos" >
  <crystal>
   <varray name="basis" >
    <v>       3.34813394       0.00000000       1.93304576 </v>
    <v>       1.11604465       3.15665220       1.93304576 </v>
    <v>       0.00000000       0.00000000       3.86609152 </v>
   </varray>
   <i name="volume">     40.86031284 </i>
   <varray name="rec_basis" >
    <v>       0.29867383      -0.10559710      -0.00000000 </v>
    <v>       0.00000000       0.31679131       0.00000000 </v>
    <v>      -0.14933692      -0.10559710       0.25865916 </v>
   </varray>
  </crystal>
  <varray name="positions" >
   <v>       0.87500000       0.87500000       0.87500000 </v>
   <v>       0.12500000       0.12500000       0.12500000 </v>
  </varray>
 </structure>
</modeling>
