    2    2  100    1
  0.2016476E+02  0.3849278E-09  0.3849279E-09  0.3849278E-09  0.5000000E-15
  1.000000000000000E-004
  CAR 
 unknown system                          
      8    120      8
 
  0.0000000E+00  0.0000000E+00  0.0000000E+00  0.2962963E-03
    1       -6.198339   1.000000
    2        5.617137   1.000000
    3        5.617137   1.000000
    4        5.617140   1.000000
    5        8.174204   0.000000
    6        8.174211   0.000000
    7        8.174212   0.000000
    8        8.752574   0.000000
 
  0.6666667E-01 -0.3469447E-17  0.0000000E+00  0.2370370E-02
    1       -6.141083   1.000000
    2        5.024185   1.000000
    3        5.524101   1.000000
    4        5.524103   1.000000
    5        8.209738   0.000000
    6        8.311051   0.000000
    7        8.311058   0.000000
    8        9.213263   0.000000
 
  0.1333333E+00 -0.6938894E-17  0.0000000E+00  0.2370370E-02
    1       -5.970416   1.000000
    2        3.873403   1.000000
    3        5.303720   1.000000
    4        5.303722   1.000000
    5        8.031204   0.000000
    6        8.634372   0.000000
    7        8.634380   0.000000
    8       10.298437   0.000000
 
  0.2000000E+00  0.0000000E+00  0.0000000E+00  0.2370370E-02
    1       -5.690270   1.000000
    2        2.635214   1.000000
    3        5.049580   1.000000
    4        5.049582   1.000000
    5        7.770330   0.000000
    6        8.961901   0.000000
    7        8.961908   0.000000
    8       11.496890   0.000000
 
  0.2666667E+00 -0.1387779E-16  0.0000000E+00  0.2370370E-02
    1       -5.309536   1.000000
    2        1.439480   1.000000
    3        4.818068   1.000000
    4        4.818071   1.000000
    5        7.517299   0.000000
    6        9.130547   0.000000
    7        9.130555   0.000000
    8       12.642493   0.000000
 
  0.3333333E+00 -0.1387779E-16  0.0000000E+00  0.2370370E-02
    1       -4.848111   1.000000
    2        0.347466   1.000000
    3        4.634641   1.000000
    4        4.634644   1.000000
    5        7.310436   0.000000
    6        9.120792   0.000000
    7        9.120801   0.000000
    8       13.401759   0.000000
 
  0.4000000E+00 -0.2775558E-16  0.0000000E+00  0.2370370E-02
    1       -4.357001   1.000000
    2       -0.571349   1.000000
    3        4.509602   1.000000
    4        4.509605   1.000000
    5        7.166805   0.000000
    6        9.037949   0.000000
    7        9.037957   0.000000
    8       13.423000   0.000000
 
  0.4666667E+00 -0.2775558E-16  0.0000000E+00  0.2370370E-02
    1       -3.979239   1.000000
    2       -1.164932   1.000000
    3        4.446583   1.000000
    4        4.446586   1.000000
    5        7.093677   0.000000
    6        8.975505   0.000000
    7        8.975514   0.000000
    8       13.333389   0.000000
 
  0.6666667E-01  0.6666667E-01  0.0000000E+00  0.1777778E-02
    1       -6.121934   1.000000
    2        5.133381   1.000000
    3        5.331076   1.000000
    4        5.331078   1.000000
    5        7.995650   0.000000
    6        8.554343   0.000000
    7        8.554348   0.000000
    8        9.213588   0.000000
 
  0.1333333E+00  0.6666667E-01  0.0000000E+00  0.7111111E-02
    1       -5.988867   1.000000
    2        4.209851   1.000000
    3        5.058255   1.000000
    4        5.223795   1.000000
    5        7.993062   0.000000
    6        8.618502   0.000000
    7        8.948605   0.000000
    8       10.006479   0.000000
 
  0.2000000E+00  0.6666667E-01  0.0000000E+00  0.7111111E-02
    1       -5.744732   1.000000
    2        3.023661   1.000000
    3        4.787814   1.000000
    4        5.008486   1.000000
    5        8.069546   0.000000
    6        8.616161   0.000000
    7        9.332180   0.000000
    8       10.885770   0.000000
 
  0.2666667E+00  0.6666667E-01  0.0000000E+00  0.7111111E-02
    1       -5.396333   1.000000
    2        1.829495   1.000000
    3        4.563251   1.000000
    4        4.738171   1.000000
    5        7.926243   0.000000
    6        8.804480   0.000000
    7        9.544512   0.000000
    8       11.371604   0.000000
 
  0.3333333E+00  0.6666667E-01  0.0000000E+00  0.7111111E-02
    1       -4.958576   1.000000
    2        0.709989   1.000000
    3        4.404079   1.000000
    4        4.478771   1.000000
    5        7.733299   0.000000
    6        8.898880   0.000000
    7        9.534885   0.000000
    8       11.937191   0.000000
 
  0.4000000E+00  0.6666667E-01  0.0000000E+00  0.7111111E-02
    1       -4.467968   1.000000
    2       -0.269964   1.000000
    3        4.260695   1.000000
    4        4.317633   1.000000
    5        7.578107   0.000000
    6        8.887293   0.000000
    7        9.400000   0.000000
    8       12.738194   0.000000
 
  0.4666667E+00  0.6666667E-01  0.0000000E+00  0.7111111E-02
    1       -4.026149   1.000000
    2       -0.995087   1.000000
    3        4.098532   1.000000
    4        4.304851   1.000000
    5        7.484116   0.000000
    6        8.876286   0.000000
    7        9.250825   0.000000
    8       13.382133   0.000000
 
 -0.4666667E+00  0.6666667E-01  0.0000000E+00  0.7111111E-02
    1       -3.875278   1.000000
    2       -1.216925   1.000000
    3        4.000830   1.000000
    4        4.362918   1.000000
    5        7.459270   0.000000
    6        8.924756   0.000000
    7        9.147668   0.000000
    8       13.521590   0.000000
 
 -0.4000000E+00  0.6666667E-01  0.0000000E+00  0.7111111E-02
    1       -4.156882   1.000000
    2       -0.792648   1.000000
    3        3.973751   1.000000
    4        4.486522   1.000000
    5        7.505427   0.000000
    6        9.043155   0.000000
    7        9.106733   0.000000
    8       13.492295   0.000000
 
 -0.3333333E+00  0.6666667E-01  0.0000000E+00  0.7111111E-02
    1       -4.633998   1.000000
    2        0.037762   1.000000
    3        4.021998   1.000000
    4        4.668006   1.000000
    5        7.620717   0.000000
    6        9.103668   0.000000
    7        9.201604   0.000000
    8       13.083051   0.000000
 
 -0.2666667E+00  0.6666667E-01  0.0000000E+00  0.7111111E-02
    1       -5.113455   1.000000
    2        1.072311   1.000000
    3        4.148551   1.000000
    4        4.895916   1.000000
    5        7.798886   0.000000
    6        9.063245   0.000000
    7        9.314709   0.000000
    8       12.327256   0.000000
 
 -0.2000000E+00  0.6666667E-01  0.0000000E+00  0.7111111E-02
    1       -5.523831   1.000000
    2        2.220008   1.000000
    3        4.354293   1.000000
    4        5.150215   1.000000
    5        8.025256   0.000000
    6        8.885225   0.000000
    7        9.234537   0.000000
    8       11.590546   0.000000
 
 -0.1333333E+00  0.6666667E-01  0.0000000E+00  0.7111111E-02
    1       -5.838457   1.000000
    2        3.406722   1.000000
    3        4.640718   1.000000
    4        5.391218   1.000000
    5        8.265905   0.000000
    6        8.582905   0.000000
    7        8.888636   0.000000
    8       10.776240   0.000000
 
 -0.6666667E-01  0.6666667E-01  0.0000000E+00  0.3555556E-02
    1       -6.045930   1.000000
    2        4.461658   1.000000
    3        5.043421   1.000000
    4        5.544564   1.000000
    5        8.331607   0.000000
    6        8.432243   0.000000
    7        8.439687   0.000000
    8        9.840739   0.000000
 
  0.1333333E+00  0.1333333E+00  0.0000000E+00  0.1777778E-02
    1       -5.893437   1.000000
    2        4.128028   1.000000
    3        4.754478   1.000000
    4        4.754478   1.000000
    5        7.573769   0.000000
    6        9.410154   0.000000
    7        9.410157   0.000000
    8        9.883974   0.000000
 
  0.2000000E+00  0.1333333E+00  0.0000000E+00  0.7111111E-02
    1       -5.686019   1.000000
    2        3.254168   1.000000
    3        4.467018   1.000000
    4        4.536374   1.000000
    5        7.540313   0.000000
    6        9.425543   0.000000
    7        9.875807   0.000000
    8       10.219924   0.000000
 
  0.2666667E+00  0.1333333E+00  0.0000000E+00  0.7111111E-02
    1       -5.371767   1.000000
    2        2.163146   1.000000
    3        4.235229   1.000000
    4        4.251037   1.000000
    5        7.730836   0.000000
    6        9.339556   0.000000
    7       10.182734   0.000000
    8       10.268052   0.000000
 
  0.3333333E+00  0.1333333E+00  0.0000000E+00  0.7111111E-02
    1       -4.961829   1.000000
    2        1.073188   1.000000
    3        3.924594   1.000000
    4        4.077715   1.000000
    5        7.827471   0.000000
    6        9.354689   0.000000
    7       10.232696   0.000000
    8       10.479641   0.000000
 
  0.4000000E+00  0.1333333E+00  0.0000000E+00  0.7111111E-02
    1       -4.482427   1.000000
    2        0.073035   1.000000
    3        3.620982   1.000000
    4        4.002222   1.000000
    5        7.800287   0.000000
    6        9.294838   0.000000
    7       10.095566   0.000000
    8       11.180885   0.000000
 
  0.4666667E+00  0.1333333E+00  0.0000000E+00  0.7111111E-02
    1       -4.004408   1.000000
    2       -0.738579   1.000000
    3        3.371279   1.000000
    4        4.010287   1.000000
    5        7.769895   0.000000
    6        9.218272   0.000000
    7        9.898729   0.000000
    8       12.189453   0.000000
 
 -0.4666667E+00  0.1333333E+00  0.0000000E+00  0.7111111E-02
    1       -3.722683   1.000000
    2       -1.153876   1.000000
    3        3.192002   1.000000
    4        4.099140   1.000000
    5        7.796855   0.000000
    6        9.195849   0.000000
    7        9.721846   0.000000
    8       13.293746   0.000000
 
 -0.4000000E+00  0.1333333E+00  0.0000000E+00  0.7111111E-02
    1       -3.878295   1.000000
    2       -0.927755   1.000000
    3        3.094405   1.000000
    4        4.262126   1.000000
    5        7.894128   0.000000
    6        9.248712   0.000000
    7        9.594408   0.000000
    8       13.727080   0.000000
 
 -0.3333333E+00  0.1333333E+00  0.0000000E+00  0.7111111E-02
    1       -4.322915   1.000000
    2       -0.212065   1.000000
    3        3.088475   1.000000
    4        4.487993   1.000000
    5        8.053419   0.000000
    6        9.367345   0.000000
    7        9.503251   0.000000
    8       12.881724   0.000000
 
 -0.2666667E+00  0.1333333E+00  0.0000000E+00  0.7111111E-02
    1       -4.813067   1.000000
    2        0.734772   1.000000
    3        3.187007   1.000000
    4        4.758360   1.000000
    5        8.256294   0.000000
    6        9.381986   0.000000
    7        9.485081   0.000000
    8       11.982867   0.000000
 
 -0.2000000E+00  0.1333333E+00  0.0000000E+00  0.7111111E-02
    1       -5.249179   1.000000
    2        1.770606   1.000000
    3        3.418490   1.000000
    4        5.041680   1.000000
    5        8.472530   0.000000
    6        9.135970   0.000000
    7        9.410016   0.000000
    8       11.366527   0.000000
 
 -0.1333333E+00  0.1333333E+00  0.0000000E+00  0.3555556E-02
    1       -5.595827   1.000000
    2        2.731695   1.000000
    3        3.872966   1.000000
    4        5.281632   1.000000
    5        8.599640   0.000000
    6        8.802596   0.000000
    7        9.036490   0.000000
    8       11.113499   0.000000
 
  0.2000000E+00  0.2000000E+00  0.0000000E+00  0.1777778E-02
    1       -5.515199   1.000000
    2        2.982651   1.000000
    3        4.162729   1.000000
    4        4.162731   1.000000
    5        7.093618   0.000000
    6        9.470769   0.000000
    7       10.458682   0.000000
    8       10.458684   0.000000
 
  0.2666667E+00  0.2000000E+00  0.0000000E+00  0.7111111E-02
    1       -5.235956   1.000000
    2        2.216742   1.000000
    3        3.854457   1.000000
    4        3.915673   1.000000
    5        7.084650   0.000000
    6        9.116547   0.000000
    7       10.729359   0.000000
    8       10.917730   0.000000
 
  0.3333333E+00  0.2000000E+00  0.0000000E+00  0.7111111E-02
    1       -4.856648   1.000000
    2        1.287715   1.000000
    3        3.451419   1.000000
    4        3.745900   1.000000
    5        7.296556   0.000000
    6        9.133390   0.000000
    7       10.645142   0.000000
    8       11.097672   0.000000
 
  0.4000000E+00  0.2000000E+00  0.0000000E+00  0.7111111E-02
    1       -4.396130   1.000000
    2        0.353569   1.000000
    3        3.040218   1.000000
    4        3.662541   1.000000
    5        7.404295   0.000000
    6        9.687222   0.000000
    7       10.478267   0.000000
    8       11.013540   0.000000
 
  0.4666667E+00  0.2000000E+00  0.0000000E+00  0.7111111E-02
    1       -3.903391   1.000000
    2       -0.475800   1.000000
    3        2.685491   1.000000
    4        3.668439   1.000000
    5        7.438661   0.000000
    6       10.317888   0.000000
    7       10.647834   0.000000
    8       10.808218   0.000000
 
 -0.4666667E+00  0.2000000E+00  0.0000000E+00  0.7111111E-02
    1       -3.522735   1.000000
    2       -1.025998   1.000000
    3        2.415601   1.000000
    4        3.761968   1.000000
    5        7.515868   0.000000
    6       10.212759   0.000000
    7       10.588557   0.000000
    8       11.821050   0.000000
 
 -0.4000000E+00  0.2000000E+00  0.0000000E+00  0.7111111E-02
    1       -3.535173   1.000000
    2       -1.004895   1.000000
    3        2.247549   1.000000
    4        3.937222   1.000000
    5        7.675839   0.000000
    6       10.164494   0.000000
    7       10.397950   0.000000
    8       13.112429   0.000000
 
 -0.3333333E+00  0.2000000E+00  0.0000000E+00  0.7111111E-02
    1       -3.926677   1.000000
    2       -0.433048   1.000000
    3        2.200543   1.000000
    4        4.182732   1.000000
    5        7.916047   0.000000
    6       10.170381   0.000000
    7       10.224908   0.000000
    8       12.760002   0.000000
 
 -0.2666667E+00  0.2000000E+00  0.0000000E+00  0.7111111E-02
    1       -4.418326   1.000000
    2        0.373335   1.000000
    3        2.313484   1.000000
    4        4.477992   1.000000
    5        8.205867   0.000000
    6        9.986047   0.000000
    7       10.165869   0.000000
    8       11.774042   0.000000
 
 -0.2000000E+00  0.2000000E+00  0.0000000E+00  0.3555556E-02
    1       -4.874604   1.000000
    2        1.170538   1.000000
    3        2.683595   1.000000
    4        4.786097   1.000000
    5        8.468513   0.000000
    6        9.583073   0.000000
    7        9.887122   0.000000
    8       11.274807   0.000000
 
  0.2666667E+00  0.2666667E+00  0.0000000E+00  0.1777778E-02
    1       -4.991370   1.000000
    2        1.803256   1.000000
    3        3.649980   1.000000
    4        3.649981   1.000000
    5        6.673538   0.000000
    6        8.512199   0.000000
    7       11.598113   0.000000
    8       11.598114   0.000000
 
  0.3333333E+00  0.2666667E+00  0.0000000E+00  0.7111111E-02
    1       -4.644107   1.000000
    2        1.123793   1.000000
    3        3.302429   1.000000
    4        3.461045   1.000000
    5        6.715987   0.000000
    6        8.209755   0.000000
    7       11.876529   0.000000
    8       12.014221   0.000000
 
  0.4000000E+00  0.2666667E+00  0.0000000E+00  0.7111111E-02
    1       -4.207651   1.000000
    2        0.363914   1.000000
    3        2.793533   1.000000
    4        3.359857   1.000000
    5        6.926187   0.000000
    6        8.407617   0.000000
    7       11.811902   0.000000
    8       12.066150   0.000000
 
  0.4666667E+00  0.2666667E+00  0.0000000E+00  0.7111111E-02
    1       -3.715666   1.000000
    2       -0.377597   1.000000
    3        2.292959   1.000000
    4        3.350687   1.000000
    5        7.020997   0.000000
    6        9.173120   0.000000
    7       11.667734   0.000000
    8       11.896401   0.000000
 
 -0.4666667E+00  0.2666667E+00  0.0000000E+00  0.7111111E-02
    1       -3.269705   1.000000
    2       -0.965937   1.000000
    3        1.892566   1.000000
    4        3.433210   1.000000
    5        7.114159   0.000000
    6       10.257629   0.000000
    7       11.546455   0.000000
    8       11.658982   0.000000
 
 -0.4000000E+00  0.2666667E+00  0.0000000E+00  0.7111111E-02
    1       -3.143684   1.000000
    2       -1.113288   1.000000
    3        1.633687   1.000000
    4        3.602784   1.000000
    5        7.287890   0.000000
    6       11.234899   0.000000
    7       11.416546   0.000000
    8       11.749855   0.000000
 
 -0.3333333E+00  0.2666667E+00  0.0000000E+00  0.7111111E-02
    1       -3.467648   1.000000
    2       -0.707267   1.000000
    3        1.557991   1.000000
    4        3.849181   1.000000
    5        7.552976   0.000000
    6       11.137217   0.000000
    7       11.277085   0.000000
    8       12.666042   0.000000
 
 -0.2666667E+00  0.2666667E+00  0.0000000E+00  0.3555556E-02
    1       -3.950919   1.000000
    2       -0.116017   1.000000
    3        1.749845   1.000000
    4        4.153012   1.000000
    5        7.885075   0.000000
    6       10.664009   0.000000
    7       11.003661   0.000000
    8       11.860547   0.000000
 
  0.3333333E+00  0.3333333E+00  0.0000000E+00  0.1777778E-02
    1       -4.328277   1.000000
    2        0.626940   1.000000
    3        3.250053   1.000000
    4        3.250055   1.000000
    5        6.375654   0.000000
    6        7.638904   0.000000
    7       12.790734   0.000000
    8       12.790734   0.000000
 
  0.4000000E+00  0.3333333E+00  0.0000000E+00  0.7111111E-02
    1       -3.918634   1.000000
    2        0.011817   1.000000
    3        2.906231   1.000000
    4        3.126215   1.000000
    5        6.478764   0.000000
    6        7.463527   0.000000
    7       13.092663   0.000000
    8       13.148991   0.000000
 
  0.4666667E+00  0.3333333E+00  0.0000000E+00  0.7111111E-02
    1       -3.437854   1.000000
    2       -0.610350   1.000000
    3        2.349797   1.000000
    4        3.095363   1.000000
    5        6.662628   0.000000
    6        7.900539   0.000000
    7       13.048035   0.000000
    8       13.098052   0.000000
 
 -0.4666667E+00  0.3333333E+00  0.0000000E+00  0.7111111E-02
    1       -2.955099   1.000000
    2       -1.154424   1.000000
    3        1.810748   1.000000
    4        3.158470   1.000000
    5        6.768362   0.000000
    6        8.866838   0.000000
    7       12.870625   0.000000
    8       12.916570   0.000000
 
 -0.4000000E+00  0.3333333E+00  0.0000000E+00  0.7111111E-02
    1       -2.723804   1.000000
    2       -1.383919   1.000000
    3        1.428128   1.000000
    4        3.312249   1.000000
    5        6.938207   0.000000
    6       10.084749   0.000000
    7       12.560557   0.000000
    8       12.789062   0.000000
 
 -0.3333333E+00  0.3333333E+00  0.0000000E+00  0.3555556E-02
    1       -3.001269   1.000000
    2       -1.096457   1.000000
    3        1.306311   1.000000
    4        3.548155   1.000000
    5        7.205157   0.000000
    6       11.394743   0.000000
    7       12.025492   0.000000
    8       12.588704   0.000000
 
  0.4000000E+00  0.4000000E+00  0.0000000E+00  0.1777778E-02
    1       -3.534985   1.000000
    2       -0.520128   1.000000
    3        2.977728   1.000000
    4        2.977730   1.000000
    5        6.235051   0.000000
    6        6.966695   0.000000
    7       14.018471   0.000000
    8       14.018473   0.000000
 
  0.4666667E+00  0.4000000E+00  0.0000000E+00  0.7111111E-02
    1       -3.071287   1.000000
    2       -1.080035   1.000000
    3        2.668818   1.000000
    4        2.921988   1.000000
    5        6.391021   0.000000
    6        6.946791   0.000000
    7       14.311601   0.000000
    8       14.336905   0.000000
 
 -0.4666667E+00  0.4000000E+00  0.0000000E+00  0.7111111E-02
    1       -2.572792   1.000000
    2       -1.588678   1.000000
    3        2.131128   1.000000
    4        2.961270   1.000000
    5        6.526159   0.000000
    6        7.646106   0.000000
    7       14.147087   0.000000
    8       14.308959   0.000000
 
 -0.4000000E+00  0.4000000E+00  0.0000000E+00  0.3555556E-02
    1       -2.359490   1.000000
    2       -1.756248   1.000000
    3        1.647678   1.000000
    4        3.093634   1.000000
    5        6.680988   0.000000
    6        8.766241   0.000000
    7       13.614836   0.000000
    8       14.190182   0.000000
 
  0.4666667E+00  0.4666667E+00  0.0000000E+00  0.1777778E-02
    1       -2.623985   1.000000
    2       -1.611993   1.000000
    3        2.840105   1.000000
    4        2.840107   1.000000
    5        6.275151   0.000000
    6        6.514218   0.000000
    7       15.217308   0.000000
    8       15.217310   0.000000
 
 -0.4666667E+00  0.4666667E+00  0.0000000E+00  0.3555556E-02
    1       -2.147174   1.000000
    2       -2.087863   1.000000
    3        2.589773   1.000000
    4        2.853411   1.000000
    5        6.404012   0.000000
    6        6.730749   0.000000
    7       15.192306   0.000000
    8       15.337645   0.000000
 
  0.2000000E+00  0.1333333E+00  0.6666667E-01  0.7111111E-02
    1       -5.818773   1.000000
    2        3.558375   1.000000
    3        4.462293   1.000000
    4        5.147599   1.000000
    5        7.978952   0.000000
    6        8.879041   0.000000
    7        9.272787   0.000000
    8       10.495641   0.000000
 
  0.2666667E+00  0.1333333E+00  0.6666667E-01  0.1422222E-01
    1       -5.539544   1.000000
    2        2.547479   1.000000
    3        4.025362   1.000000
    4        4.969444   1.000000
    5        8.163203   0.000000
    6        8.871161   0.000000
    7        9.662932   0.000000
    8       10.725574   0.000000
 
  0.3333333E+00  0.1333333E+00  0.6666667E-01  0.1422222E-01
    1       -5.159837   1.000000
    2        1.440465   1.000000
    3        3.751236   1.000000
    4        4.716786   1.000000
    5        8.196793   0.000000
    6        8.922818   0.000000
    7        9.859274   0.000000
    8       10.960791   0.000000
 
  0.4000000E+00  0.1333333E+00  0.6666667E-01  0.1422222E-01
    1       -4.699188   1.000000
    2        0.390345   1.000000
    3        3.575202   1.000000
    4        4.470167   1.000000
    5        8.087472   0.000000
    6        8.928859   0.000000
    7        9.835205   0.000000
    8       11.577721   0.000000
 
  0.4666667E+00  0.1333333E+00  0.6666667E-01  0.1422222E-01
    1       -4.207609   1.000000
    2       -0.508320   1.000000
    3        3.474397   1.000000
    4        4.277574   1.000000
    5        7.980474   0.000000
    6        8.857021   0.000000
    7        9.737754   0.000000
    8       12.493981   0.000000
 
 -0.4666667E+00  0.1333333E+00  0.6666667E-01  0.1422222E-01
    1       -3.827366   1.000000
    2       -1.095524   1.000000
    3        3.431018   1.000000
    4        4.171179   1.000000
    5        7.921650   0.000000
    6        8.799030   0.000000
    7        9.667593   0.000000
    8       13.451999   0.000000
 
  0.2666667E+00  0.2000000E+00  0.6666667E-01  0.7111111E-02
    1       -5.443005   1.000000
    2        2.592932   1.000000
    3        3.867939   1.000000
    4        4.456482   1.000000
    5        7.517917   0.000000
    6        9.489424   0.000000
    7       10.149087   0.000000
    8       10.354766   0.000000
 
  0.3333333E+00  0.2000000E+00  0.6666667E-01  0.1422222E-01
    1       -5.096187   1.000000
    2        1.684292   1.000000
    3        3.429733   1.000000
    4        4.256503   1.000000
    5        7.750229   0.000000
    6        9.478068   0.000000
    7       10.000715   0.000000
    8       10.724508   0.000000
 
  0.4000000E+00  0.2000000E+00  0.6666667E-01  0.1422222E-01
    1       -4.659964   1.000000
    2        0.705883   1.000000
    3        3.133590   1.000000
    4        4.024169   1.000000
    5        7.902376   0.000000
    6        9.591972   0.000000
    7       10.089568   0.000000
    8       10.825321   0.000000
 
  0.4666667E+00  0.2000000E+00  0.6666667E-01  0.1422222E-01
    1       -4.169347   1.000000
    2       -0.201972   1.000000
    3        2.914716   1.000000
    4        3.856575   1.000000
    5        7.936334   0.000000
    6        9.409177   0.000000
    7       10.705748   0.000000
    8       10.950189   0.000000
 
 -0.4666667E+00  0.2000000E+00  0.6666667E-01  0.1422222E-01
    1       -3.724243   1.000000
    2       -0.894686   1.000000
    3        2.747326   1.000000
    4        3.799212   1.000000
    5        7.978519   0.000000
    6        9.220138   0.000000
    7       10.629239   0.000000
    8       12.024450   0.000000
 
 -0.4000000E+00  0.2000000E+00  0.6666667E-01  0.1422222E-01
    1       -3.573458   1.000000
    2       -1.105893   1.000000
    3        2.634505   1.000000
    4        3.859025   1.000000
    5        8.084624   0.000000
    6        9.088441   0.000000
    7       10.557297   0.000000
    8       13.249353   0.000000
 
 -0.3333333E+00  0.2000000E+00  0.6666667E-01  0.1422222E-01
    1       -3.863266   1.000000
    2       -0.686648   1.000000
    3        2.594636   1.000000
    4        4.021276   1.000000
    5        8.258157   0.000000
    6        9.026148   0.000000
    7       10.526898   0.000000
    8       12.367031   0.000000
 
 -0.2666667E+00  0.2000000E+00  0.6666667E-01  0.1422222E-01
    1       -4.343061   1.000000
    2        0.100233   1.000000
    3        2.652537   1.000000
    4        4.261448   1.000000
    5        8.472684   0.000000
    6        9.009737   0.000000
    7       10.500556   0.000000
    8       11.365513   0.000000
 
 -0.2000000E+00  0.2000000E+00  0.6666667E-01  0.1422222E-01
    1       -4.820667   1.000000
    2        1.021385   1.000000
    3        2.848712   1.000000
    4        4.544382   1.000000
    5        8.657657   0.000000
    6        8.939770   0.000000
    7       10.387096   0.000000
    8       10.699745   0.000000
 
 -0.1333333E+00  0.2000000E+00  0.6666667E-01  0.7111111E-02
    1       -5.227887   1.000000
    2        1.895936   1.000000
    3        3.275908   1.000000
    4        4.812064   1.000000
    5        8.492605   0.000000
    6        8.929636   0.000000
    7       10.090163   0.000000
    8       10.514598   0.000000
 
  0.3333333E+00  0.2666667E+00  0.6666667E-01  0.7111111E-02
    1       -4.923194   1.000000
    2        1.575765   1.000000
    3        3.358308   1.000000
    4        3.788463   1.000000
    5        7.107791   0.000000
    6        8.775364   0.000000
    7       10.896676   0.000000
    8       11.531389   0.000000
 
  0.4000000E+00  0.2666667E+00  0.6666667E-01  0.1422222E-01
    1       -4.515229   1.000000
    2        0.795502   1.000000
    3        2.909639   1.000000
    4        3.583196   1.000000
    5        7.371167   0.000000
    6        8.826558   0.000000
    7       10.744953   0.000000
    8       11.879239   0.000000
 
  0.4666667E+00  0.2666667E+00  0.6666667E-01  0.1422222E-01
    1       -4.036592   1.000000
    2       -0.014748   1.000000
    3        2.519308   1.000000
    4        3.434992   1.000000
    5        7.514455   0.000000
    6        9.445845   0.000000
    7       10.514326   0.000000
    8       11.907259   0.000000
 
 -0.4666667E+00  0.2666667E+00  0.6666667E-01  0.1422222E-01
    1       -3.555505   1.000000
    2       -0.723194   1.000000
    3        2.196194   1.000000
    4        3.403998   1.000000
    5        7.593205   0.000000
    6       10.199449   0.000000
    7       10.546995   0.000000
    8       11.808718   0.000000
 
 -0.4000000E+00  0.2666667E+00  0.6666667E-01  0.1422222E-01
    1       -3.274333   1.000000
    2       -1.092480   1.000000
    3        1.963971   1.000000
    4        3.489433   1.000000
    5        7.727084   0.000000
    6       10.050124   0.000000
    7       11.651726   0.000000
    8       11.770251   0.000000
 
 -0.3333333E+00  0.2666667E+00  0.6666667E-01  0.1422222E-01
    1       -3.450955   1.000000
    2       -0.857236   1.000000
    3        1.850410   1.000000
    4        3.675701   1.000000
    5        7.945451   0.000000
    6        9.903422   0.000000
    7       11.576038   0.000000
    8       12.323955   0.000000
 
 -0.2666667E+00  0.2666667E+00  0.6666667E-01  0.1422222E-01
    1       -3.905546   1.000000
    2       -0.225056   1.000000
    3        1.899238   1.000000
    4        3.940944   1.000000
    5        8.237457   0.000000
    6        9.752563   0.000000
    7       11.190693   0.000000
    8       11.536496   0.000000
 
 -0.2000000E+00  0.2666667E+00  0.6666667E-01  0.7111111E-02
    1       -4.392084   1.000000
    2        0.469349   1.000000
    3        2.199741   1.000000
    4        4.250967   1.000000
    5        8.557483   0.000000
    6        9.390476   0.000000
    7       10.650339   0.000000
    8       11.108243   0.000000
 
  0.4000000E+00  0.3333333E+00  0.6666667E-01  0.7111111E-02
    1       -4.266449   1.000000
    2        0.516197   1.000000
    3        2.969478   1.000000
    4        3.252139   1.000000
    5        6.810553   0.000000
    6        7.948197   0.000000
    7       11.949197   0.000000
    8       12.758880   0.000000
 
  0.4666667E+00  0.3333333E+00  0.6666667E-01  0.1422222E-01
    1       -3.807316   1.000000
    2       -0.140936   1.000000
    3        2.496094   1.000000
    4        3.089910   1.000000
    5        7.089128   0.000000
    6        8.185599   0.000000
    7       11.759242   0.000000
    8       13.096501   0.000000
 
 -0.4666667E+00  0.3333333E+00  0.6666667E-01  0.1422222E-01
    1       -3.312160   1.000000
    2       -0.768600   1.000000
    3        2.002887   1.000000
    4        3.061830   1.000000
    5        7.216505   0.000000
    6        9.028067   0.000000
    7       11.517702   0.000000
    8       13.086742   0.000000
 