<?xml version="1.0" encoding="ISO-8859-1"?>
<modeling>
 <generator>
  <i name="program" type="string">vasp </i>
  <i name="version" type="string">6.2.0  </i>
  <i name="subversion" type="string">18Jan21 (build Aug 12 2022 13:00:08) complex                          parallel </i>
  <i name="platform" type="string">LinuxIFC </i>
  <i name="date" type="string">2024 11 03 </i>
  <i name="time" type="string">22:26:11 </i>
 </generator>
 <incar>
  <i type="int" name="ISTART">     0</i>
  <i type="string" name="PREC">Accurate      (Accurate strictly avoids</i>
  <i type="logical" name="ADDGRID"> T  </i>
  <i type="int" name="ISPIN">     1</i>
  <i type="int" name="NELM">    90</i>
  <i type="int" name="NELMIN">     6</i>
  <i type="int" name="IBRION">     2</i>
  <i name="EDIFF">      0.00000100</i>
  <i name="EDIFFG">     -0.00200000</i>
  <i type="int" name="NSW">   100</i>
  <i type="int" name="ISIF">     3</i>
  <i type="int" name="ISYM">     2</i>
  <i name="ENCUT">    550.00000000</i>
  <i type="logical" name="LREAL"> F  </i>
  <i type="int" name="ISMEAR">     0</i>
  <i name="SIGMA">      0.05000000</i>
  <i type="logical" name="LWAVE"> F  </i>
  <i type="logical" name="LCHARG"> F  </i>
  <i type="logical" name="LASPH"> T  </i>
 </incar>
 <primitive_cell>
  <structure name="primitive_cell" >
   <crystal>
    <varray name="basis" >
     <v>       3.33357300       0.00000000       1.92463900 </v>
     <v>       1.11119100       3.14292400       1.92463900 </v>
     <v>       0.00000000       0.00000000       3.84927800 </v>
    </varray>
    <i name="volume">     40.32952685 </i>
    <varray name="rec_basis" >
     <v>       0.29997843      -0.10605835       0.00000000 </v>
     <v>       0.00000000       0.31817505       0.00000000 </v>
     <v>      -0.14998922      -0.10605835       0.25978898 </v>
    </varray>
   </crystal>
   <varray name="positions" >
    <v>       0.87500000       0.87500000       0.87500000 </v>
    <v>       0.12500000       0.12500000       0.12500000 </v>
   </varray>
  </structure>
  <varray name="primitive_index" >
   <v type="int" >        1 </v>
   <v type="int" >        2 </v>
  </varray>
 </primitive_cell>
 <kpoints>
  <generation param="Monkhorst-Pack">
   <v type="int" name="divisions">      15       15       15 </v>
   <v name="usershift">      0.00000000       0.00000000       0.00000000 </v>
   <v name="genvec1">      0.06666667       0.00000000       0.00000000 </v>
   <v name="genvec2">      0.00000000       0.06666667       0.00000000 </v>
   <v name="genvec3">      0.00000000       0.00000000       0.06666667 </v>
   <v name="shift">      0.00000000       0.00000000       0.00000000 </v>
  </generation>
  <varray name="kpointlist" >
   <v>       0.00000000       0.00000000       0.00000000 </v>
   <v>       0.06666667      -0.00000000       0.00000000 </v>
   <v>       0.13333333      -0.00000000       0.00000000 </v>
   <v>       0.20000000       0.00000000       0.00000000 </v>
   <v>       0.26666667      -0.00000000       0.00000000 </v>
   <v>       0.33333333      -0.00000000       0.00000000 </v>
   <v>       0.40000000      -0.00000000       0.00000000 </v>
   <v>       0.46666667      -0.00000000       0.00000000 </v>
   <v>       0.06666667       0.06666667       0.00000000 </v>
   <v>       0.13333333       0.06666667       0.00000000 </v>
   <v>       0.20000000       0.06666667       0.00000000 </v>
   <v>       0.26666667       0.06666667       0.00000000 </v>
   <v>       0.33333333       0.06666667       0.00000000 </v>
   <v>       0.40000000       0.06666667       0.00000000 </v>
   <v>       0.46666667       0.06666667       0.00000000 </v>
   <v>      -0.46666667       0.06666667       0.00000000 </v>
   <v>      -0.40000000       0.06666667       0.00000000 </v>
   <v>      -0.33333333       0.06666667       0.00000000 </v>
   <v>      -0.26666667       0.06666667       0.00000000 </v>
   <v>      -0.20000000       0.06666667       0.00000000 </v>
   <v>      -0.13333333       0.06666667       0.00000000 </v>
   <v>      -0.06666667       0.06666667       0.00000000 </v>
   <v>       0.13333333       0.13333333       0.00000000 </v>
   <v>       0.20000000       0.13333333       0.00000000 </v>
   <v>       0.26666667       0.13333333       0.00000000 </v>
   <v>       0.33333333       0.13333333       0.00000000 </v>
   <v>       0.40000000       0.13333333       0.00000000 </v>
   <v>       0.46666667       0.13333333       0.00000000 </v>
   <v>      -0.46666667       0.13333333       0.00000000 </v>
   <v>      -0.40000000       0.13333333       0.00000000 </v>
   <v>      -0.33333333       0.13333333       0.00000000 </v>
   <v>      -0.26666667       0.13333333       0.00000000 </v>
   <v>      -0.20000000       0.13333333       0.00000000 </v>
   <v>      -0.13333333       0.13333333       0.00000000 </v>
   <v>       0.20000000       0.20000000       0.00000000 </v>
   <v>       0.26666667       0.20000000       0.00000000 </v>
   <v>       0.33333333       0.20000000       0.00000000 </v>
   <v>       0.40000000       0.20000000       0.00000000 </v>
   <v>       0.46666667       0.20000000       0.00000000 </v>
   <v>      -0.46666667       0.20000000       0.00000000 </v>
   <v>      -0.40000000       0.20000000       0.00000000 </v>
   <v>      -0.33333333       0.20000000       0.00000000 </v>
   <v>      -0.26666667       0.20000000       0.00000000 </v>
   <v>      -0.20000000       0.20000000       0.00000000 </v>
   <v>       0.26666667       0.26666667       0.00000000 </v>
   <v>       0.33333333       0.26666667       0.00000000 </v>
   <v>       0.40000000       0.26666667       0.00000000 </v>
   <v>       0.46666667       0.26666667       0.00000000 </v>
   <v>      -0.46666667       0.26666667       0.00000000 </v>
   <v>      -0.40000000       0.26666667       0.00000000 </v>
   <v>      -0.33333333       0.26666667       0.00000000 </v>
   <v>      -0.26666667       0.26666667       0.00000000 </v>
   <v>       0.33333333       0.33333333       0.00000000 </v>
   <v>       0.40000000       0.33333333       0.00000000 </v>
   <v>       0.46666667       0.33333333       0.00000000 </v>
   <v>      -0.46666667       0.33333333       0.00000000 </v>
   <v>      -0.40000000       0.33333333       0.00000000 </v>
   <v>      -0.33333333       0.33333333       0.00000000 </v>
   <v>       0.40000000       0.40000000       0.00000000 </v>
   <v>       0.46666667       0.40000000       0.00000000 </v>
   <v>      -0.46666667       0.40000000       0.00000000 </v>
   <v>      -0.40000000       0.40000000       0.00000000 </v>
   <v>       0.46666667       0.46666667       0.00000000 </v>
   <v>      -0.46666667       0.46666667       0.00000000 </v>
   <v>       0.20000000       0.13333333       0.06666667 </v>
   <v>       0.26666667       0.13333333       0.06666667 </v>
   <v>       0.33333333       0.13333333       0.06666667 </v>
   <v>       0.40000000       0.13333333       0.06666667 </v>
   <v>       0.46666667       0.13333333       0.06666667 </v>
   <v>      -0.46666667       0.13333333       0.06666667 </v>
   <v>       0.26666667       0.20000000       0.06666667 </v>
   <v>       0.33333333       0.20000000       0.06666667 </v>
   <v>       0.40000000       0.20000000       0.06666667 </v>
   <v>       0.46666667       0.20000000       0.06666667 </v>
   <v>      -0.46666667       0.20000000       0.06666667 </v>
   <v>      -0.40000000       0.20000000       0.06666667 </v>
   <v>      -0.33333333       0.20000000       0.06666667 </v>
   <v>      -0.26666667       0.20000000       0.06666667 </v>
   <v>      -0.20000000       0.20000000       0.06666667 </v>
   <v>      -0.13333333       0.20000000       0.06666667 </v>
   <v>       0.33333333       0.26666667       0.06666667 </v>
   <v>       0.40000000       0.26666667       0.06666667 </v>
   <v>       0.46666667       0.26666667       0.06666667 </v>
   <v>      -0.46666667       0.26666667       0.06666667 </v>
   <v>      -0.40000000       0.26666667       0.06666667 </v>
   <v>      -0.33333333       0.26666667       0.06666667 </v>
   <v>      -0.26666667       0.26666667       0.06666667 </v>
   <v>      -0.20000000       0.26666667       0.06666667 </v>
   <v>       0.40000000       0.33333333       0.06666667 </v>
   <v>       0.46666667       0.33333333       0.06666667 </v>
   <v>      -0.46666667       0.33333333       0.06666667 </v>
   <v>      -0.40000000       0.33333333       0.06666667 </v>
   <v>      -0.33333333       0.33333333       0.06666667 </v>
   <v>      -0.26666667       0.33333333       0.06666667 </v>
   <v>       0.46666667       0.40000000       0.06666667 </v>
   <v>      -0.46666667       0.40000000       0.06666667 </v>
   <v>      -0.40000000       0.40000000       0.06666667 </v>
   <v>      -0.33333333       0.40000000       0.06666667 </v>
   <v>      -0.46666667       0.46666667       0.06666667 </v>
   <v>      -0.40000000       0.46666667       0.06666667 </v>
   <v>       0.40000000       0.26666667       0.13333333 </v>
   <v>       0.46666667       0.26666667       0.13333333 </v>
   <v>      -0.46666667       0.26666667       0.13333333 </v>
   <v>      -0.40000000       0.26666667       0.13333333 </v>
   <v>       0.46666667       0.33333333       0.13333333 </v>
   <v>      -0.46666667       0.33333333       0.13333333 </v>
   <v>      -0.40000000       0.33333333       0.13333333 </v>
   <v>      -0.33333333       0.33333333       0.13333333 </v>
   <v>      -0.26666667       0.33333333       0.13333333 </v>
   <v>      -0.20000000       0.33333333       0.13333333 </v>
   <v>      -0.46666667       0.40000000       0.13333333 </v>
   <v>      -0.40000000       0.40000000       0.13333333 </v>
   <v>      -0.33333333       0.40000000       0.13333333 </v>
   <v>      -0.26666667       0.40000000       0.13333333 </v>
   <v>      -0.40000000       0.46666667       0.13333333 </v>
   <v>      -0.33333333       0.46666667       0.13333333 </v>
   <v>      -0.40000000       0.40000000       0.20000000 </v>
   <v>      -0.33333333       0.40000000       0.20000000 </v>
   <v>      -0.33333333       0.46666667       0.20000000 </v>
   <v>      -0.26666667       0.46666667       0.20000000 </v>
  </varray>
  <varray name="weights" >
   <v>       0.00029630 </v>
   <v>       0.00237037 </v>
   <v>       0.00237037 </v>
   <v>       0.00237037 </v>
   <v>       0.00237037 </v>
   <v>       0.00237037 </v>
   <v>       0.00237037 </v>
   <v>       0.00237037 </v>
   <v>       0.00177778 </v>
   <v>       0.00711111 </v>
   <v>       0.00711111 </v>
   <v>       0.00711111 </v>
   <v>       0.00711111 </v>
   <v>       0.00711111 </v>
   <v>       0.00711111 </v>
   <v>       0.00711111 </v>
   <v>       0.00711111 </v>
   <v>       0.00711111 </v>
   <v>       0.00711111 </v>
   <v>       0.00711111 </v>
   <v>       0.00711111 </v>
   <v>       0.00355556 </v>
   <v>       0.00177778 </v>
   <v>       0.00711111 </v>
   <v>       0.00711111 </v>
   <v>       0.00711111 </v>
   <v>       0.00711111 </v>
   <v>       0.00711111 </v>
   <v>       0.00711111 </v>
   <v>       0.00711111 </v>
   <v>       0.00711111 </v>
   <v>       0.00711111 </v>
   <v>       0.00711111 </v>
   <v>       0.00355556 </v>
   <v>       0.00177778 </v>
   <v>       0.00711111 </v>
   <v>       0.00711111 </v>
   <v>       0.00711111 </v>
   <v>       0.00711111 </v>
   <v>       0.00711111 </v>
   <v>       0.00711111 </v>
   <v>       0.00711111 </v>
   <v>       0.00711111 </v>
   <v>       0.00355556 </v>
   <v>       0.00177778 </v>
   <v>       0.00711111 </v>
   <v>       0.00711111 </v>
   <v>       0.00711111 </v>
   <v>       0.00711111 </v>
   <v>       0.00711111 </v>
   <v>       0.00711111 </v>
   <v>       0.00355556 </v>
   <v>       0.00177778 </v>
   <v>       0.00711111 </v>
   <v>       0.00711111 </v>
   <v>       0.00711111 </v>
   <v>       0.00711111 </v>
   <v>       0.00355556 </v>
   <v>       0.00177778 </v>
   <v>       0.00711111 </v>
   <v>       0.00711111 </v>
   <v>       0.00355556 </v>
   <v>       0.00177778 </v>
   <v>       0.00355556 </v>
   <v>       0.00711111 </v>
   <v>       0.01422222 </v>
   <v>       0.01422222 </v>
   <v>       0.01422222 </v>
   <v>       0.01422222 </v>
   <v>       0.01422222 </v>
   <v>       0.00711111 </v>
   <v>       0.01422222 </v>
   <v>       0.01422222 </v>
   <v>       0.01422222 </v>
   <v>       0.01422222 </v>
   <v>       0.01422222 </v>
   <v>       0.01422222 </v>
   <v>       0.01422222 </v>
   <v>       0.01422222 </v>
   <v>       0.00711111 </v>
   <v>       0.00711111 </v>
   <v>       0.01422222 </v>
   <v>       0.01422222 </v>
   <v>       0.01422222 </v>
   <v>       0.01422222 </v>
   <v>       0.01422222 </v>
   <v>       0.01422222 </v>
   <v>       0.00711111 </v>
   <v>       0.00711111 </v>
   <v>       0.01422222 </v>
   <v>       0.01422222 </v>
   <v>       0.01422222 </v>
   <v>       0.01422222 </v>
   <v>       0.00711111 </v>
   <v>       0.00711111 </v>
   <v>       0.01422222 </v>
   <v>       0.01422222 </v>
   <v>       0.00711111 </v>
   <v>       0.00711111 </v>
   <v>       0.00711111 </v>
   <v>       0.00711111 </v>
   <v>       0.01422222 </v>
   <v>       0.01422222 </v>
   <v>       0.01422222 </v>
   <v>       0.00711111 </v>
   <v>       0.01422222 </v>
   <v>       0.01422222 </v>
   <v>       0.01422222 </v>
   <v>       0.01422222 </v>
   <v>       0.00711111 </v>
   <v>       0.00711111 </v>
   <v>       0.01422222 </v>
   <v>       0.01422222 </v>
   <v>       0.00711111 </v>
   <v>       0.00711111 </v>
   <v>       0.00711111 </v>
   <v>       0.00711111 </v>
   <v>       0.01422222 </v>
   <v>       0.00711111 </v>
   <v>       0.00711111 </v>
  </varray>
 </kpoints>
 <parameters>
  <separator name="general" >
   <i type="string" name="SYSTEM">unknown system</i>
   <i type="logical" name="LCOMPAT"> F  </i>
  </separator>
  <separator name="electronic" >
   <i type="string" name="PREC">accura</i>
   <i name="ENMAX">    550.00000000</i>
   <i name="ENAUG">    322.06900000</i>
   <i name="EDIFF">      0.00000100</i>
   <i type="int" name="IALGO">    38</i>
   <i type="int" name="IWAVPR">    11</i>
   <i type="int" name="NBANDS">     8</i>
   <i type="int" name="NBANDSLOW">    -1</i>
   <i type="int" name="NBANDSHIGH">    -1</i>
   <i name="NELECT">      8.00000000</i>
   <i type="int" name="TURBO">     0</i>
   <i type="int" name="IRESTART">     0</i>
   <i type="int" name="NREBOOT">     0</i>
   <i type="int" name="NMIN">     0</i>
   <i name="EREF">      0.00000000</i>
   <separator name="electronic smearing" >
    <i type="int" name="ISMEAR">     0</i>
    <i name="SIGMA">      0.05000000</i>
    <i name="KSPACING">      0.50000000</i>
    <i type="logical" name="KGAMMA"> T  </i>
    <i type="logical" name="KBLOWUP"> T  </i>
   </separator>
   <separator name="electronic projectors" >
    <i type="logical" name="LREAL"> F  </i>
    <v name="ROPT">      0.00000000</v>
    <i type="int" name="LMAXPAW">  -100</i>
    <i type="int" name="LMAXMIX">     2</i>
    <i type="logical" name="NLSPLINE"> F  </i>
   </separator>
   <separator name="electronic startup" >
    <i type="int" name="ISTART">     0</i>
    <i type="int" name="ICHARG">     2</i>
    <i type="int" name="INIWAV">     1</i>
   </separator>
   <separator name="electronic spin" >
    <i type="int" name="ISPIN">     1</i>
    <i type="logical" name="LNONCOLLINEAR"> F  </i>
    <v name="MAGMOM">      1.00000000      1.00000000</v>
    <i name="NUPDOWN">     -1.00000000</i>
    <i type="logical" name="LSORBIT"> F  </i>
    <v name="SAXIS">      0.00000000      0.00000000      1.00000000</v>
    <i type="logical" name="LSPIRAL"> F  </i>
    <v name="QSPIRAL">      0.00000000      0.00000000      0.00000000</v>
    <i type="logical" name="LZEROZ"> F  </i>
   </separator>
   <separator name="electronic exchange-correlation" >
    <i type="logical" name="LASPH"> T  </i>
    <i type="logical" name="LMETAGGA"> F  </i>
   </separator>
   <separator name="electronic convergence" >
    <i type="int" name="NELM">    90</i>
    <i type="int" name="NELMDL">    -5</i>
    <i type="int" name="NELMIN">     6</i>
    <i name="ENINI">    550.00000000</i>
    <separator name="electronic convergence detail" >
     <i type="logical" name="LDIAG"> T  </i>
     <i type="logical" name="LSUBROT"> F  </i>
     <i name="WEIMIN">      0.00100000</i>
     <i name="EBREAK">      0.00000003</i>
     <i name="DEPER">      0.30000000</i>
     <i type="int" name="NRMM">     4</i>
     <i name="TIME">      0.40000000</i>
    </separator>
   </separator>
   <separator name="electronic mixer" >
    <i name="AMIX">      0.40000000</i>
    <i name="BMIX">      1.00000000</i>
    <i name="AMIN">      0.10000000</i>
    <i name="AMIX_MAG">      1.60000000</i>
    <i name="BMIX_MAG">      1.00000000</i>
    <separator name="electronic mixer details" >
     <i type="int" name="IMIX">     4</i>
     <i type="logical" name="MIXFIRST"> F  </i>
     <i type="int" name="MAXMIX">   -45</i>
     <i name="WC">    100.00000000</i>
     <i type="int" name="INIMIX">     1</i>
     <i type="int" name="MIXPRE">     1</i>
     <i type="int" name="MREMOVE">     5</i>
    </separator>
   </separator>
   <separator name="electronic dipolcorrection" >
    <i type="logical" name="LDIPOL"> F  </i>
    <i type="logical" name="LMONO"> F  </i>
    <i type="int" name="IDIPOL">     0</i>
    <i name="EPSILON">      1.00000000</i>
    <v name="DIPOL">   -100.00000000   -100.00000000   -100.00000000</v>
    <i name="EFIELD">      0.00000000</i>
   </separator>
  </separator>
  <separator name="grids" >
   <i type="int" name="NGX">    30</i>
   <i type="int" name="NGY">    30</i>
   <i type="int" name="NGZ">    30</i>
   <i type="int" name="NGXF">    60</i>
   <i type="int" name="NGYF">    60</i>
   <i type="int" name="NGZF">    60</i>
   <i type="logical" name="ADDGRID"> T  </i>
  </separator>
  <separator name="ionic" >
   <i type="int" name="NSW">   100</i>
   <i type="int" name="IBRION">     2</i>
   <i type="int" name="MDALGO">     0</i>
   <i type="int" name="ISIF">     3</i>
   <i name="PSTRESS">      0.00000000</i>
   <i name="EDIFFG">     -0.00200000</i>
   <i type="int" name="NFREE">     1</i>
   <i name="POTIM">      0.50000000</i>
   <i name="SMASS">     -3.00000000</i>
   <i name="SCALEE">      1.00000000</i>
  </separator>
  <separator name="ionic md" >
   <i name="TEBEG">      0.00010000</i>
   <i name="TEEND">      0.00010000</i>
   <i type="int" name="NBLOCK">     1</i>
   <i type="int" name="KBLOCK">   100</i>
   <i type="int" name="NPACO">   256</i>
   <i name="APACO">     16.00000000</i>
  </separator>
  <separator name="symmetry" >
   <i type="int" name="ISYM">     2</i>
   <i name="SYMPREC">      0.00001000</i>
  </separator>
  <separator name="dos" >
   <i type="int" name="LORBIT">     0</i>
   <v name="RWIGS">     -1.00000000</v>
   <i type="int" name="NEDOS">   301</i>
   <i name="EMIN">     10.00000000</i>
   <i name="EMAX">    -10.00000000</i>
   <i name="EFERMI">      0.00000000</i>
  </separator>
  <separator name="writing" >
   <i type="int" name="NWRITE">     2</i>
   <i type="logical" name="LWAVE"> F  </i>
   <i type="logical" name="LDOWNSAMPLE"> F  </i>
   <i type="logical" name="LCHARG"> F  </i>
   <i type="logical" name="LPARD"> F  </i>
   <i type="logical" name="LVTOT"> F  </i>
   <i type="logical" name="LVHAR"> F  </i>
   <i type="logical" name="LELF"> F  </i>
   <i type="logical" name="LOPTICS"> F  </i>
   <v name="STM">      0.00000000      0.00000000      0.00000000      0.00000000      0.00000000      0.00000000      0.00000000</v>
  </separator>
  <separator name="performance" >
   <i type="int" name="NPAR">     4</i>
   <i type="int" name="NSIM">     4</i>
   <i type="int" name="NBLK">    -1</i>
   <i type="logical" name="LPLANE"> T  </i>
   <i type="logical" name="LSCALAPACK"> T  </i>
   <i type="logical" name="LSCAAWARE"> F  </i>
   <i type="logical" name="LSCALU"> F  </i>
   <i type="logical" name="LASYNC"> F  </i>
   <i type="logical" name="LORBITALREAL"> F  </i>
  </separator>
  <separator name="miscellaneous" >
   <i type="int" name="IDIOT">     3</i>
   <i type="int" name="PHON_NSTRUCT">    -1</i>
   <i type="logical" name="LMUSIC"> F  </i>
   <v name="POMASS">     28.08500000</v>
   <v name="DARWINR">      0.00000000</v>
   <v name="DARWINV">      1.00000000</v>
   <i type="logical" name="LCORR"> T  </i>
  </separator>
  <i type="logical" name="GGA_COMPAT"> T  </i>
  <i type="logical" name="LBERRY"> F  </i>
  <i type="int" name="ICORELEVEL">     0</i>
  <i type="logical" name="LDAU"> F  </i>
  <i type="int" name="I_CONSTRAINED_M">     0</i>
  <separator name="electronic exchange-correlation" >
   <i type="string" name="GGA">--</i>
   <i type="int" name="VOSKOWN">     0</i>
   <i type="logical" name="LHFCALC"> F  </i>
   <i type="string" name="PRECFOCK"></i>
   <i type="logical" name="LSYMGRAD"> F  </i>
   <i type="logical" name="LHFONE"> F  </i>
   <i type="logical" name="LRHFCALC"> F  </i>
   <i type="logical" name="LTHOMAS"> F  </i>
   <i type="logical" name="LMODELHF"> F  </i>
   <i type="logical" name="LFOCKACE"> F  </i>
   <i name="ENCUT4O">     -1.00000000</i>
   <i type="int" name="EXXOEP">     0</i>
   <i type="int" name="FOURORBIT">     0</i>
   <i name="AEXX">      0.00000000</i>
   <i name="HFALPHA">      0.00000000</i>
   <i name="MCALPHA">      0.00000000</i>
   <i name="ALDAX">      1.00000000</i>
   <i name="AGGAX">      1.00000000</i>
   <i name="ALDAC">      1.00000000</i>
   <i name="AGGAC">      1.00000000</i>
   <i type="int" name="NKREDX">     1</i>
   <i type="int" name="NKREDY">     1</i>
   <i type="int" name="NKREDZ">     1</i>
   <i type="logical" name="SHIFTRED"> F  </i>
   <i type="logical" name="ODDONLY"> F  </i>
   <i type="logical" name="EVENONLY"> F  </i>
   <i type="int" name="LMAXFOCK">     0</i>
   <i type="int" name="NMAXFOCKAE">     0</i>
   <i type="logical" name="LFOCKAEDFT"> F  </i>
   <i name="HFSCREEN">      0.00000000</i>
   <i name="HFSCREENC">      0.00000000</i>
   <i type="int" name="NBANDSGWLOW">     0</i>
  </separator>
  <separator name="vdW DFT" >
   <i type="logical" name="LUSE_VDW"> F  </i>
   <i name="Zab_VDW">     -0.84910000</i>
   <i name="PARAM1">      0.12340000</i>
   <i name="PARAM2">      1.00000000</i>
   <i name="PARAM3">      0.00000000</i>
  </separator>
  <separator name="model GW" >
   <i type="int" name="MODEL_GW">     0</i>
   <i name="MODEL_EPS0">     12.09885805</i>
   <i name="MODEL_ALPHA">      1.00000000</i>
  </separator>
  <separator name="linear response parameters" >
   <i type="logical" name="LEPSILON"> F  </i>
   <i type="logical" name="LRPA"> F  </i>
   <i type="logical" name="LNABLA"> F  </i>
   <i type="logical" name="LVEL"> F  </i>
   <i type="int" name="KINTER">     0</i>
   <i name="CSHIFT">      0.10000000</i>
   <i name="OMEGAMAX">     -1.00000000</i>
   <i name="DEG_THRESHOLD">      0.00200000</i>
   <i name="RTIME">     -0.10000000</i>
   <i name="WPLASMAI">      0.00000000</i>
   <v name="DFIELD">      0.00000000      0.00000000      0.00000000</v>
   <v name="WPLASMA">      0.00000000      0.00000000      0.00000000      0.00000000      0.00000000      0.00000000      0.00000000      0.00000000      0.00000000</v>
  </separator>
  <separator name="orbital magnetization" >
   <i type="logical" name="NUCIND"> F  </i>
   <v name="MAGPOS">      0.00000000      0.00000000      0.00000000</v>
   <i type="logical" name="LNICSALL"> T  </i>
   <i type="logical" name="ORBITALMAG"> F  </i>
   <i type="logical" name="LMAGBLOCH"> F  </i>
   <i type="logical" name="LCHIMAG"> F  </i>
   <i type="logical" name="LGAUGE"> T  </i>
   <i type="int" name="MAGATOM">     0</i>
   <v name="MAGDIPOL">      0.00000000      0.00000000      0.00000000</v>
   <v name="AVECCONST">      0.00000000      0.00000000      0.00000000</v>
  </separator>
  <separator name="response functions" >
   <i type="logical" name="LFINITE_TEMPERATURE"> F  </i>
   <i type="logical" name="LADDER"> F  </i>
   <i type="logical" name="LRPAFORCE"> F  </i>
   <i type="logical" name="LFXC"> F  </i>
   <i type="logical" name="LHARTREE"> T  </i>
   <i type="int" name="IBSE">     0</i>
   <v type="int" name="KPOINT">    -1     0     0     0</v>
   <i type="logical" name="LTCTC"> F  </i>
   <i type="logical" name="LTCTE"> F  </i>
   <i type="logical" name="LTETE"> F  </i>
   <i type="logical" name="LTRIPLET"> F  </i>
   <i type="logical" name="LFXCEPS"> F  </i>
   <i type="logical" name="LFXHEG"> F  </i>
   <i type="int" name="NATURALO">     2</i>
   <i type="logical" name="LHOLEGF"> F  </i>
   <i type="logical" name="L2ORDER"> F  </i>
   <i type="logical" name="LDMP1"> F  </i>
   <i type="logical" name="LMP2LT"> F  </i>
   <i type="logical" name="LSMP2LT"> F  </i>
   <i type="logical" name="LGWLF"> F  </i>
   <i name="ENCUTGW">     -2.00000000</i>
   <i name="ENCUTGWSOFT">     -2.00000000</i>
   <i name="ENCUTLF">     -1.00000000</i>
   <i type="logical" name="LESF_SPLINES"> F  </i>
   <i type="int" name="LMAXMP2">    -1</i>
   <i name="SCISSOR">      0.00000000</i>
   <i type="int" name="NOMEGA">     0</i>
   <i type="int" name="NOMEGAR">     0</i>
   <i type="int" name="NBANDSGW">    -1</i>
   <i type="int" name="NBANDSO">    -1</i>
   <i type="int" name="NBANDSV">    -1</i>
   <i type="int" name="NELM">    90</i>
   <i type="int" name="NELMHF">     1</i>
   <i type="int" name="DIM">     3</i>
   <i type="int" name="IESPILON">     4</i>
   <i type="int" name="ANTIRES">     0</i>
   <i name="OMEGAMAX">    -30.00000000</i>
   <i name="OMEGAMIN">    -30.00000000</i>
   <i name="OMEGATL">   -200.00000000</i>
   <i type="int" name="OMEGAGRID">     0</i>
   <i name="CSHIFT">     -0.10000000</i>
   <i type="logical" name="LSELFENERGY"> F  </i>
   <i type="logical" name="LSPECTRAL"> F  </i>
   <i type="logical" name="LSPECTRALGW"> F  </i>
   <i type="logical" name="LSINGLES"> F  </i>
   <i type="logical" name="LFERMIGW"> F  </i>
   <i type="logical" name="ODDONLYGW"> F  </i>
   <i type="logical" name="EVENONLYGW"> F  </i>
   <i type="int" name="NKREDLFX">     1</i>
   <i type="int" name="NKREDLFY">     1</i>
   <i type="int" name="NKREDLFZ">     1</i>
   <i type="int" name="MAXMEM">  2800</i>
   <i type="int" name="TELESCOPE">     0</i>
   <i type="int" name="NTAUPAR">    -1</i>
   <i type="int" name="NOMEGAPAR">    -1</i>
   <i name="DAMP_NEWTON">      0.80000001</i>
   <i name="LAMBDA">      1.00000000</i>
  </separator>
  <separator name="External order field" >
   <i name="OFIELD_KAPPA">      0.00000000</i>
   <v name="OFIELD_K">      0.00000000      0.00000000      0.00000000</v>
   <i name="OFIELD_Q6_NEAR">      0.00000000</i>
   <i name="OFIELD_Q6_FAR">      0.00000000</i>
   <i name="OFIELD_A">      0.00000000</i>
  </separator>
 </parameters>
 <atominfo>
  <atoms>       2 </atoms>
  <types>       1 </types>
  <array name="atoms" >
   <dimension dim="1">ion</dimension>
   <field type="string">element</field>
   <field type="int">atomtype</field>
   <set>
    <rc><c>Si</c><c>   1</c></rc>
    <rc><c>Si</c><c>   1</c></rc>
   </set>
  </array>
  <array name="atomtypes" >
   <dimension dim="1">type</dimension>
   <field type="int">atomspertype</field>
   <field type="string">element</field>
   <field>mass</field>
   <field>valence</field>
   <field type="string">pseudopotential</field>
   <set>
    <rc><c>   2</c><c>Si</c><c>     28.08500000</c><c>      4.00000000</c><c>  PAW_PBE Si 05Jan2001                  </c></rc>
   </set>
  </array>
 </atominfo>
 <structure name="initialpos" >
  <crystal>
   <varray name="basis" >
    <v>       3.33357300       0.00000000       1.92463900 </v>
    <v>       1.11119100       3.14292400       1.92463900 </v>
    <v>       0.00000000       0.00000000       3.84927800 </v>
   </varray>
   <i name="volume">     40.32952685 </i>
   <varray name="rec_basis" >
    <v>       0.29997843      -0.10605835       0.00000000 </v>
    <v>       0.00000000       0.31817505       0.00000000 </v>
    <v>      -0.14998922      -0.10605835       0.25978898 </v>
   </varray>
  </crystal>
  <varray name="positions" >
   <v>       0.87500000       0.87500000       0.87500000 </v>
   <v>       0.12500000       0.12500000       0.12500000 </v>
  </varray>
 </structure>
 <calculation>
  <scstep>
   <time name="dav">    1.81    1.81</time>
   <time name="total">    2.07    2.08</time>
   <energy>
    <i name="alphaZ">      3.33880741 </i>
    <i name="ewald">   -227.98820643 </i>
    <i name="hartreedc">    -11.11484531 </i>
    <i name="XCdc">    -18.63153808 </i>
    <i name="pawpsdc">    176.24759923 </i>
    <i name="pawaedc">   -141.06103558 </i>
    <i name="eentropy">     -0.00130396 </i>
    <i name="bandstr">     18.48027387 </i>
    <i name="atom">    206.13293831 </i>
    <i name="e_fr_energy">      5.40268945 </i>
    <i name="e_wo_entrp">      5.40399342 </i>
    <i name="e_0_energy">      5.40334144 </i>
   </energy>
  </scstep>
  <scstep>
   <time name="dav">    2.53    2.55</time>
   <time name="total">    2.53    2.55</time>
   <energy>
    <i name="e_fr_energy">    -10.79528477 </i>
    <i name="e_wo_entrp">    -10.79528477 </i>
    <i name="e_0_energy">    -10.79528477 </i>
   </energy>
  </scstep>
  <scstep>
   <time name="dav">    2.32    2.33</time>
   <time name="total">    2.32    2.34</time>
   <energy>
    <i name="e_fr_energy">    -11.02265932 </i>
    <i name="e_wo_entrp">    -11.02265932 </i>
    <i name="e_0_energy">    -11.02265932 </i>
   </energy>
  </scstep>
  <scstep>
   <time name="dav">    2.61    2.63</time>
   <time name="total">    2.61    2.63</time>
   <energy>
    <i name="e_fr_energy">    -11.02361368 </i>
    <i name="e_wo_entrp">    -11.02361368 </i>
    <i name="e_0_energy">    -11.02361368 </i>
   </energy>
  </scstep>
  <scstep>
   <time name="dav">    2.32    2.34</time>
   <time name="total">    2.50    2.52</time>
   <energy>
    <i name="e_fr_energy">    -11.02361591 </i>
    <i name="e_wo_entrp">    -11.02361591 </i>
    <i name="e_0_energy">    -11.02361591 </i>
   </energy>
  </scstep>
  <scstep>
   <time name="dav">    2.11    2.12</time>
   <time name="total">    2.54    2.56</time>
   <energy>
    <i name="e_fr_energy">    -10.90207195 </i>
    <i name="e_wo_entrp">    -10.90207195 </i>
    <i name="e_0_energy">    -10.90207195 </i>
   </energy>
  </scstep>
  <scstep>
   <time name="dav">    2.22    2.22</time>
   <time name="total">    2.64    2.66</time>
   <energy>
    <i name="e_fr_energy">    -10.84647361 </i>
    <i name="e_wo_entrp">    -10.84647361 </i>
    <i name="e_0_energy">    -10.84647361 </i>
   </energy>
  </scstep>
  <scstep>
   <time name="dav">    2.01    2.01</time>
   <time name="total">    2.43    2.45</time>
   <energy>
    <i name="e_fr_energy">    -10.84754474 </i>
    <i name="e_wo_entrp">    -10.84754474 </i>
    <i name="e_0_energy">    -10.84754474 </i>
   </energy>
  </scstep>
  <scstep>
   <time name="dav">    2.52    2.52</time>
   <time name="total">    2.94    2.96</time>
   <energy>
    <i name="e_fr_energy">    -10.84773936 </i>
    <i name="e_wo_entrp">    -10.84773936 </i>
    <i name="e_0_energy">    -10.84773936 </i>
   </energy>
  </scstep>
  <scstep>
   <time name="dav">    2.08    2.08</time>
   <time name="total">    2.50    2.52</time>
   <energy>
    <i name="e_fr_energy">    -10.84776462 </i>
    <i name="e_wo_entrp">    -10.84776462 </i>
    <i name="e_0_energy">    -10.84776462 </i>
   </energy>
  </scstep>
  <scstep>
   <time name="dav">    2.40    2.40</time>
   <time name="total">    2.65    2.67</time>
   <energy>
    <i name="alphaZ">      3.33880741 </i>
    <i name="ewald">   -227.98820643 </i>
    <i name="hartreedc">    -15.00502165 </i>
    <i name="XCdc">    -17.99820098 </i>
    <i name="pawpsdc">    855.34495199 </i>
    <i name="pawaedc">   -820.37566311 </i>
    <i name="eentropy">     -0.00000000 </i>
    <i name="bandstr">      5.70263020 </i>
    <i name="atom">    206.13293831 </i>
    <i name="e_fr_energy">    -10.84776426 </i>
    <i name="e_wo_entrp">    -10.84776426 </i>
    <i name="e_0_energy">    -10.84776426 </i>
   </energy>
  </scstep>
  <structure>
   <crystal>
    <varray name="basis" >
     <v>       3.33357300       0.00000000       1.92463900 </v>
     <v>       1.11119100       3.14292400       1.92463900 </v>
     <v>       0.00000000       0.00000000       3.84927800 </v>
    </varray>
    <i name="volume">     40.32952685 </i>
    <varray name="rec_basis" >
     <v>       0.29997843      -0.10605835       0.00000000 </v>
     <v>       0.00000000       0.31817505       0.00000000 </v>
     <v>      -0.14998922      -0.10605835       0.25978898 </v>
    </varray>
   </crystal>
   <varray name="positions" >
    <v>       0.87500000       0.87500000       0.87500000 </v>
    <v>       0.12500000       0.12500000       0.12500000 </v>
   </varray>
  </structure>
  <varray name="forces" >
   <v>       0.00000000       0.00000000      -0.00000000 </v>
   <v>      -0.00000000      -0.00000000       0.00000000 </v>
  </varray>
  <varray name="stress" >
   <v>      12.60892870       0.00000000      -0.00000000 </v>
   <v>       0.00000000      12.60893861       0.00000000 </v>
   <v>       0.00000000      -0.00000000      12.60892518 </v>
  </varray>
  <energy>
   <i name="e_fr_energy">    -10.84776426 </i>
   <i name="e_wo_entrp">    -10.84776426 </i>
   <i name="e_0_energy">    -10.84776426 </i>
  </energy>
  <time name="totalsc">   30.96   31.29</time>
 </calculation>
 <calculation>
  <scstep>
   <time name="dav">    2.13    2.13</time>
   <time name="total">    2.55    2.56</time>
   <energy>
    <i name="alphaZ">      3.26328278 </i>
    <i name="ewald">   -226.25602984 </i>
    <i name="hartreedc">    -14.89258406 </i>
    <i name="XCdc">    -18.11006806 </i>
    <i name="pawpsdc">    855.31590189 </i>
    <i name="pawaedc">   -820.34661589 </i>
    <i name="eentropy">     -0.00000000 </i>
    <i name="bandstr">      4.04131041 </i>
    <i name="atom">    206.13293831 </i>
    <i name="e_fr_energy">    -10.85186445 </i>
    <i name="e_wo_entrp">    -10.85186445 </i>
    <i name="e_0_energy">    -10.85186445 </i>
   </energy>
  </scstep>
  <scstep>
   <time name="dav">    2.33    2.34</time>
   <time name="total">    2.75    2.77</time>
   <energy>
    <i name="e_fr_energy">    -10.84995850 </i>
    <i name="e_wo_entrp">    -10.84995850 </i>
    <i name="e_0_energy">    -10.84995850 </i>
   </energy>
  </scstep>
  <scstep>
   <time name="dav">    2.07    2.07</time>
   <time name="total">    2.49    2.51</time>
   <energy>
    <i name="e_fr_energy">    -10.84895254 </i>
    <i name="e_wo_entrp">    -10.84895254 </i>
    <i name="e_0_energy">    -10.84895254 </i>
   </energy>
  </scstep>
  <scstep>
   <time name="dav">    2.41    2.41</time>
   <time name="total">    2.83    2.85</time>
   <energy>
    <i name="e_fr_energy">    -10.84895254 </i>
    <i name="e_wo_entrp">    -10.84895254 </i>
    <i name="e_0_energy">    -10.84895254 </i>
   </energy>
  </scstep>
  <scstep>
   <time name="dav">    2.03    2.03</time>
   <time name="total">    2.45    2.47</time>
   <energy>
    <i name="e_fr_energy">    -10.84894598 </i>
    <i name="e_wo_entrp">    -10.84894598 </i>
    <i name="e_0_energy">    -10.84894598 </i>
   </energy>
  </scstep>
  <scstep>
   <time name="dav">    1.42    1.42</time>
   <time name="total">    1.67    1.69</time>
   <energy>
    <i name="alphaZ">      3.26328278 </i>
    <i name="ewald">   -226.25602984 </i>
    <i name="hartreedc">    -15.27960346 </i>
    <i name="XCdc">    -18.10249591 </i>
    <i name="pawpsdc">    813.98688410 </i>
    <i name="pawaedc">   -778.99779931 </i>
    <i name="eentropy">     -0.00000000 </i>
    <i name="bandstr">      4.40387714 </i>
    <i name="atom">    206.13293831 </i>
    <i name="e_fr_energy">    -10.84894618 </i>
    <i name="e_wo_entrp">    -10.84894618 </i>
    <i name="e_0_energy">    -10.84894618 </i>
   </energy>
  </scstep>
  <structure>
   <crystal>
    <varray name="basis" >
     <v>       3.35909425       0.00000000       1.93937369 </v>
     <v>       1.11969808       3.16698569       1.93937369 </v>
     <v>       0.00000000      -0.00000000       3.87874739 </v>
    </varray>
    <i name="volume">     41.26290370 </i>
    <varray name="rec_basis" >
     <v>       0.29769930      -0.10525255      -0.00000000 </v>
     <v>      -0.00000000       0.31575766       0.00000000 </v>
     <v>      -0.14884965      -0.10525255       0.25781519 </v>
    </varray>
   </crystal>
   <varray name="positions" >
    <v>       0.87500000       0.87500000       0.87500000 </v>
    <v>       0.12500000       0.12500000       0.12500000 </v>
   </varray>
  </structure>
  <varray name="forces" >
   <v>      -0.00000000       0.00000000       0.00000000 </v>
   <v>       0.00000000      -0.00000000      -0.00000000 </v>
  </varray>
  <varray name="stress" >
   <v>      -7.97947456      -0.00000000      -0.00000000 </v>
   <v>       0.00000000      -7.97948093       0.00000000 </v>
   <v>       0.00000000      -0.00000000      -7.97947230 </v>
  </varray>
  <energy>
   <i name="e_fr_energy">    -10.84894618 </i>
   <i name="e_wo_entrp">    -10.84894618 </i>
   <i name="e_0_energy">    -10.84894618 </i>
  </energy>
  <time name="totalsc">   17.95   18.19</time>
 </calculation>
 <calculation>
  <scstep>
   <time name="dav">    2.10    2.10</time>
   <time name="total">    2.52    2.53</time>
   <energy>
    <i name="alphaZ">      3.29362385 </i>
    <i name="ewald">   -226.95508903 </i>
    <i name="hartreedc">    -15.32758732 </i>
    <i name="XCdc">    -18.05750062 </i>
    <i name="pawpsdc">    812.34001189 </i>
    <i name="pawaedc">   -777.35105066 </i>
    <i name="eentropy">     -0.00000000 </i>
    <i name="bandstr">      5.07428179 </i>
    <i name="atom">    206.13293831 </i>
    <i name="e_fr_energy">    -10.85037179 </i>
    <i name="e_wo_entrp">    -10.85037179 </i>
    <i name="e_0_energy">    -10.85037179 </i>
   </energy>
  </scstep>
  <scstep>
   <time name="dav">    2.28    2.29</time>
   <time name="total">    2.70    2.72</time>
   <energy>
    <i name="e_fr_energy">    -10.85006003 </i>
    <i name="e_wo_entrp">    -10.85006003 </i>
    <i name="e_0_energy">    -10.85006003 </i>
   </energy>
  </scstep>
  <scstep>
   <time name="dav">    2.05    2.05</time>
   <time name="total">    2.47    2.49</time>
   <energy>
    <i name="e_fr_energy">    -10.84990219 </i>
    <i name="e_wo_entrp">    -10.84990219 </i>
    <i name="e_0_energy">    -10.84990219 </i>
   </energy>
  </scstep>
  <scstep>
   <time name="dav">    2.31    2.32</time>
   <time name="total">    2.73    2.75</time>
   <energy>
    <i name="e_fr_energy">    -10.84990283 </i>
    <i name="e_wo_entrp">    -10.84990283 </i>
    <i name="e_0_energy">    -10.84990283 </i>
   </energy>
  </scstep>
  <scstep>
   <time name="dav">    1.91    1.92</time>
   <time name="total">    2.33    2.35</time>
   <energy>
    <i name="e_fr_energy">    -10.84990466 </i>
    <i name="e_wo_entrp">    -10.84990466 </i>
    <i name="e_0_energy">    -10.84990466 </i>
   </energy>
  </scstep>
  <scstep>
   <time name="dav">    1.26    1.26</time>
   <time name="total">    1.51    1.53</time>
   <energy>
    <i name="alphaZ">      3.29362385 </i>
    <i name="ewald">   -226.95508903 </i>
    <i name="hartreedc">    -15.16941049 </i>
    <i name="XCdc">    -18.06038367 </i>
    <i name="pawpsdc">    829.27822168 </i>
    <i name="pawaedc">   -794.29713858 </i>
    <i name="eentropy">     -0.00000000 </i>
    <i name="bandstr">      4.92733334 </i>
    <i name="atom">    206.13293831 </i>
    <i name="e_fr_energy">    -10.84990458 </i>
    <i name="e_wo_entrp">    -10.84990458 </i>
    <i name="e_0_energy">    -10.84990458 </i>
   </energy>
  </scstep>
  <structure>
   <crystal>
    <varray name="basis" >
     <v>       3.34874768       0.00000000       1.93340010 </v>
     <v>       1.11624923       3.15723085       1.93340010 </v>
     <v>       0.00000000      -0.00000000       3.86680021 </v>
    </varray>
    <i name="volume">     40.88278723 </i>
    <varray name="rec_basis" >
     <v>       0.29861909      -0.10557775      -0.00000000 </v>
     <v>      -0.00000000       0.31673325       0.00000000 </v>
     <v>      -0.14930955      -0.10557775       0.25861176 </v>
    </varray>
   </crystal>
   <varray name="positions" >
    <v>       0.87500000       0.87500000       0.87500000 </v>
    <v>       0.12500000       0.12500000       0.12500000 </v>
   </varray>
  </structure>
  <varray name="forces" >
   <v>       0.00000000       0.00000000      -0.00000000 </v>
   <v>      -0.00000000      -0.00000000       0.00000000 </v>
  </varray>
  <varray name="stress" >
   <v>       0.07014077       0.00000000       0.00000000 </v>
   <v>       0.00000000       0.07014083       0.00000000 </v>
   <v>       0.00000000       0.00000000       0.07014075 </v>
  </varray>
  <energy>
   <i name="e_fr_energy">    -10.84990458 </i>
   <i name="e_wo_entrp">    -10.84990458 </i>
   <i name="e_0_energy">    -10.84990458 </i>
  </energy>
  <time name="totalsc">   17.21   17.45</time>
  <eigenvalues>
   <array>
    <dimension dim="1">band</dimension>
    <dimension dim="2">kpoint</dimension>
    <dimension dim="3">spin</dimension>
    <field>eigene</field>
    <field>occ</field>
    <set>
     <set comment="spin 1">
      <set comment="kpoint 1">
       <r>   -6.1983    1.0000 </r>
       <r>    5.6171    1.0000 </r>
       <r>    5.6171    1.0000 </r>
       <r>    5.6171    1.0000 </r>
       <r>    8.1742    0.0000 </r>
       <r>    8.1742    0.0000 </r>
       <r>    8.1742    0.0000 </r>
       <r>    8.7526    0.0000 </r>
      </set>
      <set comment="kpoint 2">
       <r>   -6.1411    1.0000 </r>
       <r>    5.0242    1.0000 </r>
       <r>    5.5241    1.0000 </r>
       <r>    5.5241    1.0000 </r>
       <r>    8.2097    0.0000 </r>
       <r>    8.3111    0.0000 </r>
       <r>    8.3111    0.0000 </r>
       <r>    9.2133    0.0000 </r>
      </set>
      <set comment="kpoint 3">
       <r>   -5.9704    1.0000 </r>
       <r>    3.8734    1.0000 </r>
       <r>    5.3037    1.0000 </r>
       <r>    5.3037    1.0000 </r>
       <r>    8.0312    0.0000 </r>
       <r>    8.6344    0.0000 </r>
       <r>    8.6344    0.0000 </r>
       <r>   10.2984    0.0000 </r>
      </set>
      <set comment="kpoint 4">
       <r>   -5.6903    1.0000 </r>
       <r>    2.6352    1.0000 </r>
       <r>    5.0496    1.0000 </r>
       <r>    5.0496    1.0000 </r>
       <r>    7.7703    0.0000 </r>
       <r>    8.9619    0.0000 </r>
       <r>    8.9619    0.0000 </r>
       <r>   11.4969    0.0000 </r>
      </set>
      <set comment="kpoint 5">
       <r>   -5.3095    1.0000 </r>
       <r>    1.4395    1.0000 </r>
       <r>    4.8181    1.0000 </r>
       <r>    4.8181    1.0000 </r>
       <r>    7.5173    0.0000 </r>
       <r>    9.1305    0.0000 </r>
       <r>    9.1306    0.0000 </r>
       <r>   12.6425    0.0000 </r>
      </set>
      <set comment="kpoint 6">
       <r>   -4.8481    1.0000 </r>
       <r>    0.3475    1.0000 </r>
       <r>    4.6346    1.0000 </r>
       <r>    4.6346    1.0000 </r>
       <r>    7.3104    0.0000 </r>
       <r>    9.1208    0.0000 </r>
       <r>    9.1208    0.0000 </r>
       <r>   13.4018    0.0000 </r>
      </set>
      <set comment="kpoint 7">
       <r>   -4.3570    1.0000 </r>
       <r>   -0.5713    1.0000 </r>
       <r>    4.5096    1.0000 </r>
       <r>    4.5096    1.0000 </r>
       <r>    7.1668    0.0000 </r>
       <r>    9.0379    0.0000 </r>
       <r>    9.0380    0.0000 </r>
       <r>   13.4230    0.0000 </r>
      </set>
      <set comment="kpoint 8">
       <r>   -3.9792    1.0000 </r>
       <r>   -1.1649    1.0000 </r>
       <r>    4.4466    1.0000 </r>
       <r>    4.4466    1.0000 </r>
       <r>    7.0937    0.0000 </r>
       <r>    8.9755    0.0000 </r>
       <r>    8.9755    0.0000 </r>
       <r>   13.3334    0.0000 </r>
      </set>
      <set comment="kpoint 9">
       <r>   -6.1219    1.0000 </r>
       <r>    5.1334    1.0000 </r>
       <r>    5.3311    1.0000 </r>
       <r>    5.3311    1.0000 </r>
       <r>    7.9956    0.0000 </r>
       <r>    8.5543    0.0000 </r>
       <r>    8.5543    0.0000 </r>
       <r>    9.2136    0.0000 </r>
      </set>
      <set comment="kpoint 10">
       <r>   -5.9889    1.0000 </r>
       <r>    4.2099    1.0000 </r>
       <r>    5.0583    1.0000 </r>
       <r>    5.2238    1.0000 </r>
       <r>    7.9931    0.0000 </r>
       <r>    8.6185    0.0000 </r>
       <r>    8.9486    0.0000 </r>
       <r>   10.0065    0.0000 </r>
      </set>
      <set comment="kpoint 11">
       <r>   -5.7447    1.0000 </r>
       <r>    3.0237    1.0000 </r>
       <r>    4.7878    1.0000 </r>
       <r>    5.0085    1.0000 </r>
       <r>    8.0695    0.0000 </r>
       <r>    8.6162    0.0000 </r>
       <r>    9.3322    0.0000 </r>
       <r>   10.8858    0.0000 </r>
      </set>
      <set comment="kpoint 12">
       <r>   -5.3963    1.0000 </r>
       <r>    1.8295    1.0000 </r>
       <r>    4.5633    1.0000 </r>
       <r>    4.7382    1.0000 </r>
       <r>    7.9262    0.0000 </r>
       <r>    8.8045    0.0000 </r>
       <r>    9.5445    0.0000 </r>
       <r>   11.3716    0.0000 </r>
      </set>
      <set comment="kpoint 13">
       <r>   -4.9586    1.0000 </r>
       <r>    0.7100    1.0000 </r>
       <r>    4.4041    1.0000 </r>
       <r>    4.4788    1.0000 </r>
       <r>    7.7333    0.0000 </r>
       <r>    8.8989    0.0000 </r>
       <r>    9.5349    0.0000 </r>
       <r>   11.9372    0.0000 </r>
      </set>
      <set comment="kpoint 14">
       <r>   -4.4680    1.0000 </r>
       <r>   -0.2700    1.0000 </r>
       <r>    4.2607    1.0000 </r>
       <r>    4.3176    1.0000 </r>
       <r>    7.5781    0.0000 </r>
       <r>    8.8873    0.0000 </r>
       <r>    9.4000    0.0000 </r>
       <r>   12.7382    0.0000 </r>
      </set>
      <set comment="kpoint 15">
       <r>   -4.0261    1.0000 </r>
       <r>   -0.9951    1.0000 </r>
       <r>    4.0985    1.0000 </r>
       <r>    4.3049    1.0000 </r>
       <r>    7.4841    0.0000 </r>
       <r>    8.8763    0.0000 </r>
       <r>    9.2508    0.0000 </r>
       <r>   13.3821    0.0000 </r>
      </set>
      <set comment="kpoint 16">
       <r>   -3.8753    1.0000 </r>
       <r>   -1.2169    1.0000 </r>
       <r>    4.0008    1.0000 </r>
       <r>    4.3629    1.0000 </r>
       <r>    7.4593    0.0000 </r>
       <r>    8.9248    0.0000 </r>
       <r>    9.1477    0.0000 </r>
       <r>   13.5216    0.0000 </r>
      </set>
      <set comment="kpoint 17">
       <r>   -4.1569    1.0000 </r>
       <r>   -0.7926    1.0000 </r>
       <r>    3.9738    1.0000 </r>
       <r>    4.4865    1.0000 </r>
       <r>    7.5054    0.0000 </r>
       <r>    9.0432    0.0000 </r>
       <r>    9.1067    0.0000 </r>
       <r>   13.4923    0.0000 </r>
      </set>
      <set comment="kpoint 18">
       <r>   -4.6340    1.0000 </r>
       <r>    0.0378    1.0000 </r>
       <r>    4.0220    1.0000 </r>
       <r>    4.6680    1.0000 </r>
       <r>    7.6207    0.0000 </r>
       <r>    9.1037    0.0000 </r>
       <r>    9.2016    0.0000 </r>
       <r>   13.0831    0.0000 </r>
      </set>
      <set comment="kpoint 19">
       <r>   -5.1135    1.0000 </r>
       <r>    1.0723    1.0000 </r>
       <r>    4.1486    1.0000 </r>
       <r>    4.8959    1.0000 </r>
       <r>    7.7989    0.0000 </r>
       <r>    9.0632    0.0000 </r>
       <r>    9.3147    0.0000 </r>
       <r>   12.3273    0.0000 </r>
      </set>
      <set comment="kpoint 20">
       <r>   -5.5238    1.0000 </r>
       <r>    2.2200    1.0000 </r>
       <r>    4.3543    1.0000 </r>
       <r>    5.1502    1.0000 </r>
       <r>    8.0253    0.0000 </r>
       <r>    8.8852    0.0000 </r>
       <r>    9.2345    0.0000 </r>
       <r>   11.5905    0.0000 </r>
      </set>
      <set comment="kpoint 21">
       <r>   -5.8385    1.0000 </r>
       <r>    3.4067    1.0000 </r>
       <r>    4.6407    1.0000 </r>
       <r>    5.3912    1.0000 </r>
       <r>    8.2659    0.0000 </r>
       <r>    8.5829    0.0000 </r>
       <r>    8.8886    0.0000 </r>
       <r>   10.7762    0.0000 </r>
      </set>
      <set comment="kpoint 22">
       <r>   -6.0459    1.0000 </r>
       <r>    4.4617    1.0000 </r>
       <r>    5.0434    1.0000 </r>
       <r>    5.5446    1.0000 </r>
       <r>    8.3316    0.0000 </r>
       <r>    8.4322    0.0000 </r>
       <r>    8.4397    0.0000 </r>
       <r>    9.8407    0.0000 </r>
      </set>
      <set comment="kpoint 23">
       <r>   -5.8934    1.0000 </r>
       <r>    4.1280    1.0000 </r>
       <r>    4.7545    1.0000 </r>
       <r>    4.7545    1.0000 </r>
       <r>    7.5738    0.0000 </r>
       <r>    9.4102    0.0000 </r>
       <r>    9.4102    0.0000 </r>
       <r>    9.8840    0.0000 </r>
      </set>
      <set comment="kpoint 24">
       <r>   -5.6860    1.0000 </r>
       <r>    3.2542    1.0000 </r>
       <r>    4.4670    1.0000 </r>
       <r>    4.5364    1.0000 </r>
       <r>    7.5403    0.0000 </r>
       <r>    9.4255    0.0000 </r>
       <r>    9.8758    0.0000 </r>
       <r>   10.2199    0.0000 </r>
      </set>
      <set comment="kpoint 25">
       <r>   -5.3718    1.0000 </r>
       <r>    2.1631    1.0000 </r>
       <r>    4.2352    1.0000 </r>
       <r>    4.2510    1.0000 </r>
       <r>    7.7308    0.0000 </r>
       <r>    9.3396    0.0000 </r>
       <r>   10.1827    0.0000 </r>
       <r>   10.2681    0.0000 </r>
      </set>
      <set comment="kpoint 26">
       <r>   -4.9618    1.0000 </r>
       <r>    1.0732    1.0000 </r>
       <r>    3.9246    1.0000 </r>
       <r>    4.0777    1.0000 </r>
       <r>    7.8275    0.0000 </r>
       <r>    9.3547    0.0000 </r>
       <r>   10.2327    0.0000 </r>
       <r>   10.4796    0.0000 </r>
      </set>
      <set comment="kpoint 27">
       <r>   -4.4824    1.0000 </r>
       <r>    0.0730    1.0000 </r>
       <r>    3.6210    1.0000 </r>
       <r>    4.0022    1.0000 </r>
       <r>    7.8003    0.0000 </r>
       <r>    9.2948    0.0000 </r>
       <r>   10.0956    0.0000 </r>
       <r>   11.1809    0.0000 </r>
      </set>
      <set comment="kpoint 28">
       <r>   -4.0044    1.0000 </r>
       <r>   -0.7386    1.0000 </r>
       <r>    3.3713    1.0000 </r>
       <r>    4.0103    1.0000 </r>
       <r>    7.7699    0.0000 </r>
       <r>    9.2183    0.0000 </r>
       <r>    9.8987    0.0000 </r>
       <r>   12.1895    0.0000 </r>
      </set>
      <set comment="kpoint 29">
       <r>   -3.7227    1.0000 </r>
       <r>   -1.1539    1.0000 </r>
       <r>    3.1920    1.0000 </r>
       <r>    4.0991    1.0000 </r>
       <r>    7.7969    0.0000 </r>
       <r>    9.1958    0.0000 </r>
       <r>    9.7218    0.0000 </r>
       <r>   13.2937    0.0000 </r>
      </set>
      <set comment="kpoint 30">
       <r>   -3.8783    1.0000 </r>
       <r>   -0.9278    1.0000 </r>
       <r>    3.0944    1.0000 </r>
       <r>    4.2621    1.0000 </r>
       <r>    7.8941    0.0000 </r>
       <r>    9.2487    0.0000 </r>
       <r>    9.5944    0.0000 </r>
       <r>   13.7271    0.0000 </r>
      </set>
      <set comment="kpoint 31">
       <r>   -4.3229    1.0000 </r>
       <r>   -0.2121    1.0000 </r>
       <r>    3.0885    1.0000 </r>
       <r>    4.4880    1.0000 </r>
       <r>    8.0534    0.0000 </r>
       <r>    9.3673    0.0000 </r>
       <r>    9.5033    0.0000 </r>
       <r>   12.8817    0.0000 </r>
      </set>
      <set comment="kpoint 32">
       <r>   -4.8131    1.0000 </r>
       <r>    0.7348    1.0000 </r>
       <r>    3.1870    1.0000 </r>
       <r>    4.7584    1.0000 </r>
       <r>    8.2563    0.0000 </r>
       <r>    9.3820    0.0000 </r>
       <r>    9.4851    0.0000 </r>
       <r>   11.9829    0.0000 </r>
      </set>
      <set comment="kpoint 33">
       <r>   -5.2492    1.0000 </r>
       <r>    1.7706    1.0000 </r>
       <r>    3.4185    1.0000 </r>
       <r>    5.0417    1.0000 </r>
       <r>    8.4725    0.0000 </r>
       <r>    9.1360    0.0000 </r>
       <r>    9.4100    0.0000 </r>
       <r>   11.3665    0.0000 </r>
      </set>
      <set comment="kpoint 34">
       <r>   -5.5958    1.0000 </r>
       <r>    2.7317    1.0000 </r>
       <r>    3.8730    1.0000 </r>
       <r>    5.2816    1.0000 </r>
       <r>    8.5996    0.0000 </r>
       <r>    8.8026    0.0000 </r>
       <r>    9.0365    0.0000 </r>
       <r>   11.1135    0.0000 </r>
      </set>
      <set comment="kpoint 35">
       <r>   -5.5152    1.0000 </r>
       <r>    2.9827    1.0000 </r>
       <r>    4.1627    1.0000 </r>
       <r>    4.1627    1.0000 </r>
       <r>    7.0936    0.0000 </r>
       <r>    9.4708    0.0000 </r>
       <r>   10.4587    0.0000 </r>
       <r>   10.4587    0.0000 </r>
      </set>
      <set comment="kpoint 36">
       <r>   -5.2360    1.0000 </r>
       <r>    2.2167    1.0000 </r>
       <r>    3.8545    1.0000 </r>
       <r>    3.9157    1.0000 </r>
       <r>    7.0846    0.0000 </r>
       <r>    9.1165    0.0000 </r>
       <r>   10.7294    0.0000 </r>
       <r>   10.9177    0.0000 </r>
      </set>
      <set comment="kpoint 37">
       <r>   -4.8566    1.0000 </r>
       <r>    1.2877    1.0000 </r>
       <r>    3.4514    1.0000 </r>
       <r>    3.7459    1.0000 </r>
       <r>    7.2966    0.0000 </r>
       <r>    9.1334    0.0000 </r>
       <r>   10.6451    0.0000 </r>
       <r>   11.0977    0.0000 </r>
      </set>
      <set comment="kpoint 38">
       <r>   -4.3961    1.0000 </r>
       <r>    0.3536    1.0000 </r>
       <r>    3.0402    1.0000 </r>
       <r>    3.6625    1.0000 </r>
       <r>    7.4043    0.0000 </r>
       <r>    9.6872    0.0000 </r>
       <r>   10.4783    0.0000 </r>
       <r>   11.0135    0.0000 </r>
      </set>
      <set comment="kpoint 39">
       <r>   -3.9034    1.0000 </r>
       <r>   -0.4758    1.0000 </r>
       <r>    2.6855    1.0000 </r>
       <r>    3.6684    1.0000 </r>
       <r>    7.4387    0.0000 </r>
       <r>   10.3179    0.0000 </r>
       <r>   10.6478    0.0000 </r>
       <r>   10.8082    0.0000 </r>
      </set>
      <set comment="kpoint 40">
       <r>   -3.5227    1.0000 </r>
       <r>   -1.0260    1.0000 </r>
       <r>    2.4156    1.0000 </r>
       <r>    3.7620    1.0000 </r>
       <r>    7.5159    0.0000 </r>
       <r>   10.2128    0.0000 </r>
       <r>   10.5886    0.0000 </r>
       <r>   11.8210    0.0000 </r>
      </set>
      <set comment="kpoint 41">
       <r>   -3.5352    1.0000 </r>
       <r>   -1.0049    1.0000 </r>
       <r>    2.2475    1.0000 </r>
       <r>    3.9372    1.0000 </r>
       <r>    7.6758    0.0000 </r>
       <r>   10.1645    0.0000 </r>
       <r>   10.3979    0.0000 </r>
       <r>   13.1124    0.0000 </r>
      </set>
      <set comment="kpoint 42">
       <r>   -3.9267    1.0000 </r>
       <r>   -0.4330    1.0000 </r>
       <r>    2.2005    1.0000 </r>
       <r>    4.1827    1.0000 </r>
       <r>    7.9160    0.0000 </r>
       <r>   10.1704    0.0000 </r>
       <r>   10.2249    0.0000 </r>
       <r>   12.7600    0.0000 </r>
      </set>
      <set comment="kpoint 43">
       <r>   -4.4183    1.0000 </r>
       <r>    0.3733    1.0000 </r>
       <r>    2.3135    1.0000 </r>
       <r>    4.4780    1.0000 </r>
       <r>    8.2059    0.0000 </r>
       <r>    9.9860    0.0000 </r>
       <r>   10.1659    0.0000 </r>
       <r>   11.7740    0.0000 </r>
      </set>
      <set comment="kpoint 44">
       <r>   -4.8746    1.0000 </r>
       <r>    1.1705    1.0000 </r>
       <r>    2.6836    1.0000 </r>
       <r>    4.7861    1.0000 </r>
       <r>    8.4685    0.0000 </r>
       <r>    9.5831    0.0000 </r>
       <r>    9.8871    0.0000 </r>
       <r>   11.2748    0.0000 </r>
      </set>
      <set comment="kpoint 45">
       <r>   -4.9914    1.0000 </r>
       <r>    1.8033    1.0000 </r>
       <r>    3.6500    1.0000 </r>
       <r>    3.6500    1.0000 </r>
       <r>    6.6735    0.0000 </r>
       <r>    8.5122    0.0000 </r>
       <r>   11.5981    0.0000 </r>
       <r>   11.5981    0.0000 </r>
      </set>
      <set comment="kpoint 46">
       <r>   -4.6441    1.0000 </r>
       <r>    1.1238    1.0000 </r>
       <r>    3.3024    1.0000 </r>
       <r>    3.4610    1.0000 </r>
       <r>    6.7160    0.0000 </r>
       <r>    8.2098    0.0000 </r>
       <r>   11.8765    0.0000 </r>
       <r>   12.0142    0.0000 </r>
      </set>
      <set comment="kpoint 47">
       <r>   -4.2077    1.0000 </r>
       <r>    0.3639    1.0000 </r>
       <r>    2.7935    1.0000 </r>
       <r>    3.3599    1.0000 </r>
       <r>    6.9262    0.0000 </r>
       <r>    8.4076    0.0000 </r>
       <r>   11.8119    0.0000 </r>
       <r>   12.0662    0.0000 </r>
      </set>
      <set comment="kpoint 48">
       <r>   -3.7157    1.0000 </r>
       <r>   -0.3776    1.0000 </r>
       <r>    2.2930    1.0000 </r>
       <r>    3.3507    1.0000 </r>
       <r>    7.0210    0.0000 </r>
       <r>    9.1731    0.0000 </r>
       <r>   11.6677    0.0000 </r>
       <r>   11.8964    0.0000 </r>
      </set>
      <set comment="kpoint 49">
       <r>   -3.2697    1.0000 </r>
       <r>   -0.9659    1.0000 </r>
       <r>    1.8926    1.0000 </r>
       <r>    3.4332    1.0000 </r>
       <r>    7.1142    0.0000 </r>
       <r>   10.2576    0.0000 </r>
       <r>   11.5465    0.0000 </r>
       <r>   11.6590    0.0000 </r>
      </set>
      <set comment="kpoint 50">
       <r>   -3.1437    1.0000 </r>
       <r>   -1.1133    1.0000 </r>
       <r>    1.6337    1.0000 </r>
       <r>    3.6028    1.0000 </r>
       <r>    7.2879    0.0000 </r>
       <r>   11.2349    0.0000 </r>
       <r>   11.4165    0.0000 </r>
       <r>   11.7499    0.0000 </r>
      </set>
      <set comment="kpoint 51">
       <r>   -3.4676    1.0000 </r>
       <r>   -0.7073    1.0000 </r>
       <r>    1.5580    1.0000 </r>
       <r>    3.8492    1.0000 </r>
       <r>    7.5530    0.0000 </r>
       <r>   11.1372    0.0000 </r>
       <r>   11.2771    0.0000 </r>
       <r>   12.6660    0.0000 </r>
      </set>
      <set comment="kpoint 52">
       <r>   -3.9509    1.0000 </r>
       <r>   -0.1160    1.0000 </r>
       <r>    1.7498    1.0000 </r>
       <r>    4.1530    1.0000 </r>
       <r>    7.8851    0.0000 </r>
       <r>   10.6640    0.0000 </r>
       <r>   11.0037    0.0000 </r>
       <r>   11.8605    0.0000 </r>
      </set>
      <set comment="kpoint 53">
       <r>   -4.3283    1.0000 </r>
       <r>    0.6269    1.0000 </r>
       <r>    3.2501    1.0000 </r>
       <r>    3.2501    1.0000 </r>
       <r>    6.3757    0.0000 </r>
       <r>    7.6389    0.0000 </r>
       <r>   12.7907    0.0000 </r>
       <r>   12.7907    0.0000 </r>
      </set>
      <set comment="kpoint 54">
       <r>   -3.9186    1.0000 </r>
       <r>    0.0118    1.0000 </r>
       <r>    2.9062    1.0000 </r>
       <r>    3.1262    1.0000 </r>
       <r>    6.4788    0.0000 </r>
       <r>    7.4635    0.0000 </r>
       <r>   13.0927    0.0000 </r>
       <r>   13.1490    0.0000 </r>
      </set>
      <set comment="kpoint 55">
       <r>   -3.4379    1.0000 </r>
       <r>   -0.6103    1.0000 </r>
       <r>    2.3498    1.0000 </r>
       <r>    3.0954    1.0000 </r>
       <r>    6.6626    0.0000 </r>
       <r>    7.9005    0.0000 </r>
       <r>   13.0480    0.0000 </r>
       <r>   13.0981    0.0000 </r>
      </set>
      <set comment="kpoint 56">
       <r>   -2.9551    1.0000 </r>
       <r>   -1.1544    1.0000 </r>
       <r>    1.8107    1.0000 </r>
       <r>    3.1585    1.0000 </r>
       <r>    6.7684    0.0000 </r>
       <r>    8.8668    0.0000 </r>
       <r>   12.8706    0.0000 </r>
       <r>   12.9166    0.0000 </r>
      </set>
      <set comment="kpoint 57">
       <r>   -2.7238    1.0000 </r>
       <r>   -1.3839    1.0000 </r>
       <r>    1.4281    1.0000 </r>
       <r>    3.3122    1.0000 </r>
       <r>    6.9382    0.0000 </r>
       <r>   10.0847    0.0000 </r>
       <r>   12.5606    0.0000 </r>
       <r>   12.7891    0.0000 </r>
      </set>
      <set comment="kpoint 58">
       <r>   -3.0013    1.0000 </r>
       <r>   -1.0965    1.0000 </r>
       <r>    1.3063    1.0000 </r>
       <r>    3.5482    1.0000 </r>
       <r>    7.2052    0.0000 </r>
       <r>   11.3947    0.0000 </r>
       <r>   12.0255    0.0000 </r>
       <r>   12.5887    0.0000 </r>
      </set>
      <set comment="kpoint 59">
       <r>   -3.5350    1.0000 </r>
       <r>   -0.5201    1.0000 </r>
       <r>    2.9777    1.0000 </r>
       <r>    2.9777    1.0000 </r>
       <r>    6.2351    0.0000 </r>
       <r>    6.9667    0.0000 </r>
       <r>   14.0185    0.0000 </r>
       <r>   14.0185    0.0000 </r>
      </set>
      <set comment="kpoint 60">
       <r>   -3.0713    1.0000 </r>
       <r>   -1.0800    1.0000 </r>
       <r>    2.6688    1.0000 </r>
       <r>    2.9220    1.0000 </r>
       <r>    6.3910    0.0000 </r>
       <r>    6.9468    0.0000 </r>
       <r>   14.3116    0.0000 </r>
       <r>   14.3369    0.0000 </r>
      </set>
      <set comment="kpoint 61">
       <r>   -2.5728    1.0000 </r>
       <r>   -1.5887    1.0000 </r>
       <r>    2.1311    1.0000 </r>
       <r>    2.9613    1.0000 </r>
       <r>    6.5262    0.0000 </r>
       <r>    7.6461    0.0000 </r>
       <r>   14.1471    0.0000 </r>
       <r>   14.3090    0.0000 </r>
      </set>
      <set comment="kpoint 62">
       <r>   -2.3595    1.0000 </r>
       <r>   -1.7562    1.0000 </r>
       <r>    1.6477    1.0000 </r>
       <r>    3.0936    1.0000 </r>
       <r>    6.6810    0.0000 </r>
       <r>    8.7662    0.0000 </r>
       <r>   13.6148    0.0000 </r>
       <r>   14.1902    0.0000 </r>
      </set>
      <set comment="kpoint 63">
       <r>   -2.6240    1.0000 </r>
       <r>   -1.6120    1.0000 </r>
       <r>    2.8401    1.0000 </r>
       <r>    2.8401    1.0000 </r>
       <r>    6.2752    0.0000 </r>
       <r>    6.5142    0.0000 </r>
       <r>   15.2173    0.0000 </r>
       <r>   15.2173    0.0000 </r>
      </set>
      <set comment="kpoint 64">
       <r>   -2.1472    1.0000 </r>
       <r>   -2.0879    1.0000 </r>
       <r>    2.5898    1.0000 </r>
       <r>    2.8534    1.0000 </r>
       <r>    6.4040    0.0000 </r>
       <r>    6.7307    0.0000 </r>
       <r>   15.1923    0.0000 </r>
       <r>   15.3376    0.0000 </r>
      </set>
      <set comment="kpoint 65">
       <r>   -5.8188    1.0000 </r>
       <r>    3.5584    1.0000 </r>
       <r>    4.4623    1.0000 </r>
       <r>    5.1476    1.0000 </r>
       <r>    7.9790    0.0000 </r>
       <r>    8.8790    0.0000 </r>
       <r>    9.2728    0.0000 </r>
       <r>   10.4956    0.0000 </r>
      </set>
      <set comment="kpoint 66">
       <r>   -5.5395    1.0000 </r>
       <r>    2.5475    1.0000 </r>
       <r>    4.0254    1.0000 </r>
       <r>    4.9694    1.0000 </r>
       <r>    8.1632    0.0000 </r>
       <r>    8.8712    0.0000 </r>
       <r>    9.6629    0.0000 </r>
       <r>   10.7256    0.0000 </r>
      </set>
      <set comment="kpoint 67">
       <r>   -5.1598    1.0000 </r>
       <r>    1.4405    1.0000 </r>
       <r>    3.7512    1.0000 </r>
       <r>    4.7168    1.0000 </r>
       <r>    8.1968    0.0000 </r>
       <r>    8.9228    0.0000 </r>
       <r>    9.8593    0.0000 </r>
       <r>   10.9608    0.0000 </r>
      </set>
      <set comment="kpoint 68">
       <r>   -4.6992    1.0000 </r>
       <r>    0.3903    1.0000 </r>
       <r>    3.5752    1.0000 </r>
       <r>    4.4702    1.0000 </r>
       <r>    8.0875    0.0000 </r>
       <r>    8.9289    0.0000 </r>
       <r>    9.8352    0.0000 </r>
       <r>   11.5777    0.0000 </r>
      </set>
      <set comment="kpoint 69">
       <r>   -4.2076    1.0000 </r>
       <r>   -0.5083    1.0000 </r>
       <r>    3.4744    1.0000 </r>
       <r>    4.2776    1.0000 </r>
       <r>    7.9805    0.0000 </r>
       <r>    8.8570    0.0000 </r>
       <r>    9.7378    0.0000 </r>
       <r>   12.4940    0.0000 </r>
      </set>
      <set comment="kpoint 70">
       <r>   -3.8274    1.0000 </r>
       <r>   -1.0955    1.0000 </r>
       <r>    3.4310    1.0000 </r>
       <r>    4.1712    1.0000 </r>
       <r>    7.9217    0.0000 </r>
       <r>    8.7990    0.0000 </r>
       <r>    9.6676    0.0000 </r>
       <r>   13.4520    0.0000 </r>
      </set>
      <set comment="kpoint 71">
       <r>   -5.4430    1.0000 </r>
       <r>    2.5929    1.0000 </r>
       <r>    3.8679    1.0000 </r>
       <r>    4.4565    1.0000 </r>
       <r>    7.5179    0.0000 </r>
       <r>    9.4894    0.0000 </r>
       <r>   10.1491    0.0000 </r>
       <r>   10.3548    0.0000 </r>
      </set>
      <set comment="kpoint 72">
       <r>   -5.0962    1.0000 </r>
       <r>    1.6843    1.0000 </r>
       <r>    3.4297    1.0000 </r>
       <r>    4.2565    1.0000 </r>
       <r>    7.7502    0.0000 </r>
       <r>    9.4781    0.0000 </r>
       <r>   10.0007    0.0000 </r>
       <r>   10.7245    0.0000 </r>
      </set>
      <set comment="kpoint 73">
       <r>   -4.6600    1.0000 </r>
       <r>    0.7059    1.0000 </r>
       <r>    3.1336    1.0000 </r>
       <r>    4.0242    1.0000 </r>
       <r>    7.9024    0.0000 </r>
       <r>    9.5920    0.0000 </r>
       <r>   10.0896    0.0000 </r>
       <r>   10.8253    0.0000 </r>
      </set>
      <set comment="kpoint 74">
       <r>   -4.1693    1.0000 </r>
       <r>   -0.2020    1.0000 </r>
       <r>    2.9147    1.0000 </r>
       <r>    3.8566    1.0000 </r>
       <r>    7.9363    0.0000 </r>
       <r>    9.4092    0.0000 </r>
       <r>   10.7057    0.0000 </r>
       <r>   10.9502    0.0000 </r>
      </set>
      <set comment="kpoint 75">
       <r>   -3.7242    1.0000 </r>
       <r>   -0.8947    1.0000 </r>
       <r>    2.7473    1.0000 </r>
       <r>    3.7992    1.0000 </r>
       <r>    7.9785    0.0000 </r>
       <r>    9.2201    0.0000 </r>
       <r>   10.6292    0.0000 </r>
       <r>   12.0244    0.0000 </r>
      </set>
      <set comment="kpoint 76">
       <r>   -3.5735    1.0000 </r>
       <r>   -1.1059    1.0000 </r>
       <r>    2.6345    1.0000 </r>
       <r>    3.8590    1.0000 </r>
       <r>    8.0846    0.0000 </r>
       <r>    9.0884    0.0000 </r>
       <r>   10.5573    0.0000 </r>
       <r>   13.2494    0.0000 </r>
      </set>
      <set comment="kpoint 77">
       <r>   -3.8633    1.0000 </r>
       <r>   -0.6866    1.0000 </r>
       <r>    2.5946    1.0000 </r>
       <r>    4.0213    1.0000 </r>
       <r>    8.2582    0.0000 </r>
       <r>    9.0261    0.0000 </r>
       <r>   10.5269    0.0000 </r>
       <r>   12.3670    0.0000 </r>
      </set>
      <set comment="kpoint 78">
       <r>   -4.3431    1.0000 </r>
       <r>    0.1002    1.0000 </r>
       <r>    2.6525    1.0000 </r>
       <r>    4.2614    1.0000 </r>
       <r>    8.4727    0.0000 </r>
       <r>    9.0097    0.0000 </r>
       <r>   10.5006    0.0000 </r>
       <r>   11.3655    0.0000 </r>
      </set>
      <set comment="kpoint 79">
       <r>   -4.8207    1.0000 </r>
       <r>    1.0214    1.0000 </r>
       <r>    2.8487    1.0000 </r>
       <r>    4.5444    1.0000 </r>
       <r>    8.6577    0.0000 </r>
       <r>    8.9398    0.0000 </r>
       <r>   10.3871    0.0000 </r>
       <r>   10.6997    0.0000 </r>
      </set>
      <set comment="kpoint 80">
       <r>   -5.2279    1.0000 </r>
       <r>    1.8959    1.0000 </r>
       <r>    3.2759    1.0000 </r>
       <r>    4.8121    1.0000 </r>
       <r>    8.4926    0.0000 </r>
       <r>    8.9296    0.0000 </r>
       <r>   10.0902    0.0000 </r>
       <r>   10.5146    0.0000 </r>
      </set>
      <set comment="kpoint 81">
       <r>   -4.9232    1.0000 </r>
       <r>    1.5758    1.0000 </r>
       <r>    3.3583    1.0000 </r>
       <r>    3.7885    1.0000 </r>
       <r>    7.1078    0.0000 </r>
       <r>    8.7754    0.0000 </r>
       <r>   10.8967    0.0000 </r>
       <r>   11.5314    0.0000 </r>
      </set>
      <set comment="kpoint 82">
       <r>   -4.5152    1.0000 </r>
       <r>    0.7955    1.0000 </r>
       <r>    2.9096    1.0000 </r>
       <r>    3.5832    1.0000 </r>
       <r>    7.3712    0.0000 </r>
       <r>    8.8266    0.0000 </r>
       <r>   10.7450    0.0000 </r>
       <r>   11.8792    0.0000 </r>
      </set>
      <set comment="kpoint 83">
       <r>   -4.0366    1.0000 </r>
       <r>   -0.0147    1.0000 </r>
       <r>    2.5193    1.0000 </r>
       <r>    3.4350    1.0000 </r>
       <r>    7.5145    0.0000 </r>
       <r>    9.4458    0.0000 </r>
       <r>   10.5143    0.0000 </r>
       <r>   11.9073    0.0000 </r>
      </set>
      <set comment="kpoint 84">
       <r>   -3.5555    1.0000 </r>
       <r>   -0.7232    1.0000 </r>
       <r>    2.1962    1.0000 </r>
       <r>    3.4040    1.0000 </r>
       <r>    7.5932    0.0000 </r>
       <r>   10.1994    0.0000 </r>
       <r>   10.5470    0.0000 </r>
       <r>   11.8087    0.0000 </r>
      </set>
      <set comment="kpoint 85">
       <r>   -3.2743    1.0000 </r>
       <r>   -1.0925    1.0000 </r>
       <r>    1.9640    1.0000 </r>
       <r>    3.4894    1.0000 </r>
       <r>    7.7271    0.0000 </r>
       <r>   10.0501    0.0000 </r>
       <r>   11.6517    0.0000 </r>
       <r>   11.7703    0.0000 </r>
      </set>
      <set comment="kpoint 86">
       <r>   -3.4510    1.0000 </r>
       <r>   -0.8572    1.0000 </r>
       <r>    1.8504    1.0000 </r>
       <r>    3.6757    1.0000 </r>
       <r>    7.9455    0.0000 </r>
       <r>    9.9034    0.0000 </r>
       <r>   11.5760    0.0000 </r>
       <r>   12.3240    0.0000 </r>
      </set>
      <set comment="kpoint 87">
       <r>   -3.9055    1.0000 </r>
       <r>   -0.2251    1.0000 </r>
       <r>    1.8992    1.0000 </r>
       <r>    3.9409    1.0000 </r>
       <r>    8.2375    0.0000 </r>
       <r>    9.7526    0.0000 </r>
       <r>   11.1907    0.0000 </r>
       <r>   11.5365    0.0000 </r>
      </set>
      <set comment="kpoint 88">
       <r>   -4.3921    1.0000 </r>
       <r>    0.4693    1.0000 </r>
       <r>    2.1997    1.0000 </r>
       <r>    4.2510    1.0000 </r>
       <r>    8.5575    0.0000 </r>
       <r>    9.3905    0.0000 </r>
       <r>   10.6503    0.0000 </r>
       <r>   11.1082    0.0000 </r>
      </set>
      <set comment="kpoint 89">
       <r>   -4.2664    1.0000 </r>
       <r>    0.5162    1.0000 </r>
       <r>    2.9695    1.0000 </r>
       <r>    3.2521    1.0000 </r>
       <r>    6.8106    0.0000 </r>
       <r>    7.9482    0.0000 </r>
       <r>   11.9492    0.0000 </r>
       <r>   12.7589    0.0000 </r>
      </set>
      <set comment="kpoint 90">
       <r>   -3.8073    1.0000 </r>
       <r>   -0.1409    1.0000 </r>
       <r>    2.4961    1.0000 </r>
       <r>    3.0899    1.0000 </r>
       <r>    7.0891    0.0000 </r>
       <r>    8.1856    0.0000 </r>
       <r>   11.7592    0.0000 </r>
       <r>   13.0965    0.0000 </r>
      </set>
      <set comment="kpoint 91">
       <r>   -3.3122    1.0000 </r>
       <r>   -0.7686    1.0000 </r>
       <r>    2.0029    1.0000 </r>
       <r>    3.0618    1.0000 </r>
       <r>    7.2165    0.0000 </r>
       <r>    9.0281    0.0000 </r>
       <r>   11.5177    0.0000 </r>
       <r>   13.0867    0.0000 </r>
      </set>
      <set comment="kpoint 92">
       <r>   -2.9334    1.0000 </r>
       <r>   -1.2011    1.0000 </r>
       <r>    1.6195    1.0000 </r>
       <r>    3.1510    1.0000 </r>
       <r>    7.3530    0.0000 </r>
       <r>   10.1667    0.0000 </r>
       <r>   11.3070    0.0000 </r>
       <r>   12.9461    0.0000 </r>
      </set>
      <set comment="kpoint 93">
       <r>   -2.9981    1.0000 </r>
       <r>   -1.1200    1.0000 </r>
       <r>    1.4187    1.0000 </r>
       <r>    3.3415    1.0000 </r>
       <r>    7.5747    0.0000 </r>
       <r>   10.9417    0.0000 </r>
       <r>   11.6257    0.0000 </r>
       <r>   12.3485    0.0000 </r>
      </set>
      <set comment="kpoint 94">
       <r>   -3.4217    1.0000 </r>
       <r>   -0.6649    1.0000 </r>
       <r>    1.4803    1.0000 </r>
       <r>    3.6150    1.0000 </r>
       <r>    7.8819    0.0000 </r>
       <r>   10.6000    0.0000 </r>
       <r>   11.4522    0.0000 </r>
       <r>   12.3313    0.0000 </r>
      </set>
      <set comment="kpoint 95">
       <r>   -3.4832    1.0000 </r>
       <r>   -0.5565    1.0000 </r>
       <r>    2.7184    1.0000 </r>
       <r>    2.8770    1.0000 </r>
       <r>    6.6614    0.0000 </r>
       <r>    7.3153    0.0000 </r>
       <r>   13.0657    0.0000 </r>
       <r>   14.0127    0.0000 </r>
      </set>
      <set comment="kpoint 96">
       <r>   -2.9894    1.0000 </r>
       <r>   -1.1096    1.0000 </r>
       <r>    2.2280    1.0000 </r>
       <r>    2.8050    1.0000 </r>
       <r>    6.9224    0.0000 </r>
       <r>    7.7846    0.0000 </r>
       <r>   12.8512    0.0000 </r>
       <r>   14.3132    0.0000 </r>
      </set>
      <set comment="kpoint 97">
       <r>   -2.5490    1.0000 </r>
       <r>   -1.5423    1.0000 </r>
       <r>    1.7164    1.0000 </r>
       <r>    2.8856    1.0000 </r>
       <r>    7.0583    0.0000 </r>
       <r>    8.8232    0.0000 </r>
       <r>   12.5995    0.0000 </r>
       <r>   13.7801    0.0000 </r>
      </set>
      <set comment="kpoint 98">
       <r>   -2.5809    1.0000 </r>
       <r>   -1.4854    1.0000 </r>
       <r>    1.3986    1.0000 </r>
       <r>    3.0697    1.0000 </r>
       <r>    7.2694    0.0000 </r>
       <r>   10.0869    0.0000 </r>
       <r>   12.1957    0.0000 </r>
       <r>   12.6689    0.0000 </r>
      </set>
      <set comment="kpoint 99">
       <r>   -2.5885    1.0000 </r>
       <r>   -1.6034    1.0000 </r>
       <r>    2.6149    1.0000 </r>
       <r>    2.6659    1.0000 </r>
       <r>    6.6839    0.0000 </r>
       <r>    6.8966    0.0000 </r>
       <r>   14.2299    0.0000 </r>
       <r>   15.0803    0.0000 </r>
      </set>
      <set comment="kpoint 100">
       <r>   -2.1715    1.0000 </r>
       <r>   -1.9813    1.0000 </r>
       <r>    2.1356    1.0000 </r>
       <r>    2.7129    1.0000 </r>
       <r>    6.8687    0.0000 </r>
       <r>    7.6479    0.0000 </r>
       <r>   13.9197    0.0000 </r>
       <r>   14.1027    0.0000 </r>
      </set>
      <set comment="kpoint 101">
       <r>   -4.7210    1.0000 </r>
       <r>    1.0633    1.0000 </r>
       <r>    2.7745    1.0000 </r>
       <r>    4.0559    1.0000 </r>
       <r>    8.1170    0.0000 </r>
       <r>    9.4584    0.0000 </r>
       <r>    9.7490    0.0000 </r>
       <r>   11.3505    0.0000 </r>
      </set>
      <set comment="kpoint 102">
       <r>   -4.2640    1.0000 </r>
       <r>    0.2996    1.0000 </r>
       <r>    2.3801    1.0000 </r>
       <r>    3.7806    1.0000 </r>
       <r>    8.4370    0.0000 </r>
       <r>    9.4070    0.0000 </r>
       <r>    9.8901    0.0000 </r>
       <r>   11.7092    0.0000 </r>
      </set>
      <set comment="kpoint 103">
       <r>   -3.7715    1.0000 </r>
       <r>   -0.4639    1.0000 </r>
       <r>    2.1817    1.0000 </r>
       <r>    3.5444    1.0000 </r>
       <r>    8.5651    0.0000 </r>
       <r>    9.1136    0.0000 </r>
       <r>   10.7851    0.0000 </r>
       <r>   11.7916    0.0000 </r>
      </set>
      <set comment="kpoint 104">
       <r>   -3.3816    1.0000 </r>
       <r>   -1.0061    1.0000 </r>
       <r>    2.1015    1.0000 </r>
       <r>    3.4107    1.0000 </r>
       <r>    8.6794    0.0000 </r>
       <r>    8.8671    0.0000 </r>
       <r>   11.7635    0.0000 </r>
       <r>   11.9719    0.0000 </r>
      </set>
      <set comment="kpoint 105">
       <r>   -4.0847    1.0000 </r>
       <r>    0.2114    1.0000 </r>
       <r>    2.4090    1.0000 </r>
       <r>    3.3089    1.0000 </r>
       <r>    7.8337    0.0000 </r>
       <r>    8.7845    0.0000 </r>
       <r>   10.5118    0.0000 </r>
       <r>   12.6665    0.0000 </r>
      </set>
      <set comment="kpoint 106">
       <r>   -3.5960    1.0000 </r>
       <r>   -0.4273    1.0000 </r>
       <r>    2.0398    1.0000 </r>
       <r>    3.0586    1.0000 </r>
       <r>    8.1554    0.0000 </r>
       <r>    9.3269    0.0000 </r>
       <r>   10.2373    0.0000 </r>
       <r>   13.0344    0.0000 </r>
      </set>
      <set comment="kpoint 107">
       <r>   -3.1417    1.0000 </r>
       <r>   -0.9855    1.0000 </r>
       <r>    1.7862    1.0000 </r>
       <r>    2.9432    1.0000 </r>
       <r>    8.2987    0.0000 </r>
       <r>    9.8626    0.0000 </r>
       <r>   10.4948    0.0000 </r>
       <r>   13.0790    0.0000 </r>
      </set>
      <set comment="kpoint 108">
       <r>   -2.9929    1.0000 </r>
       <r>   -1.1567    1.0000 </r>
       <r>    1.6442    1.0000 </r>
       <r>    2.9878    1.0000 </r>
       <r>    8.4826    0.0000 </r>
       <r>    9.6824    0.0000 </r>
       <r>   11.6565    0.0000 </r>
       <r>   12.0987    0.0000 </r>
      </set>
      <set comment="kpoint 109">
       <r>   -3.3108    1.0000 </r>
       <r>   -0.7811    1.0000 </r>
       <r>    1.6487    1.0000 </r>
       <r>    3.1724    1.0000 </r>
       <r>    8.7442    0.0000 </r>
       <r>    9.5019    0.0000 </r>
       <r>   10.7830    0.0000 </r>
       <r>   12.9142    0.0000 </r>
      </set>
      <set comment="kpoint 110">
       <r>   -3.7954    1.0000 </r>
       <r>   -0.2106    1.0000 </r>
       <r>    1.8706    1.0000 </r>
       <r>    3.4578    1.0000 </r>
       <r>    9.0699    0.0000 </r>
       <r>    9.1420    0.0000 </r>
       <r>   10.0056    0.0000 </r>
       <r>   12.5257    0.0000 </r>
      </set>
      <set comment="kpoint 111">
       <r>   -3.3343    1.0000 </r>
       <r>   -0.6784    1.0000 </r>
       <r>    2.2021    1.0000 </r>
       <r>    2.7179    1.0000 </r>
       <r>    7.6810    0.0000 </r>
       <r>    8.2214    0.0000 </r>
       <r>   11.4871    0.0000 </r>
       <r>   13.9915    0.0000 </r>
      </set>
      <set comment="kpoint 112">
       <r>   -2.8464    1.0000 </r>
       <r>   -1.1890    1.0000 </r>
       <r>    1.8392    1.0000 </r>
       <r>    2.5603    1.0000 </r>
       <r>    7.9738    0.0000 </r>
       <r>    9.0002    0.0000 </r>
       <r>   11.2097    0.0000 </r>
       <r>   13.5313    0.0000 </r>
      </set>
      <set comment="kpoint 113">
       <r>   -2.5757    1.0000 </r>
       <r>   -1.4522    1.0000 </r>
       <r>    1.5309    1.0000 </r>
       <r>    2.6308    1.0000 </r>
       <r>    8.1535    0.0000 </r>
       <r>   10.1519    0.0000 </r>
       <r>   11.0122    0.0000 </r>
       <r>   12.1469    0.0000 </r>
      </set>
      <set comment="kpoint 114">
       <r>   -2.8418    1.0000 </r>
       <r>   -1.1847    1.0000 </r>
       <r>    1.4349    1.0000 </r>
       <r>    2.8494    1.0000 </r>
       <r>    8.4110    0.0000 </r>
       <r>   10.4487    0.0000 </r>
       <r>   11.0291    0.0000 </r>
       <r>   11.7375    0.0000 </r>
      </set>
      <set comment="kpoint 115">
       <r>   -2.4926    1.0000 </r>
       <r>   -1.5930    1.0000 </r>
       <r>    2.1722    1.0000 </r>
       <r>    2.3384    1.0000 </r>
       <r>    7.6829    0.0000 </r>
       <r>    7.8579    0.0000 </r>
       <r>   12.5751    0.0000 </r>
       <r>   13.7545    0.0000 </r>
      </set>
      <set comment="kpoint 116">
       <r>   -2.1954    1.0000 </r>
       <r>   -1.8413    1.0000 </r>
       <r>    1.7749    1.0000 </r>
       <r>    2.3833    1.0000 </r>
       <r>    7.9116    0.0000 </r>
       <r>    8.8914    0.0000 </r>
       <r>   12.2442    0.0000 </r>
       <r>   12.3967    0.0000 </r>
      </set>
      <set comment="kpoint 117">
       <r>   -3.1085    1.0000 </r>
       <r>   -0.8974    1.0000 </r>
       <r>    1.7279    1.0000 </r>
       <r>    2.6950    1.0000 </r>
       <r>    9.0000    0.0000 </r>
       <r>    9.3971    0.0000 </r>
       <r>    9.9893    0.0000 </r>
       <r>   13.3211    0.0000 </r>
      </set>
      <set comment="kpoint 118">
       <r>   -2.6872    1.0000 </r>
       <r>   -1.3188    1.0000 </r>
       <r>    1.5903    1.0000 </r>
       <r>    2.4789    1.0000 </r>
       <r>    9.2689    0.0000 </r>
       <r>    9.5923    0.0000 </r>
       <r>   10.5293    0.0000 </r>
       <r>   11.8920    0.0000 </r>
      </set>
      <set comment="kpoint 119">
       <r>   -2.3674    1.0000 </r>
       <r>   -1.6178    1.0000 </r>
       <r>    1.8024    1.0000 </r>
       <r>    2.1232    1.0000 </r>
       <r>    8.9918    0.0000 </r>
       <r>    9.1320    0.0000 </r>
       <r>   10.9306    0.0000 </r>
       <r>   12.0650    0.0000 </r>
      </set>
      <set comment="kpoint 120">
       <r>   -2.2577    1.0000 </r>
       <r>   -1.7054    1.0000 </r>
       <r>    1.6517    1.0000 </r>
       <r>    2.1420    1.0000 </r>
       <r>    9.2421    0.0000 </r>
       <r>   10.1298    0.0000 </r>
       <r>   10.7760    0.0000 </r>
       <r>   10.8268    0.0000 </r>
      </set>
     </set>
    </set>
   </array>
  </eigenvalues>
  <separator name="orbital magnetization" >
   <v name="MAGDIPOLOUT">      0.00000000      0.00000000      0.00000000</v>
  </separator>
  <dos>
   <i name="efermi">      5.83556494 </i>
   <total>
    <array>
     <dimension dim="1">gridpoints</dimension>
     <dimension dim="2">spin</dimension>
     <field>energy</field>
     <field>total</field>
     <field>integrated</field>
     <set>
      <set comment="spin 1">
       <r>    -7.2751     0.0000     0.0000 </r>
       <r>    -7.1962     0.0000     0.0000 </r>
       <r>    -7.1172     0.0000     0.0000 </r>
       <r>    -7.0382     0.0000     0.0000 </r>
       <r>    -6.9593     0.0000     0.0000 </r>
       <r>    -6.8803     0.0000     0.0000 </r>
       <r>    -6.8013     0.0000     0.0000 </r>
       <r>    -6.7224     0.0000     0.0000 </r>
       <r>    -6.6434     0.0000     0.0000 </r>
       <r>    -6.5645     0.0000     0.0000 </r>
       <r>    -6.4855     0.0000     0.0000 </r>
       <r>    -6.4065     0.0000     0.0000 </r>
       <r>    -6.3276     0.0000     0.0000 </r>
       <r>    -6.2486     0.0007     0.0001 </r>
       <r>    -6.1696     0.0219     0.0018 </r>
       <r>    -6.0907     0.0866     0.0086 </r>
       <r>    -6.0117     0.1325     0.0191 </r>
       <r>    -5.9327     0.1892     0.0340 </r>
       <r>    -5.8538     0.1402     0.0451 </r>
       <r>    -5.7748     0.2885     0.0679 </r>
       <r>    -5.6958     0.2504     0.0876 </r>
       <r>    -5.6169     0.1835     0.1021 </r>
       <r>    -5.5379     0.3217     0.1275 </r>
       <r>    -5.4589     0.3829     0.1578 </r>
       <r>    -5.3800     0.3162     0.1827 </r>
       <r>    -5.3010     0.2231     0.2004 </r>
       <r>    -5.2220     0.3805     0.2304 </r>
       <r>    -5.1431     0.4793     0.2683 </r>
       <r>    -5.0641     0.5078     0.3083 </r>
       <r>    -4.9851     0.1992     0.3241 </r>
       <r>    -4.9062     0.4240     0.3576 </r>
       <r>    -4.8272     0.5265     0.3991 </r>
       <r>    -4.7482     0.4446     0.4342 </r>
       <r>    -4.6693     0.6116     0.4825 </r>
       <r>    -4.5903     0.5569     0.5265 </r>
       <r>    -4.5114     0.2876     0.5492 </r>
       <r>    -4.4324     0.5367     0.5916 </r>
       <r>    -4.3534     0.6391     0.6421 </r>
       <r>    -4.2745     0.6769     0.6955 </r>
       <r>    -4.1955     0.7769     0.7569 </r>
       <r>    -4.1165     0.6325     0.8068 </r>
       <r>    -4.0376     0.4536     0.8426 </r>
       <r>    -3.9586     0.6072     0.8906 </r>
       <r>    -3.8796     1.0489     0.9734 </r>
       <r>    -3.8007     1.2015     1.0683 </r>
       <r>    -3.7217     0.9577     1.1439 </r>
       <r>    -3.6427     0.4311     1.1779 </r>
       <r>    -3.5638     0.6972     1.2330 </r>
       <r>    -3.4848     0.9275     1.3062 </r>
       <r>    -3.4058     0.8634     1.3744 </r>
       <r>    -3.3269     0.7584     1.4343 </r>
       <r>    -3.2479     0.9284     1.5076 </r>
       <r>    -3.1689     0.2866     1.5302 </r>
       <r>    -3.0900     0.5571     1.5742 </r>
       <r>    -3.0110     0.5917     1.6210 </r>
       <r>    -2.9320     1.0681     1.7053 </r>
       <r>    -2.8531     0.4808     1.7433 </r>
       <r>    -2.7741     0.3284     1.7692 </r>
       <r>    -2.6952     0.2881     1.7920 </r>
       <r>    -2.6162     0.4097     1.8243 </r>
       <r>    -2.5372     0.9187     1.8969 </r>
       <r>    -2.4583     0.3749     1.9265 </r>
       <r>    -2.3793     0.1231     1.9362 </r>
       <r>    -2.3003     0.1893     1.9511 </r>
       <r>    -2.2214     0.1989     1.9668 </r>
       <r>    -2.1424     0.3363     1.9934 </r>
       <r>    -2.0634     0.1526     2.0054 </r>
       <r>    -1.9845     0.1047     2.0137 </r>
       <r>    -1.9055     0.1000     2.0216 </r>
       <r>    -1.8265     0.1180     2.0309 </r>
       <r>    -1.7476     0.1328     2.0414 </r>
       <r>    -1.6686     0.1957     2.0569 </r>
       <r>    -1.5896     0.5104     2.0972 </r>
       <r>    -1.5107     0.6040     2.1449 </r>
       <r>    -1.4317     0.4550     2.1808 </r>
       <r>    -1.3527     0.3029     2.2047 </r>
       <r>    -1.2738     0.3190     2.2299 </r>
       <r>    -1.1948     0.7022     2.2853 </r>
       <r>    -1.1158     1.8862     2.4343 </r>
       <r>    -1.0369     1.6766     2.5667 </r>
       <r>    -0.9579     1.1298     2.6559 </r>
       <r>    -0.8790     0.8047     2.7194 </r>
       <r>    -0.8000     0.6925     2.7741 </r>
       <r>    -0.7210     1.0723     2.8588 </r>
       <r>    -0.6421     0.9408     2.9331 </r>
       <r>    -0.5631     0.3902     2.9639 </r>
       <r>    -0.4841     0.6296     3.0136 </r>
       <r>    -0.4052     0.8546     3.0811 </r>
       <r>    -0.3262     0.2945     3.1044 </r>
       <r>    -0.2472     0.3243     3.1300 </r>
       <r>    -0.1683     0.9036     3.2013 </r>
       <r>    -0.0893     0.4463     3.2366 </r>
       <r>    -0.0103     0.3032     3.2605 </r>
       <r>     0.0686     0.5577     3.3045 </r>
       <r>     0.1476     0.4104     3.3369 </r>
       <r>     0.2266     0.1563     3.3493 </r>
       <r>     0.3055     0.2962     3.3727 </r>
       <r>     0.3845     0.7111     3.4288 </r>
       <r>     0.4635     0.4485     3.4642 </r>
       <r>     0.5424     0.2340     3.4827 </r>
       <r>     0.6214     0.0681     3.4881 </r>
       <r>     0.7004     0.2799     3.5102 </r>
       <r>     0.7793     0.5484     3.5535 </r>
       <r>     0.8583     0.2600     3.5740 </r>
       <r>     0.9373     0.0169     3.5754 </r>
       <r>     1.0162     0.1925     3.5906 </r>
       <r>     1.0952     0.6097     3.6387 </r>
       <r>     1.1741     0.3093     3.6631 </r>
       <r>     1.2531     0.0906     3.6703 </r>
       <r>     1.3321     0.2051     3.6865 </r>
       <r>     1.4110     0.4864     3.7249 </r>
       <r>     1.4900     0.9659     3.8012 </r>
       <r>     1.5690     0.7214     3.8581 </r>
       <r>     1.6479     1.3841     3.9674 </r>
       <r>     1.7269     1.2822     4.0687 </r>
       <r>     1.8059     1.1934     4.1629 </r>
       <r>     1.8848     1.4025     4.2736 </r>
       <r>     1.9638     0.8358     4.3396 </r>
       <r>     2.0428     0.6716     4.3927 </r>
       <r>     2.1217     0.7903     4.4551 </r>
       <r>     2.2007     1.6915     4.5887 </r>
       <r>     2.2797     1.3410     4.6946 </r>
       <r>     2.3586     0.7153     4.7510 </r>
       <r>     2.4376     0.8309     4.8166 </r>
       <r>     2.5166     0.9056     4.8882 </r>
       <r>     2.5955     1.3771     4.9969 </r>
       <r>     2.6745     1.7558     5.1356 </r>
       <r>     2.7535     1.3892     5.2453 </r>
       <r>     2.8324     1.0732     5.3300 </r>
       <r>     2.9114     1.5660     5.4537 </r>
       <r>     2.9903     1.5255     5.5741 </r>
       <r>     3.0693     1.4015     5.6848 </r>
       <r>     3.1483     1.8207     5.8286 </r>
       <r>     3.2272     1.1635     5.9204 </r>
       <r>     3.3062     0.8913     5.9908 </r>
       <r>     3.3852     1.4974     6.1091 </r>
       <r>     3.4641     2.4072     6.2992 </r>
       <r>     3.5431     1.3780     6.4080 </r>
       <r>     3.6221     1.2984     6.5105 </r>
       <r>     3.7010     0.9471     6.5853 </r>
       <r>     3.7800     1.0279     6.6665 </r>
       <r>     3.8590     1.3831     6.7757 </r>
       <r>     3.9379     1.2559     6.8748 </r>
       <r>     4.0169     1.4277     6.9876 </r>
       <r>     4.0959     1.3686     7.0956 </r>
       <r>     4.1748     0.8809     7.1652 </r>
       <r>     4.2538     1.3764     7.2739 </r>
       <r>     4.3328     1.4157     7.3857 </r>
       <r>     4.4117     0.6019     7.4332 </r>
       <r>     4.4907     1.3628     7.5408 </r>
       <r>     4.5697     1.1070     7.6282 </r>
       <r>     4.6486     0.4437     7.6633 </r>
       <r>     4.7276     0.5857     7.7095 </r>
       <r>     4.8065     0.7462     7.7684 </r>
       <r>     4.8855     0.3482     7.7959 </r>
       <r>     4.9645     0.2979     7.8195 </r>
       <r>     5.0434     0.6165     7.8681 </r>
       <r>     5.1224     0.4586     7.9044 </r>
       <r>     5.2014     0.3407     7.9313 </r>
       <r>     5.2803     0.2288     7.9493 </r>
       <r>     5.3593     0.2346     7.9679 </r>
       <r>     5.4383     0.1588     7.9804 </r>
       <r>     5.5172     0.0862     7.9872 </r>
       <r>     5.5962     0.1368     7.9980 </r>
       <r>     5.6752     0.0241     7.9999 </r>
       <r>     5.7541     0.0011     8.0000 </r>
       <r>     5.8331     0.0000     8.0000 </r>
       <r>     5.9121     0.0000     8.0000 </r>
       <r>     5.9910     0.0000     8.0000 </r>
       <r>     6.0700     0.0000     8.0000 </r>
       <r>     6.1490     0.0003     8.0000 </r>
       <r>     6.2279     0.0227     8.0018 </r>
       <r>     6.3069     0.0608     8.0066 </r>
       <r>     6.3859     0.1416     8.0178 </r>
       <r>     6.4648     0.2460     8.0372 </r>
       <r>     6.5438     0.2686     8.0584 </r>
       <r>     6.6228     0.1342     8.0690 </r>
       <r>     6.7017     0.5605     8.1133 </r>
       <r>     6.7807     0.4589     8.1495 </r>
       <r>     6.8596     0.3281     8.1754 </r>
       <r>     6.9386     0.7638     8.2358 </r>
       <r>     7.0176     0.5688     8.2807 </r>
       <r>     7.0965     0.8594     8.3485 </r>
       <r>     7.1755     0.6362     8.3988 </r>
       <r>     7.2545     0.4945     8.4378 </r>
       <r>     7.3334     0.7533     8.4973 </r>
       <r>     7.4124     0.8035     8.5608 </r>
       <r>     7.4914     0.8992     8.6318 </r>
       <r>     7.5703     1.4243     8.7442 </r>
       <r>     7.6493     1.1629     8.8361 </r>
       <r>     7.7283     1.1405     8.9261 </r>
       <r>     7.8072     1.5015     9.0447 </r>
       <r>     7.8862     1.3544     9.1516 </r>
       <r>     7.9652     2.4023     9.3413 </r>
       <r>     8.0441     1.6350     9.4704 </r>
       <r>     8.1231     1.1972     9.5650 </r>
       <r>     8.2021     1.7530     9.7034 </r>
       <r>     8.2810     1.6290     9.8320 </r>
       <r>     8.3600     0.6787     9.8856 </r>
       <r>     8.4390     0.7412     9.9442 </r>
       <r>     8.5179     1.2733    10.0447 </r>
       <r>     8.5969     0.9358    10.1186 </r>
       <r>     8.6758     0.9470    10.1934 </r>
       <r>     8.7548     0.7465    10.2523 </r>
       <r>     8.8338     1.6541    10.3829 </r>
       <r>     8.9127     2.7090    10.5969 </r>
       <r>     8.9917     2.1983    10.7704 </r>
       <r>     9.0707     2.0444    10.9319 </r>
       <r>     9.1496     2.0341    11.0925 </r>
       <r>     9.2286     1.6060    11.2193 </r>
       <r>     9.3076     1.5824    11.3443 </r>
       <r>     9.3865     1.6349    11.4734 </r>
       <r>     9.4655     2.0031    11.6316 </r>
       <r>     9.5445     1.4376    11.7451 </r>
       <r>     9.6234     1.0796    11.8303 </r>
       <r>     9.7024     1.2227    11.9269 </r>
       <r>     9.7814     1.0769    12.0119 </r>
       <r>     9.8603     1.0404    12.0941 </r>
       <r>     9.9393     1.3879    12.2037 </r>
       <r>    10.0183     0.9354    12.2775 </r>
       <r>    10.0972     1.2723    12.3780 </r>
       <r>    10.1762     1.7605    12.5170 </r>
       <r>    10.2552     1.7623    12.6562 </r>
       <r>    10.3341     0.7139    12.7126 </r>
       <r>    10.4131     0.6225    12.7617 </r>
       <r>    10.4920     1.2973    12.8642 </r>
       <r>    10.5710     2.2560    13.0423 </r>
       <r>    10.6500     1.2094    13.1378 </r>
       <r>    10.7289     1.5978    13.2640 </r>
       <r>    10.8079     1.8275    13.4083 </r>
       <r>    10.8869     0.9636    13.4844 </r>
       <r>    10.9658     1.2208    13.5808 </r>
       <r>    11.0448     1.0074    13.6603 </r>
       <r>    11.1238     0.5514    13.7039 </r>
       <r>    11.2027     0.7737    13.7650 </r>
       <r>    11.2817     0.7584    13.8248 </r>
       <r>    11.3607     0.8275    13.8902 </r>
       <r>    11.4396     0.7728    13.9512 </r>
       <r>    11.5186     0.7833    14.0131 </r>
       <r>    11.5976     1.4553    14.1280 </r>
       <r>    11.6765     1.4076    14.2391 </r>
       <r>    11.7555     1.3991    14.3496 </r>
       <r>    11.8345     1.7693    14.4893 </r>
       <r>    11.9134     1.3819    14.5985 </r>
       <r>    11.9924     1.1388    14.6884 </r>
       <r>    12.0714     0.9358    14.7623 </r>
       <r>    12.1503     0.6930    14.8170 </r>
       <r>    12.2293     0.5179    14.8579 </r>
       <r>    12.3082     0.4506    14.8935 </r>
       <r>    12.3872     1.0534    14.9767 </r>
       <r>    12.4662     0.3733    15.0061 </r>
       <r>    12.5451     0.5077    15.0462 </r>
       <r>    12.6241     0.7165    15.1028 </r>
       <r>    12.7031     0.6094    15.1509 </r>
       <r>    12.7820     0.5855    15.1972 </r>
       <r>    12.8610     0.6320    15.2471 </r>
       <r>    12.9400     0.9017    15.3183 </r>
       <r>    13.0189     0.5572    15.3623 </r>
       <r>    13.0979     1.5000    15.4807 </r>
       <r>    13.1769     0.9434    15.5552 </r>
       <r>    13.2558     0.2878    15.5779 </r>
       <r>    13.3348     0.4438    15.6130 </r>
       <r>    13.4138     0.3584    15.6413 </r>
       <r>    13.4927     0.5314    15.6832 </r>
       <r>    13.5717     0.5374    15.7257 </r>
       <r>    13.6507     0.1310    15.7360 </r>
       <r>    13.7296     0.1772    15.7500 </r>
       <r>    13.8086     0.4654    15.7868 </r>
       <r>    13.8876     0.1215    15.7964 </r>
       <r>    13.9665     0.1976    15.8120 </r>
       <r>    14.0455     0.3467    15.8393 </r>
       <r>    14.1245     0.2349    15.8579 </r>
       <r>    14.2034     0.2681    15.8791 </r>
       <r>    14.2824     0.3256    15.9048 </r>
       <r>    14.3613     0.6536    15.9564 </r>
       <r>    14.4403     0.1017    15.9644 </r>
       <r>    14.5193     0.0004    15.9644 </r>
       <r>    14.5982     0.0000    15.9644 </r>
       <r>    14.6772     0.0000    15.9644 </r>
       <r>    14.7562     0.0000    15.9644 </r>
       <r>    14.8351     0.0000    15.9644 </r>
       <r>    14.9141     0.0000    15.9644 </r>
       <r>    14.9931     0.0012    15.9645 </r>
       <r>    15.0720     0.0722    15.9702 </r>
       <r>    15.1510     0.1163    15.9794 </r>
       <r>    15.2300     0.1253    15.9893 </r>
       <r>    15.3089     0.0635    15.9943 </r>
       <r>    15.3879     0.0648    15.9994 </r>
       <r>    15.4669     0.0070    16.0000 </r>
       <r>    15.5458     0.0000    16.0000 </r>
       <r>    15.6248     0.0000    16.0000 </r>
       <r>    15.7038     0.0000    16.0000 </r>
       <r>    15.7827     0.0000    16.0000 </r>
       <r>    15.8617     0.0000    16.0000 </r>
       <r>    15.9407     0.0000    16.0000 </r>
       <r>    16.0196     0.0000    16.0000 </r>
       <r>    16.0986     0.0000    16.0000 </r>
       <r>    16.1775     0.0000    16.0000 </r>
       <r>    16.2565     0.0000    16.0000 </r>
       <r>    16.3355     0.0000    16.0000 </r>
       <r>    16.4144     0.0000    16.0000 </r>
      </set>
     </set>
    </array>
   </total>
  </dos>
 </calculation>
 <structure name="finalpos" >
  <crystal>
   <varray name="basis" >
    <v>       3.34874768       0.00000000       1.93340010 </v>
    <v>       1.11624923       3.15723085       1.93340010 </v>
    <v>       0.00000000      -0.00000000       3.86680021 </v>
   </varray>
   <i name="volume">     40.88278723 </i>
   <varray name="rec_basis" >
    <v>       0.29861909      -0.10557775      -0.00000000 </v>
    <v>      -0.00000000       0.31673325       0.00000000 </v>
    <v>      -0.14930955      -0.10557775       0.25861176 </v>
   </varray>
  </crystal>
  <varray name="positions" >
   <v>       0.87500000       0.87500000       0.87500000 </v>
   <v>       0.12500000       0.12500000       0.12500000 </v>
  </varray>
 </structure>
</modeling>
