   1   1   0   0
  0.1386300E+02  0.2621157E-09  0.2621157E-09  0.2621157E-09  0.5000000E-15
  1.000000000000000E-004
  CAR 
 unknown system                          
     36.59635060     -6.25600142  301      9.91068874      1.00000000
     -6.256  0.0000E+00  0.0000E+00
     -6.113  0.0000E+00  0.0000E+00
     -5.970  0.0000E+00  0.0000E+00
     -5.827  0.0000E+00  0.0000E+00
     -5.685  0.0000E+00  0.0000E+00
     -5.542  0.0000E+00  0.0000E+00
     -5.399  0.0000E+00  0.0000E+00
     -5.256  0.0000E+00  0.0000E+00
     -5.113  0.0000E+00  0.0000E+00
     -4.970  0.0000E+00  0.0000E+00
     -4.828  0.0000E+00  0.0000E+00
     -4.685  0.0000E+00  0.0000E+00
     -4.542  0.7909E-15  0.1130E-15
     -4.399  0.2103E-06  0.3005E-07
     -4.256  0.4260E-04  0.6115E-05
     -4.113  0.4757E-03  0.7407E-04
     -3.971  0.2840E-03  0.1146E-03
     -3.828  0.9778E-03  0.2543E-03
     -3.685  0.5470E-03  0.3324E-03
     -3.542  0.9679E-03  0.4707E-03
     -3.399  0.5306E-03  0.5465E-03
     -3.256  0.1808E-02  0.8047E-03
     -3.113  0.5214E-03  0.8792E-03
     -2.971  0.1455E-02  0.1087E-02
     -2.828  0.1070E-02  0.1240E-02
     -2.685  0.1077E-02  0.1394E-02
     -2.542  0.2099E-02  0.1694E-02
     -2.399  0.1461E-02  0.1902E-02
     -2.256  0.1350E-02  0.2095E-02
     -2.114  0.1019E-02  0.2241E-02
     -1.971  0.1755E-02  0.2491E-02
     -1.828  0.1455E-02  0.2699E-02
     -1.685  0.2887E-02  0.3112E-02
     -1.542  0.1215E-02  0.3285E-02
     -1.399  0.1978E-02  0.3568E-02
     -1.257  0.1102E-02  0.3725E-02
     -1.114  0.1927E-02  0.4000E-02
     -0.971  0.7096E-03  0.4102E-02
     -0.828  0.3261E-02  0.4568E-02
     -0.685  0.1769E-02  0.4820E-02
     -0.542  0.3685E-02  0.5347E-02
     -0.400  0.1774E-02  0.5600E-02
     -0.257  0.5807E-03  0.5683E-02
     -0.114  0.2482E-02  0.6038E-02
      0.029  0.1681E-02  0.6278E-02
      0.172  0.3257E-02  0.6743E-02
      0.315  0.2525E-02  0.7104E-02
      0.458  0.2098E-02  0.7403E-02
      0.600  0.1665E-02  0.7641E-02
      0.743  0.4866E-02  0.8336E-02
      0.886  0.1205E-02  0.8508E-02
      1.029  0.1973E-02  0.8790E-02
      1.172  0.1232E-02  0.8966E-02
      1.315  0.2168E-02  0.9276E-02
      1.457  0.3295E-02  0.9746E-02
      1.600  0.3627E-02  0.1026E-01
      1.743  0.3514E-02  0.1077E-01
      1.886  0.2002E-02  0.1105E-01
      2.029  0.3210E-02  0.1151E-01
      2.172  0.1668E-02  0.1175E-01
      2.314  0.4322E-02  0.1237E-01
      2.457  0.1545E-02  0.1259E-01
      2.600  0.2144E-02  0.1289E-01
      2.743  0.3130E-02  0.1334E-01
      2.886  0.2863E-02  0.1375E-01
      3.029  0.2846E-02  0.1416E-01
      3.172  0.5115E-02  0.1489E-01
      3.314  0.1218E-02  0.1506E-01
      3.457  0.4009E-02  0.1563E-01
      3.600  0.2683E-02  0.1602E-01
      3.743  0.3138E-02  0.1646E-01
      3.886  0.4083E-02  0.1705E-01
      4.029  0.2350E-02  0.1738E-01
      4.171  0.2527E-02  0.1774E-01
      4.314  0.2125E-02  0.1805E-01
      4.457  0.3261E-02  0.1851E-01
      4.600  0.3388E-02  0.1900E-01
      4.743  0.6020E-02  0.1986E-01
      4.886  0.2656E-02  0.2024E-01
      5.028  0.2063E-02  0.2053E-01
      5.171  0.2967E-02  0.2096E-01
      5.314  0.2181E-02  0.2127E-01
      5.457  0.6383E-02  0.2218E-01
      5.600  0.2756E-02  0.2257E-01
      5.743  0.4720E-02  0.2325E-01
      5.885  0.4050E-02  0.2383E-01
      6.028  0.2184E-02  0.2414E-01
      6.171  0.2414E-02  0.2448E-01
      6.314  0.4020E-02  0.2506E-01
      6.457  0.1265E-02  0.2524E-01
      6.600  0.5071E-02  0.2596E-01
      6.743  0.4987E-02  0.2667E-01
      6.885  0.3278E-02  0.2714E-01
      7.028  0.6714E-02  0.2810E-01
      7.171  0.2489E-02  0.2846E-01
      7.314  0.3174E-02  0.2891E-01
      7.457  0.3751E-02  0.2945E-01
      7.600  0.3679E-02  0.2997E-01
      7.742  0.4069E-02  0.3055E-01
      7.885  0.6101E-02  0.3142E-01
      8.028  0.3775E-02  0.3196E-01
      8.171  0.1020E-02  0.3211E-01
      8.314  0.2216E-02  0.3243E-01
      8.457  0.4581E-02  0.3308E-01
      8.599  0.6946E-02  0.3407E-01
      8.742  0.4376E-02  0.3470E-01
      8.885  0.3579E-02  0.3521E-01
      9.028  0.5172E-02  0.3595E-01
      9.171  0.4150E-02  0.3654E-01
      9.314  0.5753E-02  0.3736E-01
      9.457  0.3505E-02  0.3786E-01
      9.599  0.5673E-02  0.3867E-01
      9.742  0.5456E-02  0.3945E-01
      9.885  0.3095E-02  0.3989E-01
     10.028  0.4719E-02  0.4057E-01
     10.171  0.2776E-02  0.4096E-01
     10.314  0.3967E-02  0.4153E-01
     10.456  0.4052E-02  0.4211E-01
     10.599  0.5329E-02  0.4287E-01
     10.742  0.4490E-02  0.4351E-01
     10.885  0.5886E-02  0.4435E-01
     11.028  0.7515E-02  0.4543E-01
     11.171  0.1637E-02  0.4566E-01
     11.313  0.3398E-02  0.4615E-01
     11.456  0.1512E-02  0.4636E-01
     11.599  0.6163E-02  0.4724E-01
     11.742  0.7291E-02  0.4828E-01
     11.885  0.2391E-02  0.4862E-01
     12.028  0.5510E-02  0.4941E-01
     12.171  0.5208E-02  0.5016E-01
     12.313  0.2325E-02  0.5049E-01
     12.456  0.3663E-02  0.5101E-01
     12.599  0.1712E-02  0.5126E-01
     12.742  0.5660E-02  0.5206E-01
     12.885  0.2891E-02  0.5248E-01
     13.028  0.7298E-02  0.5352E-01
     13.170  0.4768E-02  0.5420E-01
     13.313  0.4496E-02  0.5484E-01
     13.456  0.8474E-02  0.5605E-01
     13.599  0.4413E-02  0.5668E-01
     13.742  0.4675E-02  0.5735E-01
     13.885  0.3721E-02  0.5788E-01
     14.027  0.4010E-02  0.5846E-01
     14.170  0.4601E-02  0.5911E-01
     14.313  0.3864E-02  0.5967E-01
     14.456  0.5675E-02  0.6048E-01
     14.599  0.8135E-02  0.6164E-01
     14.742  0.2226E-02  0.6196E-01
     14.884  0.4884E-02  0.6265E-01
     15.027  0.2712E-02  0.6304E-01
     15.170  0.6957E-02  0.6403E-01
     15.313  0.4731E-02  0.6471E-01
     15.456  0.5684E-02  0.6552E-01
     15.599  0.6896E-02  0.6651E-01
     15.742  0.4456E-02  0.6714E-01
     15.884  0.5748E-02  0.6796E-01
     16.027  0.5249E-02  0.6871E-01
     16.170  0.8752E-02  0.6996E-01
     16.313  0.5602E-02  0.7077E-01
     16.456  0.2036E-02  0.7106E-01
     16.599  0.7263E-02  0.7209E-01
     16.741  0.2774E-02  0.7249E-01
     16.884  0.2669E-02  0.7287E-01
     17.027  0.3852E-02  0.7342E-01
     17.170  0.6697E-02  0.7438E-01
     17.313  0.8783E-02  0.7563E-01
     17.456  0.1307E-01  0.7750E-01
     17.598  0.6736E-02  0.7846E-01
     17.741  0.4670E-02  0.7913E-01
     17.884  0.2879E-02  0.7954E-01
     18.027  0.6260E-02  0.8043E-01
     18.170  0.5449E-02  0.8121E-01
     18.313  0.5127E-02  0.8195E-01
     18.456  0.3081E-02  0.8239E-01
     18.598  0.1715E-02  0.8263E-01
     18.741  0.3855E-02  0.8318E-01
     18.884  0.3551E-02  0.8369E-01
     19.027  0.1126E-02  0.8385E-01
     19.170  0.6196E-02  0.8473E-01
     19.313  0.5530E-02  0.8552E-01
     19.455  0.4503E-02  0.8617E-01
     19.598  0.4175E-02  0.8676E-01
     19.741  0.7865E-02  0.8789E-01
     19.884  0.6747E-02  0.8885E-01
     20.027  0.3471E-02  0.8935E-01
     20.170  0.2674E-02  0.8973E-01
     20.312  0.1003E-01  0.9116E-01
     20.455  0.4417E-02  0.9179E-01
     20.598  0.3010E-02  0.9222E-01
     20.741  0.6639E-02  0.9317E-01
     20.884  0.3962E-02  0.9374E-01
     21.027  0.6849E-02  0.9471E-01
     21.170  0.7507E-02  0.9579E-01
     21.312  0.4314E-02  0.9640E-01
     21.455  0.4788E-02  0.9709E-01
     21.598  0.6269E-02  0.9798E-01
     21.741  0.9317E-02  0.9931E-01
     21.884  0.8356E-02  0.1005E+00
     22.027  0.1405E-01  0.1025E+00
     22.169  0.6932E-02  0.1035E+00
     22.312  0.7072E-02  0.1045E+00
     22.455  0.8402E-02  0.1057E+00
     22.598  0.5832E-02  0.1065E+00
     22.741  0.2416E-02  0.1069E+00
     22.884  0.1388E-02  0.1071E+00
     23.026  0.3405E-02  0.1076E+00
     23.169  0.8970E-02  0.1089E+00
     23.312  0.6759E-02  0.1098E+00
     23.455  0.1034E-01  0.1113E+00
     23.598  0.3382E-02  0.1118E+00
     23.741  0.6863E-02  0.1128E+00
     23.883  0.4785E-02  0.1134E+00
     24.026  0.4275E-02  0.1141E+00
     24.169  0.4667E-02  0.1147E+00
     24.312  0.2792E-02  0.1151E+00
     24.455  0.7136E-02  0.1161E+00
     24.598  0.5286E-02  0.1169E+00
     24.741  0.1179E-01  0.1186E+00
     24.883  0.5834E-02  0.1194E+00
     25.026  0.5342E-02  0.1202E+00
     25.169  0.3967E-02  0.1207E+00
     25.312  0.7326E-02  0.1218E+00
     25.455  0.5421E-02  0.1226E+00
     25.598  0.5840E-02  0.1234E+00
     25.740  0.7976E-02  0.1245E+00
     25.883  0.3037E-02  0.1250E+00
     26.026  0.7401E-02  0.1260E+00
     26.169  0.3959E-02  0.1266E+00
     26.312  0.7084E-02  0.1276E+00
     26.455  0.5571E-02  0.1284E+00
     26.597  0.7835E-02  0.1295E+00
     26.740  0.7146E-02  0.1305E+00
     26.883  0.4741E-02  0.1312E+00
     27.026  0.9835E-02  0.1326E+00
     27.169  0.4498E-02  0.1333E+00
     27.312  0.7031E-02  0.1343E+00
     27.455  0.6554E-02  0.1352E+00
     27.597  0.4763E-02  0.1359E+00
     27.740  0.3068E-02  0.1363E+00
     27.883  0.5446E-02  0.1371E+00
     28.026  0.6448E-02  0.1380E+00
     28.169  0.7591E-02  0.1391E+00
     28.312  0.5416E-02  0.1399E+00
     28.454  0.4135E-02  0.1405E+00
     28.597  0.5881E-02  0.1413E+00
     28.740  0.6551E-02  0.1423E+00
     28.883  0.9916E-02  0.1437E+00
     29.026  0.5106E-02  0.1444E+00
     29.169  0.1327E-01  0.1463E+00
     29.311  0.7663E-02  0.1474E+00
     29.454  0.2115E-02  0.1477E+00
     29.597  0.4512E-02  0.1483E+00
     29.740  0.6873E-02  0.1493E+00
     29.883  0.4542E-02  0.1500E+00
     30.026  0.6707E-02  0.1509E+00
     30.168  0.8577E-02  0.1521E+00
     30.311  0.8311E-02  0.1533E+00
     30.454  0.2473E-02  0.1537E+00
     30.597  0.3362E-02  0.1542E+00
     30.740  0.6687E-02  0.1551E+00
     30.883  0.6179E-02  0.1560E+00
     31.026  0.7869E-02  0.1571E+00
     31.168  0.1744E-02  0.1574E+00
     31.311  0.4063E-02  0.1580E+00
     31.454  0.2363E-02  0.1583E+00
     31.597  0.4404E-03  0.1584E+00
     31.740  0.1718E-02  0.1586E+00
     31.883  0.1155E-02  0.1588E+00
     32.025  0.2403E-02  0.1591E+00
     32.168  0.1528E-03  0.1591E+00
     32.311  0.2349E-05  0.1591E+00
     32.454  0.3333E-03  0.1592E+00
     32.597  0.5953E-03  0.1593E+00
     32.740  0.6457E-03  0.1594E+00
     32.882  0.3709E-03  0.1594E+00
     33.025  0.9552E-03  0.1595E+00
     33.168  0.8789E-03  0.1597E+00
     33.311  0.1053E-02  0.1598E+00
     33.454  0.2309E-03  0.1599E+00
     33.597  0.1620E-03  0.1599E+00
     33.740  0.7808E-08  0.1599E+00
     33.882  0.0000E+00  0.1599E+00
     34.025  0.0000E+00  0.1599E+00
     34.168  0.1292E-15  0.1599E+00
     34.311  0.2531E-06  0.1599E+00
     34.454  0.2076E-03  0.1599E+00
     34.597  0.2950E-03  0.1600E+00
     34.739  0.3253E-03  0.1600E+00
     34.882  0.1683E-05  0.1600E+00
     35.025  0.6327E-14  0.1600E+00
     35.168  0.0000E+00  0.1600E+00
     35.311  0.0000E+00  0.1600E+00
     35.454  0.0000E+00  0.1600E+00
     35.596  0.0000E+00  0.1600E+00
     35.739  0.0000E+00  0.1600E+00
     35.882  0.0000E+00  0.1600E+00
     36.025  0.0000E+00  0.1600E+00
     36.168  0.0000E+00  0.1600E+00
     36.311  0.0000E+00  0.1600E+00
     36.454  0.0000E+00  0.1600E+00
     36.596  0.0000E+00  0.1600E+00
