    1    1  100    1
  0.1386300E+02  0.2621157E-09  0.2621157E-09  0.2621157E-09  0.5000000E-15
  1.000000000000000E-004
  CAR 
 unknown system                          
      4    120      8
 
  0.0000000E+00  0.0000000E+00  0.0000000E+00  0.2962963E-03
    1       -4.308167   1.000000
    2       21.337580   0.000000
    3       21.337580   0.000000
    4       21.337582   0.000000
    5       22.559225   0.000000
    6       22.559225   0.000000
    7       22.559226   0.000000
    8       26.306739   0.000000
 
  0.6666667E-01  0.0000000E+00  0.0000000E+00  0.3555556E-02
    1       -4.171936   1.000000
    2       19.743343   0.000000
    3       20.219614   0.000000
    4       21.146408   0.000000
    5       22.107180   0.000000
    6       23.303038   0.000000
    7       23.907608   0.000000
    8       25.373597   0.000000
 
  0.1333333E+00  0.0000000E+00  0.0000000E+00  0.3555556E-02
    1       -3.763511   1.000000
    2       17.131324   0.000000
    3       18.880333   0.000000
    4       20.627620   0.000000
    5       21.122250   0.000000
    6       23.085961   0.000000
    7       25.292947   0.000000
    8       25.949736   0.000000
 
  0.2000000E+00  0.0000000E+00  0.0000000E+00  0.3555556E-02
    1       -3.084438   1.000000
    2       14.303076   0.000000
    3       17.745852   0.000000
    4       19.941252   0.000000
    5       20.066624   0.000000
    6       22.136177   0.000000
    7       26.186736   0.000000
    8       26.331484   0.000000
 
  0.2666667E+00  0.0000000E+00  0.0000000E+00  0.3555556E-02
    1       -2.138146   1.000000
    2       11.517632   0.000000
    3       16.825246   0.000000
    4       19.129517   0.000000
    5       19.257206   0.000000
    6       21.270221   0.000000
    7       26.964387   0.000000
    8       27.266505   0.000000
 
  0.3333333E+00  0.0000000E+00  0.0000000E+00  0.3555556E-02
    1       -0.928009   1.000000
    2        8.887033   1.000000
    3       16.133884   0.000000
    4       18.405107   0.000000
    5       18.684717   0.000000
    6       20.589313   0.000000
    7       27.876362   0.000000
    8       28.497152   0.000000
 
  0.4000000E+00  0.0000000E+00  0.0000000E+00  0.3555556E-02
    1        0.540662   1.000000
    2        6.459309   1.000000
    3       15.673711   0.000000
    4       17.903122   0.000000
    5       18.281898   0.000000
    6       20.128862   0.000000
    7       29.010547   0.000000
    8       29.799119   0.000000
 
  0.4666667E+00  0.0000000E+00  0.0000000E+00  0.3555556E-02
    1        2.252280   1.000000
    2        4.262481   1.000000
    3       15.443559   0.000000
    4       17.675840   0.000000
    5       18.075891   0.000000
    6       19.891872   0.000000
    7       30.175233   0.000000
    8       30.919598   0.000000
 
  0.6666667E-01  0.6666667E-01  0.0000000E+00  0.7111111E-02
    1       -3.899627   1.000000
    2       18.245614   0.000000
    3       18.798076   0.000000
    4       20.142730   0.000000
    5       22.246805   0.000000
    6       23.598097   0.000000
    7       24.596554   0.000000
    8       25.142034   0.000000
 
  0.1333333E+00  0.6666667E-01 -0.6938894E-17  0.1422222E-01
    1       -3.355724   1.000000
    2       15.772340   0.000000
    3       17.342244   0.000000
    4       19.178057   0.000000
    5       21.765903   0.000000
    6       23.170404   0.000000
    7       24.912465   0.000000
    8       26.562992   0.000000
 
  0.2000000E+00  0.6666667E-01 -0.6938894E-17  0.1422222E-01
    1       -2.543175   1.000000
    2       12.981244   0.000000
    3       16.270668   0.000000
    4       18.262208   0.000000
    5       21.031885   0.000000
    6       22.506286   0.000000
    7       25.469420   0.000000
    8       27.838823   0.000000
 
  0.2666667E+00  0.6666667E-01  0.6938894E-17  0.1422222E-01
    1       -1.464796   1.000000
    2       10.272006   0.000000
    3       15.441236   0.000000
    4       17.494914   0.000000
    5       20.331346   0.000000
    6       21.916653   0.000000
    7       26.269850   0.000000
    8       29.037180   0.000000
 
  0.3333333E+00  0.6666667E-01 -0.2081668E-16  0.1422222E-01
    1       -0.125203   1.000000
    2        7.741644   1.000000
    3       14.845534   0.000000
    4       16.921249   0.000000
    5       19.782516   0.000000
    6       21.447005   0.000000
    7       27.339596   0.000000
    8       30.177636   0.000000
 
  0.4000000E+00  0.6666667E-01  0.6938894E-17  0.1422222E-01
    1        1.467913   1.000000
    2        5.425894   1.000000
    3       14.485489   0.000000
    4       16.571805   0.000000
    5       19.449019   0.000000
    6       21.145379   0.000000
    7       28.626354   0.000000
    8       30.851841   0.000000
 
  0.4666667E+00  0.6666667E-01  0.6938894E-17  0.7111111E-02
    1        3.129903   1.000000
    2        3.521062   1.000000
    3       14.365692   0.000000
    4       16.457401   0.000000
    5       19.336160   0.000000
    6       21.040968   0.000000
    7       29.842319   0.000000
    8       30.189912   0.000000
 
  0.1333333E+00  0.1333333E+00  0.0000000E+00  0.7111111E-02
    1       -2.678302   1.000000
    2       14.400678   0.000000
    3       14.881419   0.000000
    4       18.116853   0.000000
    5       21.977708   0.000000
    6       23.090496   0.000000
    7       25.597716   0.000000
    8       26.935723   0.000000
 
  0.2000000E+00  0.1333333E+00  0.1387779E-16  0.1422222E-01
    1       -1.733760   1.000000
    2       11.865303   0.000000
    3       13.699627   0.000000
    4       17.252114   0.000000
    5       21.630556   0.000000
    6       23.146459   0.000000
    7       25.903431   0.000000
    8       28.397929   0.000000
 
  0.2666667E+00  0.1333333E+00  0.0000000E+00  0.1422222E-01
    1       -0.525701   1.000000
    2        9.262353   1.000000
    3       12.948787   0.000000
    4       16.576291   0.000000
    5       21.082115   0.000000
    6       23.376723   0.000000
    7       26.163485   0.000000
    8       30.070798   0.000000
 
  0.3333333E+00  0.1333333E+00  0.0000000E+00  0.1422222E-01
    1        0.939749   1.000000
    2        6.843631   1.000000
    3       12.453069   0.000000
    4       16.114171   0.000000
    5       20.655947   0.000000
    6       23.424991   0.000000
    7       26.959489   0.000000
    8       30.601896   0.000000
 
  0.4000000E+00  0.1333333E+00  0.0000000E+00  0.1422222E-01
    1        2.648684   1.000000
    2        4.652204   1.000000
    3       12.205529   0.000000
    4       15.881258   0.000000
    5       20.432308   0.000000
    6       23.382012   0.000000
    7       28.167147   0.000000
    8       29.649243   0.000000
 
  0.2000000E+00  0.2000000E+00  0.0000000E+00  0.7111111E-02
    1       -0.659406   1.000000
    2       10.839014   0.000000
    3       11.196257   0.000000
    4       16.481246   0.000000
    5       22.156409   0.000000
    6       23.052061   0.000000
    7       27.482445   0.000000
    8       28.472351   0.000000
 
  0.2666667E+00  0.2000000E+00  0.1387779E-16  0.1422222E-01
    1        0.674814   1.000000
    2        8.494997   1.000000
    3       10.405113   0.000000
    4       15.913011   0.000000
    5       22.011590   0.000000
    6       23.701712   0.000000
    7       27.634299   0.000000
    8       29.631663   0.000000
 
  0.3333333E+00  0.2000000E+00  0.1387779E-16  0.1422222E-01
    1        2.261566   1.000000
    2        6.198176   1.000000
    3       10.019452   0.001048
    4       15.565714   0.000000
    5       21.742742   0.000000
    6       24.618345   0.000000
    7       27.458160   0.000000
    8       29.552081   0.000000
 
  0.4000000E+00  0.2000000E+00  0.1387779E-16  0.7111111E-02
    1        3.924488   1.000000
    2        4.295655   1.000000
    3        9.891028   0.710921
    4       15.444974   0.000000
    5       21.637678   0.000000
    6       25.079502   0.000000
    7       27.414236   0.000000
    8       29.083824   0.000000
 
  0.2666667E+00  0.2666667E+00  0.0000000E+00  0.7111111E-02
    1        2.131135   1.000000
    2        7.844007   1.000000
    3        8.152415   1.000000
    4       15.458774   0.000000
    5       22.880109   0.000000
    6       23.792483   0.000000
    7       28.047610   0.000000
    8       29.910134   0.000000
 
  0.3333333E+00  0.2666667E+00  0.0000000E+00  0.1422222E-01
    1        3.829032   1.000000
    2        5.811668   1.000000
    3        7.755893   1.000000
    4       15.225035   0.000000
    5       22.999772   0.000000
    6       24.806023   0.000000
    7       26.671880   0.000000
    8       30.746760   0.000000
 
  0.3333333E+00  0.3333333E+00  0.0000000E+00  0.2370370E-02
    1        5.347922   1.000000
    2        5.844387   1.000000
    3        5.844388   1.000000
    4       15.113601   0.000000
    5       23.826090   0.000000
    6       25.285411   0.000000
    7       25.285412   0.000000
    8       32.847963   0.000000
 
  0.6666667E-01  0.6666667E-01  0.6666667E-01  0.2370370E-02
    1       -3.491686   1.000000
    2       16.771980   0.000000
    3       17.771690   0.000000
    4       17.771690   0.000000
    5       23.455936   0.000000
    6       23.455936   0.000000
    7       25.643998   0.000000
    8       25.643998   0.000000
 
  0.1333333E+00  0.6666667E-01  0.6666667E-01  0.7111111E-02
    1       -2.813602   1.000000
    2       14.487480   0.000000
    3       16.050619   0.000000
    4       16.715814   0.000000
    5       23.175264   0.000000
    6       23.845431   0.000000
    7       25.984798   0.000000
    8       26.460190   0.000000
 
  0.2000000E+00  0.6666667E-01  0.6666667E-01  0.7111111E-02
    1       -1.868447   1.000000
    2       11.758704   0.000000
    3       15.042786   0.000000
    4       15.794660   0.000000
    5       22.728902   0.000000
    6       23.285657   0.000000
    7       27.212598   0.000000
    8       27.220008   0.000000
 
  0.2666667E+00  0.6666667E-01  0.6666667E-01  0.7111111E-02
    1       -0.659624   1.000000
    2        9.140074   1.000000
    3       14.314809   0.000000
    4       15.076623   0.000000
    5       22.270197   0.000000
    6       22.716497   0.000000
    7       28.109881   0.000000
    8       28.567798   0.000000
 
  0.3333333E+00  0.6666667E-01  0.6666667E-01  0.7111111E-02
    1        0.806860   1.000000
    2        6.717281   1.000000
    3       13.830770   0.000000
    4       14.586565   0.000000
    5       21.919678   0.000000
    6       22.312207   0.000000
    7       29.241523   0.000000
    8       29.942767   0.000000
 
  0.4000000E+00  0.6666667E-01  0.6666667E-01  0.7111111E-02
    1        2.516878   1.000000
    2        4.523202   1.000000
    3       13.589344   0.000000
    4       14.340822   0.000000
    5       21.731044   0.000000
    6       22.094314   0.000000
    7       30.312498   0.000000
    8       31.015217   0.000000
 
 -0.6666667E-01  0.6666667E-01  0.6666667E-01  0.1777778E-02
    1       -4.035814   1.000000
    2       19.297694   0.000000
    3       19.297695   0.000000
    4       20.302468   0.000000
    5       22.826476   0.000000
    6       23.773053   0.000000
    7       23.882696   0.000000
    8       23.882697   0.000000
 
  0.1333333E+00  0.1333333E+00  0.6666667E-01  0.7111111E-02
    1       -2.003152   1.000000
    2       13.208923   0.000000
    3       13.737944   0.000000
    4       15.389672   0.000000
    5       23.773686   0.000000
    6       24.660771   0.000000
    7       26.313861   0.000000
    8       27.289599   0.000000
 
  0.2000000E+00  0.1333333E+00  0.6666667E-01  0.1422222E-01
    1       -0.927401   1.000000
    2       10.759136   0.000000
    3       12.637410   0.000000
    4       14.540450   0.000000
    5       23.702437   0.000000
    6       24.741444   0.000000
    7       27.117576   0.000000
    8       28.561030   0.000000
 
  0.2666667E+00  0.1333333E+00  0.6666667E-01  0.1422222E-01
    1        0.408697   1.000000
    2        8.251582   1.000000
    3       12.005899   0.000000
    4       13.930338   0.000000
    5       23.384877   0.000000
    6       24.662747   0.000000
    7       28.013449   0.000000
    8       30.054168   0.000000
 
  0.3333333E+00  0.1333333E+00  0.6666667E-01  0.1422222E-01
    1        1.997795   1.000000
    2        5.943737   1.000000
    3       11.629023   0.000000
    4       13.563568   0.000000
    5       23.126653   0.000000
    6       24.545398   0.000000
    7       29.153934   0.000000
    8       30.921887   0.000000
 
  0.4000000E+00  0.1333333E+00  0.6666667E-01  0.7111111E-02
    1        3.660447   1.000000
    2        4.039891   1.000000
    3       11.504500   0.000000
    4       13.442236   0.000000
    5       23.035593   0.000000
    6       24.494576   0.000000
    7       30.149210   0.000000
    8       30.645375   0.000000
 
 -0.1333333E+00  0.1333333E+00  0.6666667E-01  0.7111111E-02
    1       -3.627491   1.000000
    2       17.134967   0.000000
    3       17.999102   0.000000
    4       19.766413   0.000000
    5       22.193981   0.000000
    6       22.493021   0.000000
    7       24.373473   0.000000
    8       25.552064   0.000000
 
  0.2000000E+00  0.2000000E+00  0.6666667E-01  0.7111111E-02
    1        0.275745   1.000000
    2        9.848386   0.960980
    3       10.211238   0.000000
    4       13.798529   0.000000
    5       24.336788   0.000000
    6       25.357637   0.000000
    7       28.256989   0.000000
    8       29.136971   0.000000
 
  0.2666667E+00  0.2000000E+00  0.6666667E-01  0.1422222E-01
    1        1.735652   1.000000
    2        7.607829   1.000000
    3        9.540200   1.000000
    4       13.311946   0.000000
    5       24.432212   0.000000
    6       25.960601   0.000000
    7       28.783369   0.000000
    8       30.288042   0.000000
 
  0.3333333E+00  0.2000000E+00  0.6666667E-01  0.1422222E-01
    1        3.438226   1.000000
    2        5.430518   1.000000
    3        9.279106   1.000000
    4       13.067174   0.000000
    5       24.335878   0.000000
    6       26.497556   0.000000
    7       29.094193   0.000000
    8       30.465168   0.000000
 
 -0.2000000E+00  0.2000000E+00  0.6666667E-01  0.7111111E-02
    1       -2.948958   1.000000
    2       14.390501   0.000000
    3       16.853972   0.000000
    4       19.144356   0.000000
    5       21.193029   0.000000
    6       21.939693   0.000000
    7       24.431846   0.000000
    8       27.857415   0.000000
 
 -0.1333333E+00  0.2000000E+00  0.6666667E-01  0.7111111E-02
    1       -3.084305   1.000000
    2       15.733186   0.000000
    3       16.060209   0.000000
    4       19.172564   0.000000
    5       21.444605   0.000000
    6       21.956945   0.000000
    7       25.265765   0.000000
    8       26.222492   0.000000
 
  0.2666667E+00  0.2666667E+00  0.6666667E-01  0.7111111E-02
    1        3.313082   1.000000
    2        7.081369   1.000000
    3        7.395998   1.000000
    4       12.945032   0.000000
    5       25.294200   0.000000
    6       26.493554   0.000000
    7       29.054528   0.000000
    8       30.826425   0.000000
 
  0.3333333E+00  0.2666667E+00  0.6666667E-01  0.7111111E-02
    1        4.962026   1.000000
    2        5.332534   1.000000
    3        7.128299   1.000000
    4       12.823579   0.000000
    5       25.516878   0.000000
    6       27.213472   0.000000
    7       28.192800   0.000000
    8       31.636971   0.000000
 
 -0.2666667E+00  0.2666667E+00  0.6666667E-01  0.7111111E-02
    1       -2.003131   1.000000
    2       11.629718   0.000000
    3       15.916059   0.000000
    4       18.415469   0.000000
    5       20.288918   0.000000
    6       21.635794   0.000000
    7       24.670746   0.000000
    8       29.660363   0.000000
 
 -0.2000000E+00  0.2666667E+00  0.6666667E-01  0.1422222E-01
    1       -2.272806   1.000000
    2       13.177691   0.000000
    3       14.852703   0.000000
    4       18.650697   0.000000
    5       20.896091   0.000000
    6       21.531123   0.000000
    7       25.281996   0.000000
    8       28.022401   0.000000
 
 -0.3333333E+00  0.3333333E+00  0.6666667E-01  0.7111111E-02
    1       -0.793862   1.000000
    2        9.011148   1.000000
    3       15.208795   0.000000
    4       17.786700   0.000000
    5       19.585252   0.000000
    6       21.316149   0.000000
    7       25.381952   0.000000
    8       30.607478   0.000000
 
 -0.2666667E+00  0.3333333E+00  0.6666667E-01  0.1422222E-01
    1       -1.195997   1.000000
    2       10.506473   0.000000
    3       14.000095   0.000000
    4       18.029355   0.000000
    5       20.203011   0.000000
    6       21.829455   0.000000
    7       25.033923   0.000000
    8       29.956472   0.000000
 
 -0.2000000E+00  0.3333333E+00  0.6666667E-01  0.7111111E-02
    1       -1.330215   1.000000
    2       12.042811   0.000000
    3       12.378406   0.000000
    4       18.410573   0.000000
    5       20.792048   0.000000
    6       20.954131   0.000000
    7       26.946047   0.000000
    8       27.883282   0.000000
 
 -0.4000000E+00  0.4000000E+00  0.6666667E-01  0.7111111E-02
    1        0.673813   1.000000
    2        6.586423   1.000000
    3       14.735270   0.000000
    4       17.342324   0.000000
    5       19.103443   0.000000
    6       21.030503   0.000000
    7       26.495203   0.000000
    8       30.641666   0.000000
 
 -0.3333333E+00  0.4000000E+00  0.6666667E-01  0.1422222E-01
    1        0.141831   1.000000
    2        7.991323   1.000000
    3       13.387028   0.000000
    4       17.513290   0.000000
    5       19.642473   0.000000
    6       22.213819   0.000000
    7       25.214842   0.000000
    8       30.175930   0.000000
 
 -0.2666667E+00  0.4000000E+00  0.6666667E-01  0.1422222E-01
    1       -0.124677   1.000000
    2        9.619521   1.000000
    3       11.479440   0.000000
    4       17.996670   0.000000
    5       20.256627   0.000000
    6       21.509942   0.000000
    7       26.820493   0.000000
    8       29.059632   0.000000
 
 -0.4666667E+00  0.4666667E+00  0.6666667E-01  0.7111111E-02
    1        2.384361   1.000000
    2        4.391644   1.000000
    3       14.496405   0.000000
    4       17.113652   0.000000
    5       18.855926   0.000000
    6       20.862482   0.000000
    7       27.857321   0.000000
    8       29.381512   0.000000
 
 -0.4000000E+00  0.4666667E+00  0.6666667E-01  0.1422222E-01
    1        1.732727   1.000000
    2        5.682033   1.000000
    3       13.019946   0.000000
    4       17.186632   0.000000
    5       19.284392   0.000000
    6       22.378546   0.000000
    7       26.010168   0.000000
    8       28.921201   0.000000
 
 -0.3333333E+00  0.4666667E+00  0.6666667E-01  0.1422222E-01
    1        1.337668   1.000000
    2        7.220580   1.000000
    3       10.973731   0.000000
    4       17.632848   0.000000
    5       19.806356   0.000000
    6       22.512558   0.000000
    7       26.301957   0.000000
    8       28.783900   0.000000
 
 -0.2666667E+00  0.4666667E+00  0.6666667E-01  0.7111111E-02
    1        1.205734   1.000000
    2        8.850149   1.000000
    3        9.149663   1.000000
    4       17.745426   0.000000
    5       20.944233   0.000000
    6       21.179642   0.000000
    7       27.229316   0.000000
    8       29.163487   0.000000
 
 -0.4666667E+00 -0.4666667E+00  0.6666667E-01  0.7111111E-02
    1        3.396158   1.000000
    2        3.777085   1.000000
    3       12.898266   0.000000
    4       17.076289   0.000000
    5       19.171282   0.000000
    6       22.403446   0.000000
    7       27.014218   0.000000
    8       27.712313   0.000000
 
 -0.4000000E+00 -0.4666667E+00  0.6666667E-01  0.1422222E-01
    1        3.043230   1.000000
    2        5.039235   1.000000
    3       10.721419   0.000000
    4       17.435541   0.000000
    5       19.580926   0.000000
    6       23.479974   0.000000
    7       25.746155   0.000000
    8       28.053809   0.000000
 
 -0.3333333E+00 -0.4666667E+00  0.6666667E-01  0.1422222E-01
    1        2.787454   1.000000
    2        6.702569   1.000000
    3        8.628636   1.000000
    4       17.506019   0.000000
    5       20.716800   0.000000
    6       22.304713   0.000000
    7       25.635804   0.000000
    8       29.894020   0.000000
 
 -0.4000000E+00 -0.4000000E+00  0.6666667E-01  0.7111111E-02
    1        4.450818   1.000000
    2        4.806857   1.000000
    3        8.497734   1.000000
    4       17.418606   0.000000
    5       20.615017   0.000000
    6       23.419390   0.000000
    7       24.370757   0.000000
    8       29.989445   0.000000
 
 -0.3333333E+00 -0.4000000E+00  0.6666667E-01  0.7111111E-02
    1        4.473918   1.000000
    2        6.321186   1.000000
    3        6.604338   1.000000
    4       17.374301   0.000000
    5       21.824000   0.000000
    6       22.393786   0.000000
    7       23.921948   0.000000
    8       31.952241   0.000000
 
  0.1333333E+00  0.1333333E+00  0.1333333E+00  0.2370370E-02
    1       -1.061441   1.000000
    2       12.087977   0.000000
    3       12.768297   0.000000
    4       12.768297   0.000000
    5       25.451143   0.000000
    6       25.451143   0.000000
    7       27.554189   0.000000
    8       27.554189   0.000000
 
  0.2000000E+00  0.1333333E+00  0.1333333E+00  0.7111111E-02
    1        0.142534   1.000000
    2        9.879172   0.813652
    3       11.622256   0.000000
    4       12.028875   0.000000
    5       25.701891   0.000000
    6       26.035885   0.000000
    7       28.602529   0.000000
    8       28.741884   0.000000
 
  0.2666667E+00  0.1333333E+00  0.1333333E+00  0.7111111E-02
    1        1.603532   1.000000
    2        7.485023   1.000000
    3       11.101964   0.000000
    4       11.528153   0.000000
    5       25.697167   0.000000
    6       25.932205   0.000000
    7       29.808895   0.000000
    8       30.110831   0.000000
 
  0.3333333E+00  0.1333333E+00  0.1333333E+00  0.7111111E-02
    1        3.307498   1.000000
    2        5.302748   1.000000
    3       10.847713   0.000000
    4       11.278228   0.000000
    5       25.661434   0.000000
    6       25.810639   0.000000
    7       30.721889   0.000000
    8       31.266797   0.000000
 
 -0.1333333E+00  0.1333333E+00  0.1333333E+00  0.1777778E-02
    1       -3.220156   1.000000
    2       16.695802   0.000000
    3       16.695803   0.000000
    4       18.306707   0.000000
    5       20.619821   0.000000
    6       23.633754   0.000000
    7       25.149324   0.000000
    8       25.149325   0.000000
 
  0.2000000E+00  0.2000000E+00  0.1333333E+00  0.7111111E-02
    1        1.471708   1.000000
    2        9.087619   1.000000
    3        9.460773   1.000000
    4       11.221973   0.000000
    5       26.622688   0.000000
    6       27.348901   0.000000
    7       29.304445   0.000000
    8       29.801817   0.000000
 
  0.2666667E+00  0.2000000E+00  0.1333333E+00  0.1422222E-01
    1        3.052532   1.000000
    2        6.967485   1.000000
    3        8.909354   1.000000
    4       10.839616   0.000000
    5       26.939268   0.000000
    6       27.898392   0.000000
    7       30.204407   0.000000
    8       30.883251   0.000000
 
  0.3333333E+00  0.2000000E+00  0.1333333E+00  0.7111111E-02
    1        4.709464   1.000000
    2        5.077232   1.000000
    3        8.775997   1.000000
    4       10.714729   0.000000
    5       26.983186   0.000000
    6       28.069103   0.000000
    7       30.621760   0.000000
    8       31.428937   0.000000
 
 -0.2000000E+00  0.2000000E+00  0.1333333E+00  0.7111111E-02
    1       -2.542964   1.000000
    2       14.592805   0.000000
    3       15.535834   0.000000
    4       17.717519   0.000000
    5       19.736705   0.000000
    6       23.180394   0.000000
    7       25.355818   0.000000
    8       26.940535   0.000000
 
  0.2666667E+00  0.2666667E+00  0.1333333E+00  0.7111111E-02
    1        4.737506   1.000000
    2        6.578750   1.000000
    3        6.886878   1.000000
    4       10.583522   0.000000
    5       27.739118   0.000000
    6       29.031429   0.000000
    7       30.130453   0.000000
    8       31.702608   0.000000
 
 -0.2666667E+00  0.2666667E+00  0.1333333E+00  0.7111111E-02
    1       -1.598999   1.000000
    2       11.953871   0.000000
    3       14.583308   0.000000
    4       17.085630   0.000000
    5       19.923622   0.000000
    6       22.352449   0.000000
    7       25.017606   0.000000
    8       29.488600   0.000000
 
 -0.2000000E+00  0.2666667E+00  0.1333333E+00  0.7111111E-02
    1       -1.733521   1.000000
    2       13.400611   0.000000
    3       13.635886   0.000000
    4       17.336218   0.000000
    5       18.867817   0.000000
    6       23.007653   0.000000
    7       26.610947   0.000000
    8       27.332365   0.000000
 
 -0.3333333E+00  0.3333333E+00  0.1333333E+00  0.7111111E-02
    1       -0.392149   1.000000
    2        9.373241   1.000000
    3       13.861875   0.000000
    4       16.445479   0.000000
    5       20.593541   0.000000
    6       21.664117   0.000000
    7       24.701634   0.000000
    8       29.697021   0.000000
 
 -0.2666667E+00  0.3333333E+00  0.1333333E+00  0.1422222E-01
    1       -0.659541   1.000000
    2       10.955452   0.000000
    3       12.672318   0.000000
    4       16.981179   0.000000
    5       19.060616   0.000000
    6       22.376556   0.000000
    7       26.356734   0.000000
    8       28.675637   0.000000
 
 -0.4000000E+00  0.4000000E+00  0.1333333E+00  0.7111111E-02
    1        1.072433   1.000000
    2        6.964019   1.000000
    3       13.375707   0.000000
    4       15.977857   0.000000
    5       21.184536   0.000000
    6       21.301229   0.000000
    7       24.709046   0.000000
    8       28.414990   0.000000
 
 -0.3333333E+00  0.4000000E+00  0.1333333E+00  0.1422222E-01
    1        0.674604   1.000000
    2        8.483372   1.000000
    3       12.053456   0.000000
    4       16.491182   0.000000
    5       19.875577   0.000000
    6       21.936986   0.000000
    7       25.619983   0.000000
    8       28.254872   0.000000
 
 -0.2666667E+00  0.4000000E+00  0.1333333E+00  0.7111111E-02
    1        0.541829   1.000000
    2       10.077902   0.000001
    3       10.353335   0.000000
    4       17.396991   0.000000
    5       18.778646   0.000000
    6       21.920613   0.000000
    7       26.643998   0.000000
    8       28.612111   0.000000
 
 -0.4666667E+00  0.4666667E+00  0.1333333E+00  0.7111111E-02
    1        2.779852   1.000000
    2        4.779541   1.000000
    3       13.135273   0.000000
    4       15.739625   0.000000
    5       20.951367   0.000000
    6       21.727729   0.000000
    7       25.210561   0.000000
    8       27.064795   0.000000
 
 -0.4000000E+00  0.4666667E+00  0.1333333E+00  0.1422222E-01
    1        2.260915   1.000000
    2        6.192285   1.000000
    3       11.681714   0.000000
    4       16.155828   0.000000
    5       20.596368   0.000000
    6       22.022875   0.000000
    7       24.651875   0.000000
    8       27.454582   0.000000
 
 -0.3333333E+00  0.4666667E+00  0.1333333E+00  0.1422222E-01
    1        1.998668   1.000000
    2        7.840180   1.000000
    3        9.721615   1.000000
    4       17.320100   0.000000
    5       19.451591   0.000000
    6       21.623937   0.000000
    7       24.926240   0.000000
    8       29.232560   0.000000
 
 -0.4666667E+00 -0.4666667E+00  0.1333333E+00  0.7111111E-02
    1        3.927670   1.000000
    2        4.288739   1.000000
    3       11.557044   0.000000
    4       16.038428   0.000000
    5       20.756234   0.000000
    6       22.549686   0.000000
    7       23.897328   0.000000
    8       27.160406   0.000000
 
 -0.4000000E+00 -0.4666667E+00  0.1333333E+00  0.1422222E-01
    1        3.697636   1.000000
    2        5.679411   1.000000
    3        9.464981   1.000000
    4       17.160514   0.000000
    5       20.202429   0.000000
    6       21.950019   0.000000
    7       23.231946   0.000000
    8       29.261416   0.000000
 
 -0.3333333E+00 -0.4666667E+00  0.1333333E+00  0.7111111E-02
    1        3.571813   1.000000
    2        7.328947   1.000000
    3        7.604857   1.000000
    4       17.973507   0.000000
    5       19.676775   0.000000
    6       21.363414   0.000000
    7       23.181930   0.000000
    8       31.181672   0.000000
 
 -0.4000000E+00 -0.4000000E+00  0.1333333E+00  0.7111111E-02
    1        5.227663   1.000000
    2        5.570146   1.000000
    3        7.353953   1.000000
    4       18.105128   0.000000
    5       20.270199   0.000000
    6       21.416613   0.000000
    7       22.024176   0.000000
    8       31.832215   0.000000
 
  0.2000000E+00  0.2000000E+00  0.2000000E+00  0.2370370E-02
    1        2.922622   1.000000
    2        8.448346   1.000000
    3        8.957485   1.000000
    4        8.957486   1.000000
    5       28.586095   0.000000
    6       28.586095   0.000000
    7       30.450956   0.000000
    8       30.450956   0.000000
 
  0.2666667E+00  0.2000000E+00  0.2000000E+00  0.7111111E-02
    1        4.613074   1.000000
    2        6.583608   1.000000
    3        8.395063   1.000000
    4        8.703030   1.000000
    5       29.125568   0.000000
    6       29.466240   0.000000
    7       31.128709   0.000000
    8       31.402861   0.000000
 
 -0.2000000E+00  0.2000000E+00  0.2000000E+00  0.1777778E-02
    1       -1.868189   1.000000
    2       14.356692   0.000000
    3       14.356693   0.000000
    4       16.259336   0.000000
    5       17.913773   0.000000
    6       24.977052   0.000000
    7       26.499697   0.000000
    8       26.499698   0.000000
 