   1   1   0   0
  0.1386300E+02  0.2621157E-09  0.2621157E-09  0.2621157E-09  0.5000000E-15
  1.000000000000000E-004
  CAR 
 unknown system                          
     35.78379456     -6.18983521  301      9.85021847      1.00000000
     -6.190  0.0000E+00  0.0000E+00
     -6.050  0.0000E+00  0.0000E+00
     -5.910  0.0000E+00  0.0000E+00
     -5.770  0.0000E+00  0.0000E+00
     -5.630  0.0000E+00  0.0000E+00
     -5.490  0.0000E+00  0.0000E+00
     -5.350  0.0000E+00  0.0000E+00
     -5.210  0.0000E+00  0.0000E+00
     -5.071  0.0000E+00  0.0000E+00
     -4.931  0.0000E+00  0.0000E+00
     -4.791  0.0000E+00  0.0000E+00
     -4.651  0.0000E+00  0.0000E+00
     -4.511  0.1968E-13  0.2753E-14
     -4.371  0.2457E-05  0.3438E-06
     -4.231  0.3830E-03  0.5393E-04
     -4.091  0.3129E-04  0.5831E-04
     -3.951  0.1417E-10  0.5831E-04
     -3.811  0.2184E-07  0.5831E-04
     -3.671  0.1562E-02  0.2769E-03
     -3.532  0.3437E-02  0.7578E-03
     -3.392  0.1310E-05  0.7580E-03
     -3.252  0.3207E-12  0.7580E-03
     -3.112  0.2250E-04  0.7612E-03
     -2.972  0.2339E-02  0.1088E-02
     -2.832  0.1394E-03  0.1108E-02
     -2.692  0.3594E-10  0.1108E-02
     -2.552  0.1435E-06  0.1108E-02
     -2.412  0.4106E-02  0.1682E-02
     -2.272  0.5895E-02  0.2507E-02
     -2.132  0.9537E-06  0.2507E-02
     -1.992  0.6773E-11  0.2507E-02
     -1.853  0.1162E-03  0.2524E-02
     -1.713  0.4762E-02  0.3190E-02
     -1.573  0.1232E-03  0.3207E-02
     -1.433  0.7877E-11  0.3207E-02
     -1.293  0.1024E-05  0.3207E-02
     -1.153  0.5965E-02  0.4042E-02
     -1.013  0.4036E-02  0.4606E-02
     -0.873  0.1325E-06  0.4606E-02
     -0.733  0.1307E-09  0.4606E-02
     -0.593  0.2626E-03  0.4643E-02
     -0.453  0.3053E-02  0.5070E-02
     -0.314  0.1828E-04  0.5073E-02
     -0.174  0.1653E-12  0.5073E-02
     -0.034  0.2618E-04  0.5077E-02
      0.106  0.1655E-01  0.7391E-02
      0.246  0.3432E-02  0.7872E-02
      0.386  0.9333E-08  0.7872E-02
      0.526  0.6025E-08  0.7872E-02
      0.666  0.6732E-03  0.7966E-02
      0.806  0.1826E-02  0.8221E-02
      0.946  0.1039E-05  0.8222E-02
      1.086  0.1275E-10  0.8222E-02
      1.226  0.2890E-03  0.8262E-02
      1.365  0.1427E-01  0.1026E-01
      1.505  0.4450E-03  0.1032E-01
      1.645  0.3891E-10  0.1032E-01
      1.785  0.2581E-05  0.1032E-01
      1.925  0.6861E-02  0.1128E-01
      2.065  0.3139E-02  0.1172E-01
      2.205  0.4451E-07  0.1172E-01
      2.345  0.4606E-08  0.1172E-01
      2.485  0.1710E-02  0.1196E-01
      2.625  0.8279E-02  0.1312E-01
      2.765  0.1320E-04  0.1312E-01
      2.904  0.3208E-11  0.1312E-01
      3.044  0.1310E-03  0.1314E-01
      3.184  0.9456E-02  0.1446E-01
      3.324  0.4148E-03  0.1452E-01
      3.464  0.3333E-04  0.1452E-01
      3.604  0.8905E-02  0.1577E-01
      3.744  0.8188E-02  0.1692E-01
      3.884  0.4662E-02  0.1757E-01
      4.024  0.8206E-02  0.1872E-01
      4.164  0.1200E-04  0.1872E-01
      4.304  0.1346E-13  0.1872E-01
      4.443  0.0000E+00  0.1872E-01
      4.583  0.2640E-09  0.1872E-01
      4.723  0.6887E-03  0.1881E-01
      4.863  0.9246E-02  0.2011E-01
      5.003  0.1282E-03  0.2013E-01
      5.143  0.9209E-02  0.2141E-01
      5.283  0.7324E-03  0.2152E-01
      5.423  0.6897E-06  0.2152E-01
      5.563  0.3128E-02  0.2195E-01
      5.703  0.1873E-02  0.2222E-01
      5.843  0.1973E-02  0.2249E-01
      5.983  0.1361E-02  0.2268E-01
      6.122  0.3064E-02  0.2311E-01
      6.262  0.7756E-02  0.2420E-01
      6.402  0.5833E-02  0.2501E-01
      6.542  0.1749E-04  0.2501E-01
      6.682  0.1986E-02  0.2529E-01
      6.822  0.1039E-01  0.2675E-01
      6.962  0.1802E-03  0.2677E-01
      7.102  0.3203E-02  0.2722E-01
      7.242  0.9028E-02  0.2848E-01
      7.382  0.3877E-02  0.2903E-01
      7.522  0.1299E-01  0.3084E-01
      7.661  0.8489E-03  0.3096E-01
      7.801  0.4081E-03  0.3102E-01
      7.941  0.9460E-02  0.3234E-01
      8.081  0.1335E-03  0.3236E-01
      8.221  0.3347E-11  0.3236E-01
      8.361  0.3718E-06  0.3236E-01
      8.501  0.8675E-02  0.3358E-01
      8.641  0.1133E-01  0.3516E-01
      8.781  0.1505E-05  0.3516E-01
      8.921  0.1792E-05  0.3516E-01
      9.061  0.6511E-02  0.3607E-01
      9.200  0.3490E-02  0.3656E-01
      9.340  0.8951E-07  0.3656E-01
      9.480  0.2567E-02  0.3692E-01
      9.620  0.7432E-02  0.3796E-01
      9.760  0.7244E-02  0.3897E-01
      9.900  0.7750E-02  0.4006E-01
     10.040  0.1234E-04  0.4006E-01
     10.180  0.4701E-06  0.4006E-01
     10.320  0.2093E-02  0.4035E-01
     10.460  0.1241E-02  0.4052E-01
     10.600  0.7536E-04  0.4054E-01
     10.740  0.9314E-02  0.4184E-01
     10.879  0.6041E-02  0.4268E-01
     11.019  0.1087E-01  0.4421E-01
     11.159  0.8681E-02  0.4542E-01
     11.299  0.6261E-03  0.4551E-01
     11.439  0.9317E-02  0.4681E-01
     11.579  0.6107E-03  0.4690E-01
     11.719  0.2799E-02  0.4729E-01
     11.859  0.1582E-02  0.4751E-01
     11.999  0.1097E-01  0.4904E-01
     12.139  0.5112E-02  0.4976E-01
     12.279  0.6375E-02  0.5065E-01
     12.418  0.2639E-03  0.5069E-01
     12.558  0.1845E-01  0.5327E-01
     12.698  0.3257E-02  0.5373E-01
     12.838  0.6717E-03  0.5382E-01
     12.978  0.9527E-08  0.5382E-01
     13.118  0.1584E-02  0.5404E-01
     13.258  0.8403E-02  0.5522E-01
     13.398  0.1910E-02  0.5548E-01
     13.538  0.8097E-02  0.5662E-01
     13.678  0.1045E-04  0.5662E-01
     13.818  0.4248E-07  0.5662E-01
     13.958  0.3103E-02  0.5705E-01
     14.097  0.7163E-02  0.5805E-01
     14.237  0.4785E-02  0.5872E-01
     14.377  0.1041E-01  0.6018E-01
     14.517  0.7045E-02  0.6117E-01
     14.657  0.3120E-05  0.6117E-01
     14.797  0.0000E+00  0.6117E-01
     14.937  0.1117E-13  0.6117E-01
     15.077  0.6171E-05  0.6117E-01
     15.217  0.4055E-02  0.6173E-01
     15.357  0.4121E-02  0.6231E-01
     15.497  0.1014E-01  0.6373E-01
     15.636  0.7739E-03  0.6384E-01
     15.776  0.1065E-01  0.6533E-01
     15.916  0.1193E-01  0.6700E-01
     16.056  0.1670E-02  0.6723E-01
     16.196  0.1756E-03  0.6725E-01
     16.336  0.6580E-02  0.6818E-01
     16.476  0.2777E-01  0.7206E-01
     16.616  0.7152E-02  0.7306E-01
     16.756  0.4439E-02  0.7368E-01
     16.896  0.1518E-01  0.7581E-01
     17.036  0.3774E-03  0.7586E-01
     17.175  0.1135E-05  0.7586E-01
     17.315  0.6076E-02  0.7671E-01
     17.455  0.1200E-01  0.7839E-01
     17.595  0.1923E-02  0.7866E-01
     17.735  0.1978E-03  0.7869E-01
     17.875  0.4849E-02  0.7937E-01
     18.015  0.9496E-02  0.8069E-01
     18.155  0.1399E-02  0.8089E-01
     18.295  0.3603E-02  0.8139E-01
     18.435  0.2959E-02  0.8181E-01
     18.575  0.9699E-04  0.8182E-01
     18.715  0.9380E-02  0.8313E-01
     18.854  0.4362E-02  0.8374E-01
     18.994  0.5789E-02  0.8455E-01
     19.134  0.4176E-03  0.8461E-01
     19.274  0.4656E-02  0.8526E-01
     19.414  0.3050E-03  0.8531E-01
     19.554  0.9292E-10  0.8531E-01
     19.694  0.1573E-04  0.8531E-01
     19.834  0.8410E-02  0.8648E-01
     19.974  0.1586E-02  0.8671E-01
     20.114  0.4273E-02  0.8730E-01
     20.254  0.4549E-02  0.8794E-01
     20.393  0.1668E-01  0.9027E-01
     20.533  0.2002E-02  0.9055E-01
     20.673  0.8788E-02  0.9178E-01
     20.813  0.6209E-02  0.9265E-01
     20.953  0.1005E-03  0.9267E-01
     21.093  0.6379E-02  0.9356E-01
     21.233  0.2332E-01  0.9682E-01
     21.373  0.3698E-03  0.9687E-01
     21.513  0.1515E-01  0.9899E-01
     21.653  0.5940E-02  0.9983E-01
     21.793  0.4182E-06  0.9983E-01
     21.932  0.3224E-04  0.9983E-01
     22.072  0.1685E-01  0.1022E+00
     22.212  0.1312E-01  0.1040E+00
     22.352  0.7715E-05  0.1040E+00
     22.492  0.1020E-01  0.1055E+00
     22.632  0.1061E-01  0.1069E+00
     22.772  0.4408E-03  0.1070E+00
     22.912  0.9818E-06  0.1070E+00
     23.052  0.4017E-02  0.1076E+00
     23.192  0.1095E-01  0.1091E+00
     23.332  0.8944E-02  0.1103E+00
     23.472  0.1089E-02  0.1105E+00
     23.611  0.1261E-02  0.1107E+00
     23.751  0.2044E-01  0.1135E+00
     23.891  0.1064E-01  0.1150E+00
     24.031  0.1623E-03  0.1150E+00
     24.171  0.1700E-02  0.1153E+00
     24.311  0.8288E-02  0.1164E+00
     24.451  0.1336E-04  0.1164E+00
     24.591  0.2672E-09  0.1164E+00
     24.731  0.6916E-03  0.1165E+00
     24.871  0.9287E-02  0.1178E+00
     25.011  0.2442E-02  0.1182E+00
     25.150  0.1110E-02  0.1183E+00
     25.290  0.8939E-02  0.1196E+00
     25.430  0.4721E-02  0.1202E+00
     25.570  0.5317E-02  0.1210E+00
     25.710  0.6152E-02  0.1219E+00
     25.850  0.4392E-02  0.1225E+00
     25.990  0.1573E-01  0.1247E+00
     26.130  0.3520E-02  0.1252E+00
     26.270  0.4282E-02  0.1258E+00
     26.410  0.8392E-02  0.1269E+00
     26.550  0.2826E-01  0.1309E+00
     26.690  0.1370E-02  0.1311E+00
     26.829  0.1165E-08  0.1311E+00
     26.969  0.1017E-02  0.1312E+00
     27.109  0.9065E-02  0.1325E+00
     27.249  0.1131E-01  0.1341E+00
     27.389  0.1308E-01  0.1359E+00
     27.529  0.3791E-02  0.1364E+00
     27.669  0.1638E-01  0.1387E+00
     27.809  0.1196E-02  0.1389E+00
     27.949  0.3140E-02  0.1393E+00
     28.089  0.3528E-02  0.1398E+00
     28.229  0.1663E-03  0.1398E+00
     28.368  0.3133E-02  0.1403E+00
     28.508  0.2691E-02  0.1407E+00
     28.648  0.7343E-02  0.1417E+00
     28.788  0.1858E-02  0.1420E+00
     28.928  0.6457E-03  0.1420E+00
     29.068  0.1778E-02  0.1423E+00
     29.208  0.8651E-02  0.1435E+00
     29.348  0.9453E-02  0.1448E+00
     29.488  0.2355E-03  0.1449E+00
     29.628  0.5041E-02  0.1456E+00
     29.768  0.9874E-02  0.1469E+00
     29.907  0.1768E-01  0.1494E+00
     30.047  0.8962E-02  0.1507E+00
     30.187  0.7674E-05  0.1507E+00
     30.327  0.1164E-01  0.1523E+00
     30.467  0.2336E-01  0.1556E+00
     30.607  0.1772E-04  0.1556E+00
     30.747  0.1391E-01  0.1575E+00
     30.887  0.6090E-02  0.1584E+00
     31.027  0.1107E-06  0.1584E+00
     31.167  0.0000E+00  0.1584E+00
     31.307  0.0000E+00  0.1584E+00
     31.447  0.0000E+00  0.1584E+00
     31.586  0.0000E+00  0.1584E+00
     31.726  0.0000E+00  0.1584E+00
     31.866  0.0000E+00  0.1584E+00
     32.006  0.0000E+00  0.1584E+00
     32.146  0.0000E+00  0.1584E+00
     32.286  0.1064E-14  0.1584E+00
     32.426  0.2030E-05  0.1584E+00
     32.566  0.2549E-02  0.1587E+00
     32.706  0.7833E-03  0.1588E+00
     32.846  0.1613E-05  0.1588E+00
     32.986  0.1923E-02  0.1591E+00
     33.125  0.5756E-03  0.1592E+00
     33.265  0.1643E-06  0.1592E+00
     33.405  0.1378E-02  0.1594E+00
     33.545  0.1122E-02  0.1595E+00
     33.685  0.5504E-07  0.1595E+00
     33.825  0.2503E-03  0.1596E+00
     33.965  0.3064E-02  0.1600E+00
     34.105  0.1966E-04  0.1600E+00
     34.245  0.1574E-12  0.1600E+00
     34.385  0.0000E+00  0.1600E+00
     34.525  0.0000E+00  0.1600E+00
     34.664  0.0000E+00  0.1600E+00
     34.804  0.0000E+00  0.1600E+00
     34.944  0.0000E+00  0.1600E+00
     35.084  0.0000E+00  0.1600E+00
     35.224  0.0000E+00  0.1600E+00
     35.364  0.0000E+00  0.1600E+00
     35.504  0.0000E+00  0.1600E+00
     35.644  0.0000E+00  0.1600E+00
     35.784  0.0000E+00  0.1600E+00
