    1    1  100    1
  0.1386300E+02  0.2621157E-09  0.2621157E-09  0.2621157E-09  0.5000000E-15
  1.000000000000000E-004
  CAR 
 unknown system                          
      4     20      8
 
  0.0000000E+00  0.0000000E+00  0.0000000E+00  0.2915452E-02
    1       -4.281943   1.000000
    2       21.515271   0.000000
    3       21.515271   0.000000
    4       21.515272   0.000000
    5       22.618372   0.000000
    6       22.618372   0.000000
    7       22.618372   0.000000
    8       26.318312   0.000000
 
  0.1428571E+00  0.0000000E+00  0.0000000E+00  0.3498542E-01
    1       -3.654127   1.000000
    2       16.836048   0.000000
    3       18.829333   0.000000
    4       20.694764   0.000000
    5       21.025949   0.000000
    6       23.037302   0.000000
    7       25.440496   0.000000
    8       26.118670   0.000000
 
  0.2857143E+00  0.0000000E+00  0.0000000E+00  0.3498542E-01
    1       -1.782166   1.000000
    2       10.832320   0.000000
    3       16.725739   0.000000
    4       18.943583   0.000000
    5       19.219487   0.000000
    6       21.136390   0.000000
    7       27.262483   0.000000
    8       27.639547   0.000000
 
  0.4285714E+00  0.0000000E+00  0.0000000E+00  0.3498542E-01
    1        1.297025   1.000000
    2        5.551461   1.000000
    3       15.672839   0.000000
    4       17.797216   0.000000
    5       18.302985   0.000000
    6       20.076047   0.000000
    7       29.558522   0.000000
    8       30.321554   0.000000
 
  0.1428571E+00  0.1428571E+00  0.0000000E+00  0.6997085E-01
    1       -2.404208   1.000000
    2       13.975009   0.000000
    3       14.396205   0.000000
    4       17.955398   0.000000
    5       22.075269   0.000000
    6       23.103399   0.000000
    7       25.909712   0.000000
    8       27.189467   0.000000
 
  0.2857143E+00  0.1428571E+00 -0.2775558E-16  0.1399417E+00
    1        0.072695   1.000000
    2        8.506842   1.000000
    3       12.506589   0.000000
    4       16.417134   0.000000
    5       21.149997   0.000000
    6       23.665527   0.000000
    7       26.485850   0.000000
    8       30.344522   0.000000
 
  0.4285714E+00  0.1428571E+00 -0.2775558E-16  0.6997085E-01
    1        3.560026   1.000000
    2        3.916421   1.000000
    3       11.933872   0.000000
    4       15.882110   0.000000
    5       20.650196   0.000000
    6       23.783311   0.000000
    7       28.530512   0.000000
    8       29.100678   0.000000
 
  0.2857143E+00  0.2857143E+00  0.0000000E+00  0.6997085E-01
    1        3.122973   1.000000
    2        7.197355   1.000000
    3        7.472993   1.000000
    4       15.386984   0.000000
    5       23.288037   0.000000
    6       24.204826   0.000000
    7       27.333898   0.000000
    8       30.735833   0.000000
 
  0.1428571E+00  0.1428571E+00  0.1428571E+00  0.2332362E-01
    1       -0.543378   1.000000
    2       11.614308   0.000000
    3       12.206341   0.000000
    4       12.206341   0.000000
    5       25.928996   0.000000
    6       25.928996   0.000000
    7       27.951295   0.000000
    8       27.951295   0.000000
 
  0.2857143E+00  0.1428571E+00  0.1428571E+00  0.6997085E-01
    1        2.518320   1.000000
    2        6.742389   1.000000
    3       10.685561   0.000000
    4       11.058433   0.000000
    5       26.295123   0.000000
    6       26.496226   0.000000
    7       30.350312   0.000000
    8       30.721120   0.000000
 
 -0.1428571E+00  0.1428571E+00  0.1428571E+00  0.1749271E-01
    1       -3.028129   1.000000
    2       16.433720   0.000000
    3       16.433720   0.000000
    4       18.166094   0.000000
    5       20.239955   0.000000
    6       23.836413   0.000000
    7       25.425816   0.000000
    8       25.425816   0.000000
 
  0.2857143E+00  0.2857143E+00  0.1428571E+00  0.2332362E-01
    1        5.834393   1.000000
    2        6.303345   1.000000
    3        6.303345   1.000000
    4       10.308267   0.000000
    5       28.286767   0.000000
    6       29.868646   0.000000
    7       29.868646   0.000000
    8       32.540267   0.000000
 
 -0.2857143E+00  0.2857143E+00  0.1428571E+00  0.6997085E-01
    1       -1.161638   1.000000
    2       11.354022   0.000000
    3       14.260554   0.000000
    4       16.818736   0.000000
    5       19.798313   0.000000
    6       22.513498   0.000000
    7       25.195242   0.000000
    8       29.839097   0.000000
 
 -0.4285714E+00  0.4285714E+00  0.1428571E+00  0.6997085E-01
    1        1.907919   1.000000
    2        6.140331   1.000000
    3       13.153432   0.000000
    4       15.763712   0.000000
    5       21.448349   0.000000
    6       21.512196   0.000000
    7       24.783143   0.000000
    8       27.594187   0.000000
 
 -0.2857143E+00  0.4285714E+00  0.1428571E+00  0.6997085E-01
    1        1.299547   1.000000
    2        9.503427   1.000000
    3        9.745481   0.998474
    4       17.424563   0.000000
    5       18.657329   0.000000
    6       22.088021   0.000000
    7       25.699774   0.000000
    8       29.268282   0.000000
 
 -0.4285714E+00 -0.4285714E+00  0.1428571E+00  0.6997085E-01
    1        4.775789   1.000000
    2        5.091701   1.000000
    3        9.046855   1.000000
    4       17.305839   0.000000
    5       20.280907   0.000000
    6       22.028929   0.000000
    7       22.468643   0.000000
    8       29.934735   0.000000
 
 -0.2857143E+00  0.2857143E+00  0.2857143E+00  0.1749271E-01
    1        0.687608   1.000000
    2       12.049467   0.000000
    3       12.049467   0.000000
    4       14.141409   0.000000
    5       15.217922   0.000000
    6       24.945554   0.000000
    7       27.457539   0.000000
    8       28.765248   0.000000
 
 -0.4285714E+00  0.4285714E+00  0.2857143E+00  0.6997085E-01
    1        3.724130   1.000000
    2        7.862943   1.000000
    3       10.927212   0.000000
    4       13.428976   0.000000
    5       16.481273   0.000000
    6       20.363575   0.000000
    7       27.014299   0.000000
    8       29.695259   0.000000
 
 -0.4285714E+00 -0.4285714E+00  0.2857143E+00  0.2332362E-01
    1        7.036431   1.000000
    2        7.389044   1.000000
    3        7.389044   1.000000
    4       15.179571   0.000000
    5       16.264606   0.000000
    6       16.264606   0.000000
    7       27.566260   0.000000
    8       33.875902   0.000000
 
 -0.4285714E+00  0.4285714E+00  0.4285714E+00  0.1749271E-01
    1        6.671447   1.000000
    2        9.800608   0.919719
    3        9.800609   0.919719
    4       11.853208   0.000000
    5       12.676484   0.000000
    6       15.392105   0.000000
    7       32.959451   0.000000
    8       33.400748   0.000000
