       N       E                     dE             d eps       ncg     rms          rms(c)
DAV:   1    -0.335654702156E+01   -0.33565E+01   -0.16295E+03   336   0.294E+02
DAV:   2    -0.494803708859E+01   -0.15915E+01   -0.15594E+01   504   0.240E+01
DAV:   3    -0.495501830159E+01   -0.69812E-02   -0.69660E-02   320   0.164E+00
DAV:   4    -0.495502370899E+01   -0.54074E-05   -0.54074E-05   528   0.502E-02
DAV:   5    -0.495502370974E+01   -0.75262E-09   -0.67607E-09   336   0.367E-04    0.287E+00
DAV:   6    -0.494358313453E+01    0.11441E-01   -0.36101E-03   344   0.267E-01    0.159E+00
DAV:   7    -0.493701215964E+01    0.65710E-02   -0.72633E-03   352   0.378E-01    0.140E-01
DAV:   8    -0.493699149638E+01    0.20663E-04   -0.32552E-05   432   0.428E-02    0.905E-03
DAV:   9    -0.493699195476E+01   -0.45838E-06   -0.44772E-07   360   0.377E-03
   1 F= -.49369920E+01 E0= -.49368023E+01  d E =-.493699E+01
       N       E                     dE             d eps       ncg     rms          rms(c)
DAV:   1    -0.495193480722E+01   -0.14943E-01   -0.38973E-01   344   0.247E+00    0.590E-01
DAV:   2    -0.494777579679E+01    0.41590E-02   -0.20360E-03   344   0.329E-01    0.336E-01
DAV:   3    -0.494532759918E+01    0.24482E-02   -0.26551E-03   344   0.218E-01    0.103E-01
DAV:   4    -0.494532557111E+01    0.20281E-05   -0.46084E-06   400   0.188E-02    0.890E-02
DAV:   5    -0.494531502063E+01    0.10550E-04   -0.10275E-06   360   0.691E-03    0.172E-02
DAV:   6    -0.494531545211E+01   -0.43148E-06   -0.22709E-08   184   0.124E-03
   2 F= -.49453155E+01 E0= -.49450968E+01  d E =-.832350E-02
       N       E                     dE             d eps       ncg     rms          rms(c)
DAV:   1    -0.494704537235E+01   -0.17304E-02   -0.29668E-02   328   0.693E-01    0.160E-01
DAV:   2    -0.494672795793E+01    0.31741E-03   -0.15255E-04   352   0.912E-02    0.907E-02
DAV:   3    -0.494654470979E+01    0.18325E-03   -0.20234E-04   344   0.604E-02    0.304E-02
DAV:   4    -0.494654474082E+01   -0.31028E-07   -0.33896E-07   368   0.511E-03    0.271E-02
DAV:   5    -0.494654550126E+01   -0.76044E-06   -0.80462E-08   184   0.200E-03    0.583E-03
DAV:   6    -0.494654532604E+01    0.17523E-06   -0.34403E-09   160   0.493E-04
   3 F= -.49465453E+01 E0= -.49463487E+01  d E =-.955337E-02
