unknown system                          
           1
     1.513326    1.513326    1.513326
     1.513326   -1.513326   -1.513326
    -1.513326    1.513326   -1.513326
   Si
     1
Direct configuration=     1
   0.00000000  0.00000000  0.00000000
unknown system                          
           1
     1.544831    1.544831    1.544831
     1.544831   -1.544831   -1.544831
    -1.544831    1.544831   -1.544831
   Si
     1
Direct configuration=     2
  -0.00000000 -0.00000000  0.00000000
unknown system                          
           1
     1.536250    1.536250    1.536250
     1.536250   -1.536250   -1.536250
    -1.536250    1.536250   -1.536250
   Si
     1
Direct configuration=     3
  -0.00000000 -0.00000000  0.00000000
