unknown system                          
           1
     2.863035    0.000000    0.000000
     0.000000    2.863035    0.000000
     0.000000    0.000000    2.863035
   Fe
     2
Direct configuration=     1
   0.00000000  0.00000000  0.00000000
   0.50000000  0.50000000  0.50000000
unknown system                          
           1
     2.799159   -0.000000    0.000000
     0.000000    2.799159    0.000000
     0.000000   -0.000000    2.799159
   Fe
     2
Direct configuration=     2
  -0.00000000  0.00000000  0.00000000
   0.50000000  0.50000000  0.50000000
unknown system                          
           1
     2.827097   -0.000000    0.000000
     0.000000    2.827097    0.000000
     0.000000   -0.000000    2.827097
   Fe
     2
Direct configuration=     3
  -0.00000000  0.00000000  0.00000000
   0.50000000  0.50000000  0.50000000
