   2   2   1   0
  0.1136426E+02  0.2832634E-09  0.2832634E-09  0.2832634E-09  0.5000000E-15
  1.000000000000000E-004
  CAR 
 unknown system                          
     27.10839964     -4.38642354  301      5.80651874      1.00000000
     -4.386  0.0000E+00  0.0000E+00
     -4.281  0.0000E+00  0.0000E+00
     -4.176  0.0000E+00  0.0000E+00
     -4.071 -0.5252E-31 -0.5513E-32
     -3.966 -0.2594E-27 -0.2724E-28
     -3.862 -0.7352E-24 -0.7721E-25
     -3.757 -0.1195E-20 -0.1255E-21
     -3.652 -0.1112E-17 -0.1169E-18
     -3.547 -0.5759E-15 -0.6057E-16
     -3.442 -0.1739E-12 -0.1832E-13
     -3.337 -0.2991E-10 -0.3158E-11
     -3.232 -0.2913E-08 -0.3090E-09
     -3.127 -0.1596E-06 -0.1706E-07
     -3.022 -0.4861E-05 -0.5274E-06
     -2.917 -0.8058E-04 -0.8987E-05
     -2.812 -0.6948E-03 -0.8193E-04
     -2.707 -0.2738E-02 -0.3693E-03
     -2.602 -0.1982E-02 -0.5774E-03
     -2.497  0.1725E-01  0.1233E-02
     -2.392  0.5483E-01  0.6990E-02
     -2.287  0.7937E-01  0.1532E-01
     -2.182  0.7801E-01  0.2351E-01
     -2.077  0.4844E-01  0.2860E-01
     -1.972  0.1510E-01  0.3018E-01
     -1.867  0.5705E-01  0.3617E-01
     -1.762  0.1665E+00  0.5366E-01
     -1.657  0.2321E+00  0.7803E-01
     -1.552  0.2288E+00  0.1021E+00
     -1.447  0.1594E+00  0.1188E+00
     -1.342  0.7533E-01  0.1267E+00
     -1.237  0.1064E+00  0.1379E+00
     -1.132  0.1909E+00  0.1579E+00
     -1.027  0.2151E+00  0.1805E+00
     -0.922  0.1969E+00  0.2012E+00
     -0.817  0.1391E+00  0.2158E+00
     -0.712  0.1390E+00  0.2304E+00
     -0.607  0.2235E+00  0.2538E+00
     -0.502  0.2448E+00  0.2795E+00
     -0.397  0.2520E+00  0.3060E+00
     -0.292  0.3308E+00  0.3407E+00
     -0.187  0.4073E+00  0.3835E+00
     -0.082  0.3538E+00  0.4206E+00
      0.023  0.2509E+00  0.4470E+00
      0.128  0.3246E+00  0.4810E+00
      0.233  0.4098E+00  0.5241E+00
      0.338  0.3460E+00  0.5604E+00
      0.443  0.2772E+00  0.5895E+00
      0.548  0.2845E+00  0.6193E+00
      0.653  0.3343E+00  0.6544E+00
      0.758  0.3940E+00  0.6958E+00
      0.863  0.6967E+00  0.7689E+00
      0.968  0.1272E+01  0.9025E+00
      1.073  0.1408E+01  0.1050E+01
      1.178  0.1014E+01  0.1157E+01
      1.283  0.9714E+00  0.1259E+01
      1.388  0.1550E+01  0.1422E+01
      1.493  0.2109E+01  0.1643E+01
      1.598  0.2222E+01  0.1876E+01
      1.703  0.2017E+01  0.2088E+01
      1.808  0.1848E+01  0.2282E+01
      1.913  0.1941E+01  0.2486E+01
      2.018  0.1852E+01  0.2680E+01
      2.123  0.1431E+01  0.2830E+01
      2.227  0.1231E+01  0.2960E+01
      2.332  0.1717E+01  0.3140E+01
      2.437  0.2883E+01  0.3443E+01
      2.542  0.3849E+01  0.3847E+01
      2.647  0.4005E+01  0.4267E+01
      2.752  0.3469E+01  0.4631E+01
      2.857  0.2839E+01  0.4929E+01
      2.962  0.2770E+01  0.5220E+01
      3.067  0.3139E+01  0.5550E+01
      3.172  0.3681E+01  0.5936E+01
      3.277  0.4349E+01  0.6393E+01
      3.382  0.4465E+01  0.6861E+01
      3.487  0.3411E+01  0.7220E+01
      3.592  0.1966E+01  0.7426E+01
      3.697  0.1239E+01  0.7556E+01
      3.802  0.1518E+01  0.7715E+01
      3.907  0.2176E+01  0.7944E+01
      4.012  0.2358E+01  0.8191E+01
      4.117  0.2385E+01  0.8442E+01
      4.222  0.3053E+01  0.8762E+01
      4.327  0.4112E+01  0.9194E+01
      4.432  0.4901E+01  0.9708E+01
      4.537  0.5074E+01  0.1024E+02
      4.642  0.4979E+01  0.1076E+02
      4.747  0.5445E+01  0.1134E+02
      4.852  0.6188E+01  0.1199E+02
      4.957  0.6715E+01  0.1269E+02
      5.062  0.7086E+01  0.1343E+02
      5.167  0.6516E+01  0.1412E+02
      5.272  0.4952E+01  0.1464E+02
      5.377  0.3666E+01  0.1502E+02
      5.482  0.2890E+01  0.1533E+02
      5.587  0.2129E+01  0.1555E+02
      5.692  0.1814E+01  0.1574E+02
      5.797  0.2248E+01  0.1598E+02
      5.902  0.2396E+01  0.1623E+02
      6.007  0.1698E+01  0.1641E+02
      6.112  0.1034E+01  0.1651E+02
      6.217  0.9274E+00  0.1661E+02
      6.322  0.1055E+01  0.1672E+02
      6.427  0.1063E+01  0.1683E+02
      6.532  0.1126E+01  0.1695E+02
      6.637  0.1409E+01  0.1710E+02
      6.742  0.1601E+01  0.1727E+02
      6.847  0.1765E+01  0.1745E+02
      6.952  0.2036E+01  0.1767E+02
      7.057  0.2353E+01  0.1791E+02
      7.162  0.2872E+01  0.1822E+02
      7.267  0.3230E+01  0.1855E+02
      7.372  0.3286E+01  0.1890E+02
      7.477  0.3391E+01  0.1926E+02
      7.582  0.3850E+01  0.1966E+02
      7.687  0.4881E+01  0.2017E+02
      7.792  0.5030E+01  0.2070E+02
      7.897  0.3097E+01  0.2103E+02
      8.002  0.1492E+01  0.2118E+02
      8.107  0.1965E+01  0.2139E+02
      8.212  0.2480E+01  0.2165E+02
      8.316  0.1671E+01  0.2182E+02
      8.421  0.7171E+00  0.2190E+02
      8.526  0.4313E+00  0.2194E+02
      8.631  0.3376E+00  0.2198E+02
      8.736  0.1842E+00  0.2200E+02
      8.841  0.3112E+00  0.2203E+02
      8.946  0.7356E+00  0.2211E+02
      9.051  0.1127E+01  0.2223E+02
      9.156  0.1266E+01  0.2236E+02
      9.261  0.1045E+01  0.2247E+02
      9.366  0.6528E+00  0.2254E+02
      9.471  0.2918E+00  0.2257E+02
      9.576  0.7557E-01  0.2258E+02
      9.681  0.2101E+00  0.2260E+02
      9.786  0.6250E+00  0.2267E+02
      9.891  0.8812E+00  0.2276E+02
      9.996  0.6982E+00  0.2283E+02
     10.101  0.3171E+00  0.2286E+02
     10.206  0.1925E+00  0.2288E+02
     10.311  0.4132E+00  0.2293E+02
     10.416  0.7073E+00  0.2300E+02
     10.521  0.7327E+00  0.2308E+02
     10.626  0.5344E+00  0.2314E+02
     10.731  0.4018E+00  0.2318E+02
     10.836  0.3880E+00  0.2322E+02
     10.941  0.4084E+00  0.2326E+02
     11.046  0.4759E+00  0.2331E+02
     11.151  0.5880E+00  0.2337E+02
     11.256  0.5122E+00  0.2343E+02
     11.361  0.2834E+00  0.2346E+02
     11.466  0.1051E+00  0.2347E+02
     11.571  0.7137E-01  0.2347E+02
     11.676  0.1832E+00  0.2349E+02
     11.781  0.2719E+00  0.2352E+02
     11.886  0.2820E+00  0.2355E+02
     11.991  0.2906E+00  0.2358E+02
     12.096  0.2573E+00  0.2361E+02
     12.201  0.1933E+00  0.2363E+02
     12.306  0.2037E+00  0.2365E+02
     12.411  0.2849E+00  0.2368E+02
     12.516  0.3909E+00  0.2372E+02
     12.621  0.4182E+00  0.2377E+02
     12.726  0.2645E+00  0.2379E+02
     12.831  0.8535E-01  0.2380E+02
     12.936  0.2027E-01  0.2381E+02
     13.041  0.4156E-01  0.2381E+02
     13.146  0.2220E+00  0.2383E+02
     13.251  0.5411E+00  0.2389E+02
     13.356  0.7971E+00  0.2397E+02
     13.461  0.9168E+00  0.2407E+02
     13.566  0.8239E+00  0.2416E+02
     13.671  0.5044E+00  0.2421E+02
     13.776  0.1941E+00  0.2423E+02
     13.881  0.4031E-01  0.2423E+02
     13.986  0.5773E-01  0.2424E+02
     14.091  0.2291E+00  0.2426E+02
     14.196  0.4761E+00  0.2431E+02
     14.301  0.6902E+00  0.2439E+02
     14.405  0.7577E+00  0.2447E+02
     14.510  0.9036E+00  0.2456E+02
     14.615  0.1271E+01  0.2469E+02
     14.720  0.1285E+01  0.2483E+02
     14.825  0.7468E+00  0.2491E+02
     14.930  0.3003E+00  0.2494E+02
     15.035  0.3372E+00  0.2497E+02
     15.140  0.6614E+00  0.2504E+02
     15.245  0.8374E+00  0.2513E+02
     15.350  0.7742E+00  0.2521E+02
     15.455  0.7809E+00  0.2529E+02
     15.560  0.8864E+00  0.2539E+02
     15.665  0.9133E+00  0.2548E+02
     15.770  0.7699E+00  0.2556E+02
     15.875  0.5178E+00  0.2562E+02
     15.980  0.4440E+00  0.2567E+02
     16.085  0.7522E+00  0.2574E+02
     16.190  0.1194E+01  0.2587E+02
     16.295  0.1245E+01  0.2600E+02
     16.400  0.8093E+00  0.2609E+02
     16.505  0.4457E+00  0.2613E+02
     16.610  0.4847E+00  0.2618E+02
     16.715  0.5137E+00  0.2624E+02
     16.820  0.5159E+00  0.2629E+02
     16.925  0.9628E+00  0.2639E+02
     17.030  0.1461E+01  0.2655E+02
     17.135  0.1300E+01  0.2668E+02
     17.240  0.8311E+00  0.2677E+02
     17.345  0.6003E+00  0.2683E+02
     17.450  0.5258E+00  0.2689E+02
     17.555  0.5048E+00  0.2694E+02
     17.660  0.5212E+00  0.2700E+02
     17.765  0.6370E+00  0.2706E+02
     17.870  0.9705E+00  0.2716E+02
     17.975  0.1245E+01  0.2729E+02
     18.080  0.9929E+00  0.2740E+02
     18.185  0.4275E+00  0.2744E+02
     18.290  0.1956E+00  0.2746E+02
     18.395  0.4691E+00  0.2751E+02
     18.500  0.7285E+00  0.2759E+02
     18.605  0.6509E+00  0.2766E+02
     18.710  0.5548E+00  0.2772E+02
     18.815  0.5824E+00  0.2778E+02
     18.920  0.6330E+00  0.2784E+02
     19.025  0.7600E+00  0.2792E+02
     19.130  0.1123E+01  0.2804E+02
     19.235  0.1356E+01  0.2818E+02
     19.340  0.8889E+00  0.2828E+02
     19.445  0.2697E+00  0.2831E+02
     19.550  0.3051E+00  0.2834E+02
     19.655  0.6363E+00  0.2841E+02
     19.760  0.6020E+00  0.2847E+02
     19.865  0.4521E+00  0.2852E+02
     19.970  0.6453E+00  0.2858E+02
     20.075  0.9617E+00  0.2868E+02
     20.180  0.9323E+00  0.2878E+02
     20.285  0.6224E+00  0.2885E+02
     20.390  0.4985E+00  0.2890E+02
     20.494  0.5993E+00  0.2896E+02
     20.599  0.5541E+00  0.2902E+02
     20.704  0.4301E+00  0.2907E+02
     20.809  0.5315E+00  0.2912E+02
     20.914  0.7395E+00  0.2920E+02
     21.019  0.7668E+00  0.2928E+02
     21.124  0.6396E+00  0.2935E+02
     21.229  0.5321E+00  0.2940E+02
     21.334  0.4241E+00  0.2945E+02
     21.439  0.2659E+00  0.2948E+02
     21.544  0.2916E+00  0.2951E+02
     21.649  0.6984E+00  0.2958E+02
     21.754  0.1156E+01  0.2970E+02
     21.859  0.1072E+01  0.2981E+02
     21.964  0.4534E+00  0.2986E+02
     22.069 -0.2473E-01  0.2986E+02
     22.174  0.7770E-02  0.2986E+02
     22.279  0.5611E+00  0.2992E+02
     22.384  0.1245E+01  0.3005E+02
     22.489  0.1300E+01  0.3019E+02
     22.594  0.7636E+00  0.3027E+02
     22.699  0.3046E+00  0.3030E+02
     22.804  0.1726E+00  0.3032E+02
     22.909  0.3605E+00  0.3035E+02
     23.014  0.6820E+00  0.3043E+02
     23.119  0.9745E+00  0.3053E+02
     23.224  0.1174E+01  0.3065E+02
     23.329  0.1045E+01  0.3076E+02
     23.434  0.6312E+00  0.3083E+02
     23.539  0.3604E+00  0.3086E+02
     23.644  0.5419E+00  0.3092E+02
     23.749  0.9038E+00  0.3102E+02
     23.854  0.1014E+01  0.3112E+02
     23.959  0.1101E+01  0.3124E+02
     24.064  0.1324E+01  0.3138E+02
     24.169  0.1039E+01  0.3149E+02
     24.274  0.3108E+00  0.3152E+02
     24.379  0.2122E-01  0.3152E+02
     24.484  0.4325E+00  0.3157E+02
     24.589  0.1030E+01  0.3167E+02
     24.694  0.1017E+01  0.3178E+02
     24.799  0.4790E+00  0.3183E+02
     24.904  0.2951E+00  0.3186E+02
     25.009  0.5423E+00  0.3192E+02
     25.114  0.5564E+00  0.3198E+02
     25.219  0.2377E+00  0.3200E+02
     25.324  0.7664E-02  0.3200E+02
     25.429 -0.2699E-01  0.3200E+02
     25.534 -0.9207E-02  0.3200E+02
     25.639 -0.1359E-02  0.3200E+02
     25.744 -0.1049E-03  0.3200E+02
     25.849 -0.4486E-05  0.3200E+02
     25.954 -0.1089E-06  0.3200E+02
     26.059 -0.1519E-08  0.3200E+02
     26.164 -0.1229E-10  0.3200E+02
     26.269 -0.5795E-13  0.3200E+02
     26.374 -0.1735E-15  0.3200E+02
     26.479  0.0000E+00  0.3200E+02
     26.583  0.0000E+00  0.3200E+02
     26.688  0.0000E+00  0.3200E+02
     26.793  0.0000E+00  0.3200E+02
     26.898  0.0000E+00  0.3200E+02
     27.003  0.0000E+00  0.3200E+02
     27.108  0.0000E+00  0.3200E+02
     27.10839964     -4.38642354  301      5.80651874      1.00000000
     -4.386  0.0000E+00  0.0000E+00  0.0000E+00  0.0000E+00  0.0000E+00  0.0000E+00  0.0000E+00  0.0000E+00  0.0000E+00  0.0000E+00  0.0000E+00  0.0000E+00  0.0000E+00  0.0000E+00  0.0000E+00  0.0000E+00  0.0000E+00  0.0000E+00  0.0000E+00  0.0000E+00  0.0000E+00  0.0000E+00  0.0000E+00  0.0000E+00  0.0000E+00  0.0000E+00  0.0000E+00  0.0000E+00  0.0000E+00  0.0000E+00  0.0000E+00  0.0000E+00  0.0000E+00  0.0000E+00  0.0000E+00  0.0000E+00
     -4.281  0.0000E+00  0.0000E+00  0.0000E+00  0.0000E+00  0.0000E+00  0.0000E+00  0.0000E+00  0.0000E+00  0.0000E+00  0.0000E+00  0.0000E+00  0.0000E+00  0.0000E+00  0.0000E+00  0.0000E+00  0.0000E+00  0.0000E+00  0.0000E+00  0.0000E+00  0.0000E+00  0.0000E+00  0.0000E+00  0.0000E+00  0.0000E+00  0.0000E+00  0.0000E+00  0.0000E+00  0.0000E+00  0.0000E+00  0.0000E+00  0.0000E+00  0.0000E+00  0.0000E+00  0.0000E+00  0.0000E+00  0.0000E+00
     -4.176  0.0000E+00  0.0000E+00  0.0000E+00  0.0000E+00  0.0000E+00  0.0000E+00  0.0000E+00  0.0000E+00  0.0000E+00  0.0000E+00  0.0000E+00  0.0000E+00  0.0000E+00  0.0000E+00  0.0000E+00  0.0000E+00  0.0000E+00  0.0000E+00  0.0000E+00  0.0000E+00  0.0000E+00  0.0000E+00  0.0000E+00  0.0000E+00  0.0000E+00  0.0000E+00  0.0000E+00  0.0000E+00  0.0000E+00  0.0000E+00  0.0000E+00  0.0000E+00  0.0000E+00  0.0000E+00  0.0000E+00  0.0000E+00
     -4.071 -0.1874E-31 -0.2543E-38 -0.7717E-39 -0.1874E-31 -0.1493E-33  0.1440E-39  0.1054E-39 -0.1493E-33 -0.1493E-33 -0.9539E-40  0.1772E-39 -0.1493E-33 -0.1493E-33 -0.1360E-39 -0.2421E-39 -0.1493E-33 -0.3910E-35  0.9113E-41 -0.9249E-42 -0.3910E-35 -0.3910E-35  0.6450E-41  0.8818E-41 -0.3910E-35 -0.1630E-39 -0.5842E-45 -0.1677E-43 -0.4917E-40 -0.3911E-35 -0.9305E-41  0.1098E-40 -0.3910E-35 -0.1303E-39  0.3084E-43  0.1405E-43  0.5962E-40
     -3.966 -0.9255E-28 -0.1256E-34 -0.3812E-35 -0.9255E-28 -0.7373E-30  0.7111E-36  0.5203E-36 -0.7373E-30 -0.7373E-30 -0.4712E-36  0.8753E-36 -0.7373E-30 -0.7373E-30 -0.6718E-36 -0.1196E-35 -0.7373E-30 -0.1932E-31  0.4501E-37 -0.4568E-38 -0.1932E-31 -0.1932E-31  0.3186E-37  0.4356E-37 -0.1932E-31 -0.8051E-36 -0.2886E-41 -0.8288E-40 -0.2429E-36 -0.1932E-31 -0.4596E-37  0.5422E-37 -0.1932E-31 -0.6438E-36  0.1523E-39  0.6943E-40  0.2945E-36
     -3.862 -0.2623E-24 -0.3560E-31 -0.1080E-31 -0.2623E-24 -0.2090E-26  0.2016E-32  0.1474E-32 -0.2090E-26 -0.2090E-26 -0.1335E-32  0.2481E-32 -0.2090E-26 -0.2090E-26 -0.1904E-32 -0.3389E-32 -0.2090E-26 -0.5475E-28  0.1276E-33 -0.1295E-34 -0.5475E-28 -0.5475E-28  0.9029E-34  0.1235E-33 -0.5475E-28 -0.2282E-32 -0.8179E-38 -0.2350E-36 -0.6884E-33 -0.5475E-28 -0.1303E-33  0.1537E-33 -0.5475E-28 -0.1825E-32  0.4318E-36  0.1968E-36  0.8347E-33
     -3.757 -0.4263E-21 -0.5785E-28 -0.1756E-28 -0.4263E-21 -0.3396E-23  0.3275E-29  0.2395E-29 -0.3396E-23 -0.3396E-23 -0.2170E-29  0.4032E-29 -0.3396E-23 -0.3396E-23 -0.3094E-29 -0.5506E-29 -0.3396E-23 -0.8897E-25  0.2073E-30 -0.2104E-31 -0.8897E-25 -0.8897E-25  0.1467E-30  0.2006E-30 -0.8897E-25 -0.3708E-29 -0.1329E-34 -0.3820E-33 -0.1119E-29 -0.8897E-25 -0.2117E-30  0.2497E-30 -0.8897E-25 -0.2966E-29  0.7017E-33  0.3199E-33  0.1357E-29
     -3.652 -0.3968E-18 -0.5385E-25 -0.1634E-25 -0.3968E-18 -0.3161E-20  0.3049E-26  0.2229E-26 -0.3161E-20 -0.3161E-20 -0.2020E-26  0.3753E-26 -0.3161E-20 -0.3161E-20 -0.2880E-26 -0.5125E-26 -0.3161E-20 -0.8282E-22  0.1930E-27 -0.1959E-28 -0.8282E-22 -0.8282E-22  0.1366E-27  0.1868E-27 -0.8282E-22 -0.3452E-26 -0.1237E-31 -0.3557E-30 -0.1041E-26 -0.8282E-22 -0.1971E-27  0.2325E-27 -0.8282E-22 -0.2761E-26  0.6532E-30  0.2978E-30  0.1263E-26
     -3.547 -0.2055E-15 -0.2788E-22 -0.8462E-23 -0.2055E-15 -0.1637E-17  0.1579E-23  0.1154E-23 -0.1637E-17 -0.1637E-17 -0.1046E-23  0.1943E-23 -0.1637E-17 -0.1637E-17 -0.1491E-23 -0.2653E-23 -0.1637E-17 -0.4288E-19  0.9993E-25 -0.1014E-25 -0.4288E-19 -0.4288E-19  0.7072E-25  0.9669E-25 -0.4288E-19 -0.1787E-23 -0.6407E-29 -0.1842E-27 -0.5392E-24 -0.4288E-19 -0.1020E-24  0.1204E-24 -0.4288E-19 -0.1429E-23  0.3382E-27  0.1542E-27  0.6538E-24
     -3.442 -0.6204E-13 -0.8419E-20 -0.2555E-20 -0.6204E-13 -0.4943E-15  0.4767E-21  0.3483E-21 -0.4942E-15 -0.4943E-15 -0.3158E-21  0.5868E-21 -0.4942E-15 -0.4943E-15 -0.4503E-21 -0.8011E-21 -0.4942E-15 -0.1295E-16  0.3017E-22 -0.3062E-23 -0.1295E-16 -0.1295E-16  0.2136E-22  0.2920E-22 -0.1295E-16 -0.5397E-21 -0.1935E-26 -0.5564E-25 -0.1628E-21 -0.1295E-16 -0.3081E-22  0.3635E-22 -0.1295E-16 -0.4316E-21  0.1021E-24  0.4657E-25  0.1974E-21
     -3.337 -0.1067E-10 -0.1448E-17 -0.4394E-18 -0.1067E-10 -0.8501E-13  0.8198E-19  0.5990E-19 -0.8500E-13 -0.8501E-13 -0.5432E-19  0.1009E-18 -0.8500E-13 -0.8501E-13 -0.7745E-19 -0.1378E-18 -0.8500E-13 -0.2227E-14  0.5190E-20 -0.5265E-21 -0.2227E-14 -0.2227E-14  0.3673E-20  0.5021E-20 -0.2227E-14 -0.9282E-19 -0.3329E-24 -0.9573E-23 -0.2800E-19 -0.2227E-14 -0.5299E-20  0.6251E-20 -0.2227E-14 -0.7423E-19  0.1756E-22  0.8010E-23  0.3395E-19
     -3.232 -0.1039E-08 -0.1410E-15 -0.4279E-16 -0.1039E-08 -0.8280E-11  0.7985E-17  0.5832E-17 -0.8278E-11 -0.8280E-11 -0.5290E-17  0.9830E-17 -0.8278E-11 -0.8280E-11 -0.7542E-17 -0.1341E-16 -0.8278E-11 -0.2169E-12  0.5055E-18 -0.5125E-19 -0.2169E-12 -0.2169E-12  0.3578E-18  0.4890E-18 -0.2169E-12 -0.9041E-17 -0.3246E-22 -0.9329E-21 -0.2727E-17 -0.2169E-12 -0.5161E-18  0.6088E-18 -0.2169E-12 -0.7230E-17  0.1711E-20  0.7802E-21  0.3307E-17
     -3.127 -0.5694E-07 -0.7725E-14 -0.2343E-14 -0.5691E-07 -0.4536E-09  0.4374E-15  0.3195E-15 -0.4534E-09 -0.4536E-09 -0.2897E-15  0.5386E-15 -0.4534E-09 -0.4536E-09 -0.4131E-15 -0.7346E-15 -0.4534E-09 -0.1188E-10  0.2769E-16 -0.2802E-17 -0.1188E-10 -0.1188E-10  0.1961E-16  0.2678E-16 -0.1188E-10 -0.4952E-15 -0.1785E-20 -0.5113E-19 -0.1494E-15 -0.1188E-10 -0.2827E-16  0.3334E-16 -0.1188E-10 -0.3961E-15  0.9369E-19  0.4274E-19  0.1811E-15
     -3.022 -0.1734E-05 -0.2352E-12 -0.7129E-13 -0.1732E-05 -0.1382E-07  0.1332E-13  0.9734E-14 -0.1380E-07 -0.1382E-07 -0.8811E-14  0.1642E-13 -0.1380E-07 -0.1382E-07 -0.1257E-13 -0.2235E-13 -0.1380E-07 -0.3619E-09  0.8437E-15 -0.8481E-16 -0.3615E-09 -0.3619E-09  0.5977E-15  0.8148E-15 -0.3615E-09 -0.1508E-13 -0.5502E-19 -0.1558E-17 -0.4550E-14 -0.3619E-09 -0.8609E-15  0.1014E-14 -0.3615E-09 -0.1206E-13  0.2852E-17  0.1301E-17  0.5509E-14
     -2.917 -0.2875E-04 -0.3896E-11 -0.1177E-11 -0.2862E-04 -0.2291E-06  0.2206E-12  0.1617E-12 -0.2280E-06 -0.2291E-06 -0.1454E-12  0.2727E-12 -0.2280E-06 -0.2291E-06 -0.2077E-12 -0.3695E-12 -0.2280E-06 -0.5996E-08  0.1399E-13 -0.1376E-14 -0.5977E-08 -0.5996E-08  0.9936E-14  0.1346E-13 -0.5977E-08 -0.2499E-12 -0.9473E-18 -0.2584E-16 -0.7537E-13 -0.5997E-08 -0.1426E-13  0.1675E-13 -0.5977E-08 -0.1999E-12  0.4720E-16  0.2149E-16  0.9097E-13
     -2.812 -0.2479E-03 -0.3346E-10 -0.9993E-11 -0.2440E-03 -0.1975E-05  0.1895E-11  0.1404E-11 -0.1943E-05 -0.1975E-05 -0.1235E-11  0.2368E-11 -0.1943E-05 -0.1975E-05 -0.1770E-11 -0.3153E-11 -0.1943E-05 -0.5162E-07  0.1209E-12 -0.1096E-13 -0.5103E-07 -0.5162E-07  0.8649E-13  0.1147E-12 -0.5103E-07 -0.2149E-11 -0.9243E-17 -0.2228E-15 -0.6487E-12 -0.5162E-07 -0.1226E-12  0.1423E-12 -0.5103E-07 -0.1723E-11  0.4044E-15  0.1832E-15  0.7729E-12
     -2.707 -0.9767E-03 -0.1296E-09 -0.3674E-10 -0.9134E-03 -0.7783E-05  0.7354E-11  0.5705E-11 -0.7275E-05 -0.7783E-05 -0.4531E-11  0.9618E-11 -0.7275E-05 -0.7783E-05 -0.6617E-11 -0.1187E-10 -0.7275E-05 -0.2019E-06  0.4801E-12 -0.2767E-13 -0.1925E-06 -0.2019E-06  0.3550E-12  0.4275E-12 -0.1925E-06 -0.8457E-11 -0.5523E-16 -0.8785E-15 -0.2610E-11 -0.2019E-06 -0.4767E-12  0.5253E-12 -0.1925E-06 -0.6841E-11  0.1550E-14  0.6849E-15  0.2776E-11
     -2.602 -0.7074E-03 -0.7139E-10 -0.1005E-12 -0.1793E-03 -0.5647E-05  0.4180E-11  0.5907E-11 -0.1417E-05 -0.5647E-05  0.8005E-13  0.9858E-11 -0.1417E-05 -0.5647E-05 -0.1195E-11 -0.3013E-11 -0.1417E-05 -0.1318E-06  0.3860E-12  0.1363E-12 -0.5331E-07 -0.1318E-06  0.4004E-12  0.6498E-13 -0.5331E-07 -0.1294E-10 -0.2605E-15 -0.6320E-15 -0.9367E-11 -0.1318E-06 -0.2822E-12  0.2291E-13 -0.5331E-07 -0.1243E-10  0.7508E-15  0.1456E-15 -0.7638E-11
     -2.497  0.6154E-02  0.9260E-09  0.3607E-09  0.8105E-02  0.4898E-04 -0.5191E-10 -0.2726E-10  0.6461E-04  0.4898E-04  0.4493E-10 -0.4650E-10  0.6461E-04  0.4898E-04  0.5924E-10  0.1020E-09  0.6461E-04  0.1343E-05 -0.2839E-11  0.9360E-12  0.1633E-05  0.1343E-05 -0.1539E-11 -0.3886E-11  0.1633E-05 -0.3548E-09 -0.2408E-14  0.5851E-14 -0.3948E-09  0.1343E-05  0.3310E-11 -0.5053E-11  0.1633E-05 -0.3682E-09 -0.7944E-14 -0.4830E-14 -0.4393E-09
     -2.392  0.1956E-01  0.2685E-08  0.8410E-09  0.2020E-01  0.1557E-03 -0.1516E-09 -0.1071E-09  0.1608E-03  0.1557E-03  0.1041E-09 -0.1813E-09  0.1608E-03  0.1557E-03  0.1473E-09  0.2605E-09  0.1608E-03  0.4094E-05 -0.9506E-11  0.1153E-11  0.4189E-05  0.4094E-05 -0.6551E-11 -0.9540E-11  0.4189E-05 -0.1190E-07 -0.5380E-13  0.2694E-13 -0.1201E-07  0.4094E-05  0.9773E-11 -0.1193E-10  0.4189E-05 -0.1194E-07  0.8416E-13  0.2328E-13 -0.1213E-07
     -2.287  0.2833E-01  0.3145E-08  0.3310E-09  0.1308E-01  0.2239E-03 -0.1778E-09 -0.2138E-09  0.1018E-03  0.2239E-03  0.3865E-10 -0.3612E-09  0.1018E-03  0.2239E-03  0.9952E-10  0.2017E-09  0.1018E-03  0.5322E-05 -0.1565E-10 -0.3852E-11  0.3057E-05  0.5322E-05 -0.1438E-10 -0.5752E-11  0.3057E-05 -0.1918E-06 -0.8549E-12  0.1740E-12 -0.1914E-06  0.5322E-05  0.1166E-10 -0.5236E-11  0.3057E-05 -0.1918E-06  0.1825E-11  0.6016E-12 -0.1915E-06
     -2.182  0.2790E-01  0.1985E-08 -0.1058E-08 -0.1264E-01  0.2061E-03 -0.8878E-10 -0.2960E-09 -0.1184E-03  0.2061E-03 -0.1348E-09 -0.5212E-09 -0.1184E-03  0.2061E-03 -0.3818E-10 -0.6031E-11 -0.1184E-03  0.3517E-05 -0.2219E-10 -0.1427E-10 -0.2494E-05  0.3517E-05 -0.2251E-10  0.6157E-11 -0.2494E-05 -0.1578E-05 -0.7070E-11  0.1245E-11 -0.1563E-05  0.3517E-05  0.5181E-11  0.1418E-10 -0.2494E-05 -0.1578E-05  0.1518E-10  0.5003E-11 -0.1563E-05
     -2.077  0.1749E-01  0.7696E-09 -0.1449E-08 -0.2327E-01  0.7732E-04  0.5411E-10 -0.2139E-09 -0.2453E-03  0.7732E-04 -0.1785E-09 -0.4582E-09 -0.2453E-03  0.7732E-04  0.2999E-10  0.1209E-09 -0.2453E-03 -0.1551E-05 -0.3094E-10 -0.2136E-10 -0.7441E-05 -0.1551E-05 -0.2149E-10  0.7885E-11 -0.7441E-05 -0.5780E-05 -0.2605E-10  0.4479E-11 -0.5537E-05 -0.1551E-05 -0.9047E-11  0.2187E-10 -0.7442E-05 -0.5779E-05  0.5439E-10  0.1782E-10 -0.5536E-05
     -1.972  0.5488E-02 -0.6070E-10 -0.5953E-09 -0.8837E-02  0.1343E-04 -0.1283E-09 -0.9516E-10 -0.6880E-04  0.1344E-04 -0.1099E-09 -0.1181E-09 -0.6880E-04  0.1344E-04 -0.1784E-09 -0.4592E-10 -0.6880E-04 -0.8915E-06 -0.5510E-11 -0.6454E-11 -0.1639E-05 -0.8915E-06 -0.9656E-11  0.4047E-11 -0.1639E-05 -0.2346E-05 -0.1170E-10  0.1762E-11 -0.3153E-06 -0.8915E-06 -0.4834E-11  0.1005E-10 -0.1639E-05 -0.2346E-05  0.9067E-11  0.2240E-11 -0.3152E-06
     -1.867  0.1899E-01 -0.4943E-09  0.2894E-09  0.2494E-01  0.5779E-03 -0.1572E-08 -0.4562E-09  0.7462E-03  0.5779E-03 -0.1962E-09  0.3899E-09  0.7462E-03  0.5779E-03 -0.2241E-08 -0.2792E-08  0.7462E-03  0.3267E-04  0.1580E-09  0.7498E-10  0.3867E-04  0.3267E-04  0.9020E-11  0.2657E-10  0.3867E-04  0.4142E-04  0.1814E-09 -0.3223E-10  0.4896E-04  0.3267E-04  0.9597E-10 -0.2012E-10  0.3868E-04  0.4142E-04 -0.4523E-09 -0.1515E-09  0.4896E-04
     -1.762  0.5547E-01  0.8443E-09  0.8123E-09  0.5933E-01  0.1678E-02 -0.2870E-08 -0.1089E-08  0.1750E-02  0.1678E-02 -0.1969E-09  0.6101E-09  0.1750E-02  0.1678E-02 -0.4457E-08 -0.6938E-08  0.1750E-02  0.9088E-04  0.3797E-09  0.1897E-09  0.9321E-04  0.9088E-04  0.4091E-10  0.6800E-10  0.9321E-04  0.1153E-03  0.5163E-09 -0.8917E-10  0.1179E-03  0.9088E-04  0.2734E-09 -0.6625E-10  0.9321E-04  0.1153E-03 -0.1136E-08 -0.3743E-09  0.1179E-03
     -1.657  0.7745E-01  0.8302E-08  0.7755E-09  0.3552E-01  0.2319E-02  0.1491E-08 -0.7652E-09  0.1043E-02  0.2319E-02  0.8840E-09 -0.8556E-09  0.1043E-02  0.2319E-02  0.3580E-09 -0.5912E-08  0.1043E-02  0.1116E-03  0.2728E-09  0.1706E-09  0.6544E-04  0.1116E-03  0.1034E-09  0.7026E-10  0.6544E-04  0.1437E-03  0.6857E-09 -0.1090E-09  0.8507E-04  0.1116E-03  0.3639E-09 -0.1163E-09  0.6545E-04  0.1437E-03 -0.1008E-08 -0.3060E-09  0.8507E-04
     -1.552  0.7650E-01  0.1969E-07  0.2310E-09 -0.3696E-01  0.2268E-02  0.1008E-07  0.4232E-09 -0.1150E-02  0.2268E-02  0.2650E-08 -0.3507E-08 -0.1150E-02  0.2268E-02  0.1052E-07 -0.8577E-10 -0.1150E-02  0.8071E-04 -0.1225E-09  0.2083E-10 -0.4262E-04  0.8070E-04  0.1789E-09  0.4785E-10 -0.4262E-04  0.1169E-03  0.6549E-09 -0.8300E-10 -0.3987E-04  0.8070E-04  0.3523E-09 -0.1686E-09 -0.4262E-04  0.1169E-03 -0.1338E-09  0.3735E-10 -0.3987E-04
     -1.447  0.5348E-01  0.1985E-07 -0.2375E-09 -0.6126E-01  0.1546E-02  0.1130E-07  0.8633E-09 -0.1903E-02  0.1546E-02  0.2660E-08 -0.3782E-08 -0.1903E-02  0.1546E-02  0.1213E-07  0.2679E-08 -0.1903E-02  0.2984E-04 -0.2678E-09 -0.6723E-10 -0.9311E-04  0.2984E-04  0.1601E-09  0.4737E-10 -0.9311E-04  0.6798E-04  0.4781E-09 -0.4035E-10 -0.9031E-04  0.2983E-04  0.2629E-09 -0.1633E-09 -0.9311E-04  0.6798E-04  0.2954E-09  0.2030E-09 -0.9031E-04
     -1.342  0.2474E-01  0.5916E-08  0.6659E-09 -0.1761E-01  0.8515E-03  0.5111E-08  0.2721E-09 -0.3745E-03  0.8515E-03  0.1897E-08 -0.1493E-08 -0.3745E-03  0.8515E-03  0.5813E-08  0.8537E-09 -0.3745E-03  0.7641E-04 -0.8026E-10  0.3925E-11  0.4272E-04  0.7641E-04  0.2279E-10 -0.1220E-09  0.4272E-04  0.4281E-04  0.7755E-10 -0.2830E-10 -0.1450E-04  0.7641E-04 -0.7573E-11  0.4989E-10  0.4273E-04  0.4281E-04  0.2190E-09 -0.8232E-11 -0.1450E-04
     -1.237  0.3285E-01 -0.9024E-08  0.4071E-08  0.4012E-01  0.1694E-02  0.1959E-08 -0.4543E-09  0.2044E-02  0.1694E-02  0.3740E-08  0.1500E-09  0.2044E-02  0.1694E-02  0.4643E-08 -0.2111E-08  0.2044E-02  0.3567E-03  0.1246E-09  0.2328E-09  0.3971E-03  0.3567E-03 -0.1134E-09 -0.6784E-09  0.3971E-03  0.1082E-03 -0.4562E-09 -0.1146E-09  0.1214E-03  0.3568E-03 -0.4632E-09  0.5356E-09  0.3971E-03  0.1082E-03  0.2989E-09 -0.5061E-09  0.1213E-03
     -1.132  0.5895E-01 -0.1528E-07  0.6925E-08  0.5881E-01  0.3055E-02 -0.6081E-09 -0.5202E-09  0.2925E-02  0.3055E-02  0.4194E-08  0.8207E-09  0.2925E-02  0.3055E-02  0.7111E-08 -0.2977E-08  0.2925E-02  0.6145E-03 -0.9319E-11  0.5195E-09  0.5832E-03  0.6145E-03  0.6273E-10 -0.1043E-08  0.5832E-03  0.1831E-03 -0.7695E-09 -0.2970E-09  0.1799E-03  0.6145E-03 -0.6272E-09  0.7932E-09  0.5833E-03  0.1831E-03  0.4434E-09 -0.8091E-09  0.1799E-03
     -1.027  0.6683E-01 -0.1092E-07  0.6216E-08  0.7226E-02  0.3418E-02 -0.1287E-07  0.6205E-09  0.2828E-03  0.3418E-02 -0.3393E-08  0.2250E-08  0.2828E-03  0.3418E-02  0.5541E-08  0.3183E-09  0.2828E-03  0.5744E-03 -0.8593E-09  0.8742E-09  0.1773E-03  0.5744E-03  0.9843E-09 -0.5442E-09  0.1773E-03  0.1529E-03 -0.6404E-09 -0.6474E-09  0.3863E-04  0.5744E-03  0.3313E-10  0.2844E-09  0.1773E-03  0.1528E-03  0.2971E-09 -0.5005E-09  0.3862E-04
     -0.922  0.6158E-01 -0.4419E-08  0.4422E-08 -0.5484E-01  0.3109E-02 -0.2597E-07  0.1924E-08 -0.2950E-02  0.3109E-02 -0.1171E-07  0.3863E-08 -0.2950E-02  0.3109E-02  0.2286E-08  0.4130E-08 -0.2950E-02  0.4124E-03 -0.1738E-08  0.1125E-08 -0.3477E-03  0.4124E-03  0.1931E-08  0.1560E-09 -0.3477E-03  0.6276E-04 -0.3848E-09 -0.9974E-09 -0.1577E-03  0.4124E-03  0.8498E-09 -0.3631E-09 -0.3477E-03  0.6277E-04  0.8594E-10 -0.6510E-10 -0.1577E-03
     -0.817  0.4317E-01 -0.1671E-08  0.2132E-08 -0.4540E-01  0.2280E-02 -0.1922E-07  0.1575E-08 -0.2297E-02  0.2281E-02 -0.1040E-07  0.2620E-08 -0.2297E-02  0.2281E-02  0.9429E-09  0.3605E-08 -0.2297E-02  0.2753E-03 -0.1250E-08  0.8616E-09 -0.3020E-03  0.2753E-03  0.1421E-08  0.2117E-09 -0.3020E-03  0.1094E-03 -0.1977E-09 -0.5285E-09 -0.4694E-04  0.2753E-03  0.6225E-09 -0.4019E-09 -0.3020E-03  0.1094E-03 -0.1115E-09  0.9889E-10 -0.4693E-04
     -0.712  0.4031E-01 -0.2416E-08 -0.1906E-08  0.2268E-01  0.2851E-02  0.2161E-08 -0.1976E-09  0.2073E-02  0.2851E-02 -0.7807E-08 -0.2338E-08  0.2073E-02  0.2851E-02  0.1770E-08  0.6202E-09  0.2073E-02  0.3858E-03  0.2993E-09  0.7246E-09  0.2722E-03  0.3858E-03 -0.1905E-09 -0.3651E-09  0.2722E-03  0.6396E-03 -0.1167E-09  0.1218E-08  0.6603E-03  0.3858E-03 -0.8328E-09 -0.1810E-09  0.2722E-03  0.6395E-03 -0.7632E-09  0.3076E-09  0.6602E-03
     -0.607  0.6330E-01 -0.4258E-08 -0.5349E-08  0.7351E-01  0.4920E-02  0.1698E-07 -0.2125E-08  0.5586E-02  0.4920E-02 -0.1063E-07 -0.7616E-08  0.5586E-02  0.4920E-02  0.3364E-08 -0.1116E-08  0.5586E-02  0.6706E-03  0.1269E-08  0.1083E-08  0.7385E-03  0.6706E-03 -0.1261E-08 -0.9198E-09  0.7385E-03  0.1295E-02 -0.2058E-09  0.2754E-08  0.1367E-02  0.6707E-03 -0.2246E-08 -0.1038E-09  0.7387E-03  0.1295E-02 -0.1379E-08  0.6153E-09  0.1367E-02
     -0.502  0.6996E-01 -0.1530E-08 -0.6475E-08  0.3895E-01  0.5391E-02  0.1966E-07 -0.5931E-08  0.2864E-02  0.5391E-02 -0.1296E-07 -0.1054E-07  0.2864E-02  0.5391E-02  0.2385E-08  0.4258E-09  0.2864E-02  0.5762E-03  0.5058E-09  0.1028E-08  0.3651E-03  0.5762E-03 -0.5583E-09 -0.2220E-09  0.3651E-03  0.1213E-02 -0.7419E-09  0.1425E-08  0.7980E-03  0.5762E-03 -0.1996E-08  0.1386E-09  0.3652E-03  0.1213E-02 -0.1141E-09  0.7838E-09  0.7979E-03
     -0.397  0.7257E-01  0.3238E-08 -0.8290E-08 -0.4448E-01  0.5616E-02  0.2218E-07 -0.1443E-07 -0.3555E-02  0.5616E-02 -0.1567E-07 -0.1310E-07 -0.3556E-02  0.5616E-02 -0.1808E-08  0.6262E-08 -0.3556E-02  0.4509E-03 -0.8845E-09  0.7548E-09 -0.3391E-03  0.4509E-03  0.1246E-08  0.1817E-08 -0.3391E-03  0.9386E-03 -0.2116E-08 -0.1913E-08 -0.4849E-03  0.4510E-03 -0.8787E-09  0.6264E-09 -0.3390E-03  0.9386E-03  0.2533E-08  0.8665E-09 -0.4849E-03
     -0.292  0.9200E-01 -0.5677E-08 -0.1064E-07 -0.4658E-01  0.7542E-02  0.2733E-07 -0.2448E-07 -0.3260E-02  0.7542E-02 -0.1629E-07 -0.1016E-07 -0.3260E-02  0.7542E-02 -0.9015E-08  0.1589E-07 -0.3260E-02  0.1538E-02  0.5747E-09  0.1457E-08  0.6330E-03  0.1538E-02  0.1476E-08  0.3629E-08  0.6330E-03  0.1565E-02 -0.3976E-08 -0.3091E-08 -0.1028E-03  0.1538E-02 -0.8097E-09  0.5506E-09  0.6333E-03  0.1565E-02  0.2259E-08  0.2327E-09 -0.1029E-03
     -0.187  0.1073E+00 -0.2771E-07 -0.1065E-07  0.4868E-01  0.9468E-02  0.2803E-07 -0.3201E-07  0.5040E-02  0.9468E-02 -0.1053E-07  0.1848E-08  0.5040E-02  0.9468E-02 -0.1828E-07  0.2653E-07  0.5040E-02  0.3642E-02  0.5116E-08  0.2973E-08  0.3386E-02  0.3642E-02 -0.2714E-09  0.4479E-08  0.3386E-02  0.2782E-02 -0.5639E-08 -0.1423E-08  0.2113E-02  0.3642E-02 -0.1651E-08 -0.3011E-09  0.3387E-02  0.2782E-02 -0.1700E-08 -0.1350E-08  0.2112E-02
     -0.082  0.9046E-01 -0.3561E-07 -0.8215E-08  0.9216E-01  0.8320E-02  0.2196E-07 -0.2728E-07  0.8556E-02  0.8320E-02 -0.4649E-08  0.7737E-08  0.8556E-02  0.8320E-02 -0.1843E-07  0.2553E-07  0.8556E-02  0.3958E-02  0.6633E-08  0.3119E-08  0.4062E-02  0.3958E-02 -0.1313E-08  0.3819E-08  0.4062E-02  0.2818E-02 -0.5095E-08 -0.6340E-10  0.2864E-02  0.3958E-02 -0.1815E-08 -0.6877E-09  0.4063E-02  0.2817E-02 -0.3684E-08 -0.1813E-08  0.2863E-02