    2    2    1    1
  0.1136426E+02  0.2832634E-09  0.2832634E-09  0.2832634E-09  0.5000000E-15
  1.000000000000000E-004
  CAR 
 unknown system                          
     16    512     32
 
  0.6250000E-01  0.6250000E-01  0.6250000E-01  0.1953125E-02
    1       -2.386424   1.000000
    2       -2.180639   1.000000
    3        1.145934   1.000000
    4        1.146547   1.000000
    5        2.901286   1.000000
    6        2.901729   1.000000
    7        3.397946   1.000000
    8        3.426769   1.000000
    9        3.616011   1.000000
   10        4.805549   1.000000
   11        4.816258   1.000000
   12        5.409768   1.008423
   13        5.434461   1.012224
   14        5.512104   1.028877
   15        5.650550   0.984709
   16        5.793057   0.556818
   17        5.829053   0.405316
   18        7.405130  -0.000000
   19        7.409579  -0.000000
   20        7.735654  -0.000000
   21        8.095111  -0.000000
   22        8.130633  -0.000000
   23       15.241738   0.000000
   24       15.337043   0.000000
   25       15.636058   0.000000
   26       15.785738   0.000000
   27       15.820672   0.000000
   28       16.125959   0.000000
   29       22.269697   0.000000
   30       22.279127   0.000000
   31       23.087000   0.000000
   32       23.094720   0.000000
 
  0.1875000E+00  0.6250000E-01  0.6250000E-01  0.1953125E-02
    1       -1.763352   1.000000
    2       -1.550282   1.000000
    3        1.400802   1.000000
    4        1.407005   1.000000
    5        3.085704   1.000000
    6        3.205882   1.000000
    7        3.327842   1.000000
    8        3.395062   1.000000
    9        3.876777   1.000000
   10        4.562122   1.000000
   11        4.931408   1.000000
   12        4.952389   1.000000
   13        5.309171   1.001228
   14        5.349636   1.002872
   15        5.380651   1.005149
   16        5.777440   0.621611
   17        5.935306   0.061243
   18        7.043220  -0.000000
   19        7.087013  -0.000000
   20        7.522437  -0.000000
   21        7.551264  -0.000000
   22        8.078350  -0.000000
   23       12.461072   0.000000
   24       13.239438   0.000000
   25       16.364225   0.000000
   26       16.625358   0.000000
   27       16.978932   0.000000
   28       17.188001   0.000000
   29       22.554627   0.000000
   30       23.315588   0.000000
   31       24.007956   0.000000
   32       24.648338   0.000000
 
  0.3125000E+00  0.6250000E-01  0.6250000E-01  0.1953125E-02
    1       -0.629951   1.000000
    2       -0.376324   1.000000
    3        1.698358   1.000000
    4        1.890111   1.000000
    5        3.129564   1.000000
    6        3.358608   1.000000
    7        3.369078   1.000000
    8        3.772610   1.000000
    9        4.145465   1.000000
   10        4.243746   1.000000
   11        4.330844   1.000000
   12        4.725287   1.000000
   13        5.149094   1.000017
   14        5.305574   1.001134
   15        5.339149   1.002326
   16        5.508840   1.028166
   17        6.327081  -0.000723
   18        6.338588  -0.000549
   19        6.527850  -0.000002
   20        6.784134  -0.000000
   21        7.769831  -0.000000
   22        7.778727  -0.000000
   23        9.395796  -0.000000
   24       10.612018  -0.000000
   25       18.123552   0.000000
   26       18.399772   0.000000
   27       18.864368   0.000000
   28       19.066381   0.000000
   29       23.191988   0.000000
   30       23.850514   0.000000
   31       24.543794   0.000000
   32       24.982214   0.000000
 
  0.4375000E+00  0.6250000E-01  0.6250000E-01  0.1953125E-02
    1        0.694750   1.000000
    2        1.123035   1.000000
    3        1.588854   1.000000
    4        2.487277   1.000000
    5        2.515785   1.000000
    6        3.122068   1.000000
    7        3.548570   1.000000
    8        3.859625   1.000000
    9        3.922912   1.000000
   10        4.192761   1.000000
   11        4.504953   1.000000
   12        4.672177   1.000000
   13        5.114714   1.000006
   14        5.154397   1.000020
   15        5.463972   1.017996
   16        5.659308   0.971833
   17        5.812332   0.475413
   18        6.057855  -0.035307
   19        6.214190  -0.007049
   20        6.828137  -0.000000
   21        6.984662  -0.000000
   22        7.326736  -0.000000
   23        8.097690  -0.000000
   24        8.857148  -0.000000
   25       20.200176   0.000000
   26       20.626132   0.000000
   27       20.977291   0.000000
   28       21.333174   0.000000
   29       22.332536   0.000000
   30       22.975465   0.000000
   31       23.173209   0.000000
   32       23.822117   0.000000
 
 -0.4375000E+00  0.6250000E-01  0.6250000E-01  0.1953125E-02
    1        0.694750   1.000000
    2        1.123035   1.000000
    3        1.588854   1.000000
    4        2.487277   1.000000
    5        2.515785   1.000000
    6        3.122068   1.000000
    7        3.548570   1.000000
    8        3.859625   1.000000
    9        3.922912   1.000000
   10        4.192761   1.000000
   11        4.504953   1.000000
   12        4.672177   1.000000
   13        5.114714   1.000006
   14        5.154397   1.000020
   15        5.463972   1.017996
   16        5.659309   0.971832
   17        5.812332   0.475414
   18        6.057856  -0.035307
   19        6.214190  -0.007049
   20        6.828136  -0.000000
   21        6.984662  -0.000000
   22        7.326736  -0.000000
   23        8.097690  -0.000000
   24        8.857148  -0.000000
   25       20.200176   0.000000
   26       20.626130   0.000000
   27       20.977291   0.000000
   28       21.333175   0.000000
   29       22.332536   0.000000
   30       22.975466   0.000000
   31       23.173211   0.000000
   32       23.823466   0.000000
 
 -0.3125000E+00  0.6250000E-01  0.6250000E-01  0.1953125E-02
    1       -0.629951   1.000000
    2       -0.376323   1.000000
    3        1.698358   1.000000
    4        1.890111   1.000000
    5        3.129564   1.000000
    6        3.358608   1.000000
    7        3.369078   1.000000
    8        3.772609   1.000000
    9        4.145465   1.000000
   10        4.243746   1.000000
   11        4.330844   1.000000
   12        4.725287   1.000000
   13        5.149094   1.000017
   14        5.305574   1.001134
   15        5.339149   1.002326
   16        5.508840   1.028166
   17        6.327081  -0.000723
   18        6.338588  -0.000549
   19        6.527850  -0.000002
   20        6.784134  -0.000000
   21        7.769831  -0.000000
   22        7.778727  -0.000000
   23        9.395796  -0.000000
   24       10.612018  -0.000000
   25       18.123552   0.000000
   26       18.399771   0.000000
   27       18.864368   0.000000
   28       19.066383   0.000000
   29       23.191988   0.000000
   30       23.850514   0.000000
   31       24.543487   0.000000
   32       24.984487   0.000000
 
 -0.1875000E+00  0.6250000E-01  0.6250000E-01  0.1953125E-02
    1       -1.763352   1.000000
    2       -1.550282   1.000000
    3        1.400802   1.000000
    4        1.407005   1.000000
    5        3.085704   1.000000
    6        3.205882   1.000000
    7        3.327842   1.000000
    8        3.395063   1.000000
    9        3.876778   1.000000
   10        4.562122   1.000000
   11        4.931408   1.000000
   12        4.952389   1.000000
   13        5.309171   1.001228
   14        5.349636   1.002872
   15        5.380650   1.005149
   16        5.777441   0.621609
   17        5.935306   0.061243
   18        7.043220  -0.000000
   19        7.087014  -0.000000
   20        7.522437  -0.000000
   21        7.551264  -0.000000
   22        8.078350  -0.000000
   23       12.461072   0.000000
   24       13.239438   0.000000
   25       16.364225   0.000000
   26       16.625357   0.000000
   27       16.978932   0.000000
   28       17.188002   0.000000
   29       22.554627   0.000000
   30       23.315588   0.000000
   31       24.007957   0.000000
   32       24.648342   0.000000
 
 -0.6250000E-01  0.6250000E-01  0.6250000E-01  0.1953125E-02
    1       -2.386424   1.000000
    2       -2.180639   1.000000
    3        1.145934   1.000000
    4        1.146547   1.000000
    5        2.901286   1.000000
    6        2.901729   1.000000
    7        3.397946   1.000000
    8        3.426769   1.000000
    9        3.616012   1.000000
   10        4.805549   1.000000
   11        4.816257   1.000000
   12        5.409768   1.008423
   13        5.434461   1.012224
   14        5.512104   1.028877
   15        5.650550   0.984710
   16        5.793058   0.556817
   17        5.829053   0.405315
   18        7.405131  -0.000000
   19        7.409579  -0.000000
   20        7.735654  -0.000000
   21        8.095111  -0.000000
   22        8.130632  -0.000000
   23       15.241738   0.000000
   24       15.337043   0.000000
   25       15.636057   0.000000
   26       15.785738   0.000000
   27       15.820672   0.000000
   28       16.125960   0.000000
   29       22.269697   0.000000
   30       22.279127   0.000000
   31       23.087000   0.000000
   32       23.094721   0.000000
 
  0.6250000E-01  0.1875000E+00  0.6250000E-01  0.1953125E-02
    1       -1.763351   1.000000
    2       -1.550283   1.000000
    3        1.401196   1.000000
    4        1.406600   1.000000
    5        3.085361   1.000000
    6        3.206281   1.000000
    7        3.325415   1.000000
    8        3.398201   1.000000
    9        3.874769   1.000000
   10        4.568592   1.000000
   11        4.922707   1.000000
   12        4.951227   1.000000
   13        5.309048   1.001225
   14        5.352423   1.003034
   15        5.385880   1.005648
   16        5.775793   0.628327
   17        5.933118   0.065728
   18        7.041924  -0.000000
   19        7.088278  -0.000000
   20        7.524199  -0.000000
   21        7.550609  -0.000000
   22        8.077849  -0.000000
   23       12.461373   0.000000
   24       13.239101   0.000000
   25       16.350813   0.000000
   26       16.663429   0.000000
   27       16.938051   0.000000
   28       17.204276   0.000000
   29       22.554581   0.000000
   30       23.315656   0.000000
   31       24.007935   0.000000
   32       24.648330   0.000000
 
  0.1875000E+00  0.1875000E+00  0.6250000E-01  0.1953125E-02
    1       -1.182957   1.000000
    2       -0.953056   1.000000
    3        1.567426   1.000000
    4        1.711170   1.000000
    5        3.098651   1.000000
    6        3.302254   1.000000
    7        3.319485   1.000000
    8        3.410868   1.000000
    9        4.288338   1.000000
   10        4.304118   1.000000
   11        4.644655   1.000000
   12        4.859691   1.000000
   13        5.044233   1.000000
   14        5.051951   1.000001
   15        5.241689   1.000241
   16        5.879184   0.213872
   17        6.281326  -0.001995
   18        6.385666  -0.000165
   19        7.167925  -0.000000
   20        7.169967  -0.000000
   21        7.472511  -0.000000
   22        8.195596  -0.000000
   23       12.593341   0.000000
   24       13.435871   0.000000
   25       14.181625   0.000000
   26       15.081256   0.000000
   27       17.403464   0.000000
   28       18.012403   0.000000
   29       23.436125   0.000000
   30       24.085321   0.000000
   31       24.575088   0.000000
   32       25.054804   0.000000
 
  0.3125000E+00  0.1875000E+00  0.6250000E-01  0.1953125E-02
    1       -0.170745   1.000000
    2        0.138681   1.000000
    3        1.746825   1.000000
    4        2.185408   1.000000
    5        2.970968   1.000000
    6        3.256907   1.000000
    7        3.296708   1.000000
    8        3.712142   1.000000
    9        3.899858   1.000000
   10        4.470178   1.000000
   11        4.593100   1.000000
   12        4.763632   1.000000
   13        4.882349   1.000000
   14        5.039692   1.000000
   15        5.124778   1.000008
   16        5.630805   1.007508
   17        5.810441   0.483407
   18        6.693289  -0.000000
   19        6.888244  -0.000000
   20        6.940418  -0.000000
   21        7.670234  -0.000000
   22        8.107001  -0.000000
   23        9.932794  -0.000000
   24       11.129147  -0.000000
   25       15.185526   0.000000
   26       16.148571   0.000000
   27       18.949376   0.000000
   28       19.618778   0.000000
   29       21.756504   0.000000
   30       22.427516   0.000000
   31       24.073501   0.000000
   32       24.623462   0.000000
 
  0.4375000E+00  0.1875000E+00  0.6250000E-01  0.1953125E-02
    1        0.902711   1.000000
    2        1.480583   1.000000
    3        1.590895   1.000000
    4        2.655239   1.000000
    5        2.672693   1.000000
    6        2.948705   1.000000
    7        3.220347   1.000000
    8        3.347678   1.000000
    9        4.367153   1.000000
   10        4.376073   1.000000
   11        4.447983   1.000000
   12        4.805333   1.000000
   13        5.002346   1.000000
   14        5.163736   1.000027
   15        5.221998   1.000143
   16        5.522883   1.031089
   17        5.744191   0.750070
   18        6.553831  -0.000001
   19        6.635997  -0.000000
   20        7.375009  -0.000000
   21        7.426214  -0.000000
   22        7.801915  -0.000000
   23        8.069489  -0.000000
   24        9.120983  -0.000000
   25       17.027587   0.000000
   26       17.953442   0.000000
   27       19.224983   0.000000
   28       20.047153   0.000000
   29       20.927974   0.000000
   30       21.601924   0.000000
   31       23.151646   0.000000
   32       23.727861   0.000000
 
 -0.4375000E+00  0.1875000E+00  0.6250000E-01  0.1953125E-02
    1        0.902711   1.000000
    2        1.480583   1.000000
    3        1.590894   1.000000
    4        2.655240   1.000000
    5        2.672693   1.000000
    6        2.948705   1.000000
    7        3.220347   1.000000
    8        3.347678   1.000000
    9        4.367153   1.000000
   10        4.376073   1.000000
   11        4.447983   1.000000
   12        4.805333   1.000000
   13        5.002346   1.000000
   14        5.163736   1.000027
   15        5.221998   1.000143
   16        5.522883   1.031089
   17        5.744191   0.750067
   18        6.553831  -0.000001
   19        6.635998  -0.000000
   20        7.375008  -0.000000
   21        7.426214  -0.000000
   22        7.801915  -0.000000
   23        8.069489  -0.000000
   24        9.120984  -0.000000
   25       17.027586   0.000000
   26       17.953442   0.000000
   27       19.224983   0.000000
   28       20.047153   0.000000
   29       20.927973   0.000000
   30       21.601925   0.000000
   31       23.151648   0.000000
   32       23.727860   0.000000
 
 -0.3125000E+00  0.1875000E+00  0.6250000E-01  0.1953125E-02
    1       -0.170745   1.000000
    2        0.138681   1.000000
    3        1.746825   1.000000
    4        2.185408   1.000000
    5        2.970968   1.000000
    6        3.256908   1.000000
    7        3.296709   1.000000
    8        3.712142   1.000000
    9        3.899858   1.000000
   10        4.470177   1.000000
   11        4.593100   1.000000
   12        4.763632   1.000000
   13        4.882350   1.000000
   14        5.039692   1.000000
   15        5.124777   1.000008
   16        5.630805   1.007508
   17        5.810441   0.483406
   18        6.693289  -0.000000
   19        6.888244  -0.000000
   20        6.940419  -0.000000
   21        7.670234  -0.000000
   22        8.107001  -0.000000
   23        9.932794  -0.000000
   24       11.129147  -0.000000
   25       15.185526   0.000000
   26       16.148572   0.000000
   27       18.949375   0.000000
   28       19.618779   0.000000
   29       21.756503   0.000000
   30       22.427518   0.000000
   31       24.073499   0.000000
   32       24.623475   0.000000
 
 -0.1875000E+00  0.1875000E+00  0.6250000E-01  0.1953125E-02
    1       -1.182957   1.000000
    2       -0.953055   1.000000
    3        1.567426   1.000000
    4        1.711170   1.000000
    5        3.098651   1.000000
    6        3.302255   1.000000
    7        3.319485   1.000000
    8        3.410868   1.000000
    9        4.288338   1.000000
   10        4.304118   1.000000
   11        4.644654   1.000000
   12        4.859691   1.000000
   13        5.044234   1.000000
   14        5.051951   1.000001
   15        5.241688   1.000241
   16        5.879184   0.213870
   17        6.281326  -0.001995
   18        6.385665  -0.000165
   19        7.167926  -0.000000
   20        7.169967  -0.000000
   21        7.472510  -0.000000
   22        8.195596  -0.000000
   23       12.593341   0.000000
   24       13.435871   0.000000
   25       14.181625   0.000000
   26       15.081257   0.000000
   27       17.403463   0.000000
   28       18.012404   0.000000
   29       23.436123   0.000000
   30       24.085322   0.000000
   31       24.575081   0.000000
   32       25.054734   0.000000
 
 -0.6250000E-01  0.1875000E+00  0.6250000E-01  0.1953125E-02
    1       -1.763352   1.000000
    2       -1.550283   1.000000
    3        1.401196   1.000000
    4        1.406600   1.000000
    5        3.085361   1.000000
    6        3.206281   1.000000
    7        3.325415   1.000000
    8        3.398201   1.000000
    9        3.874769   1.000000
   10        4.568591   1.000000
   11        4.922707   1.000000
   12        4.951227   1.000000
   13        5.309049   1.001225
   14        5.352423   1.003034
   15        5.385880   1.005648
   16        5.775793   0.628325
   17        5.933118   0.065728
   18        7.041924  -0.000000
   19        7.088278  -0.000000
   20        7.524198  -0.000000
   21        7.550609  -0.000000
   22        8.077848  -0.000000
   23       12.461373   0.000000
   24       13.239102   0.000000
   25       16.350813   0.000000
   26       16.663428   0.000000
   27       16.938051   0.000000
   28       17.204277   0.000000
   29       22.554580   0.000000
   30       23.315657   0.000000
   31       24.007936   0.000000
   32       24.648329   0.000000
 
  0.6250000E-01  0.3125000E+00  0.6250000E-01  0.1953125E-02
    1       -0.629946   1.000000
    2       -0.376326   1.000000
    3        1.698594   1.000000
    4        1.889797   1.000000
    5        3.129256   1.000000
    6        3.352882   1.000000
    7        3.374567   1.000000
    8        3.773432   1.000000
    9        4.133547   1.000000
   10        4.260076   1.000000
   11        4.329127   1.000000
   12        4.728276   1.000000
   13        5.132416   1.000010
   14        5.313119   1.001340
   15        5.345116   1.002625
   16        5.506998   1.027758
   17        6.325497  -0.000750
   18        6.329819  -0.000677
   19        6.536185  -0.000002
   20        6.785931  -0.000000
   21        7.769603  -0.000000
   22        7.778149  -0.000000
   23        9.396211  -0.000000
   24       10.611756  -0.000000
   25       18.111681   0.000000
   26       18.427904   0.000000
   27       18.832134   0.000000
   28       19.082366   0.000000
   29       23.191919   0.000000
   30       23.850597   0.000000
   31       24.543262   0.000000
   32       24.984701   0.000000
 
  0.1875000E+00  0.3125000E+00  0.6250000E-01  0.1953125E-02
    1       -0.170741   1.000000
    2        0.138678   1.000000
    3        1.746950   1.000000
    4        2.185163   1.000000
    5        2.970967   1.000000
    6        3.256562   1.000000
    7        3.296118   1.000000
    8        3.714435   1.000000
    9        3.898414   1.000000
   10        4.471326   1.000000
   11        4.593152   1.000000
   12        4.772137   1.000000
   13        4.871786   1.000000
   14        5.037956   1.000000
   15        5.127597   1.000009
   16        5.630591   1.007711
   17        5.810352   0.483781
   18        6.693334  -0.000000
   19        6.875617  -0.000000
   20        6.954258  -0.000000
   21        7.669192  -0.000000
   22        8.106947  -0.000000
   23        9.933117  -0.000000
   24       11.128950  -0.000000
   25       15.185373   0.000000
   26       16.148785   0.000000
   27       18.949192   0.000000
   28       19.618901   0.000000
   29       21.756486   0.000000
   30       22.427535   0.000000
   31       24.073480   0.000000
   32       24.623679   0.000000
 
  0.3125000E+00  0.3125000E+00  0.6250000E-01  0.1953125E-02
    1        0.481903   1.000000
    2        1.007353   1.000000
    3        1.582335   1.000000
    4        2.688788   1.000000
    5        2.826259   1.000000
    6        3.098703   1.000000
    7        3.162746   1.000000
    8        3.520327   1.000000
    9        4.414961   1.000000
   10        4.492459   1.000000
   11        4.532568   1.000000
   12        4.728566   1.000000
   13        4.932684   1.000000
   14        5.028925   1.000000
   15        5.049540   1.000001
   16        5.377548   1.004870
   17        5.964296   0.012850
   18        6.692519  -0.000000
   19        7.189353  -0.000000
   20        7.538590  -0.000000
   21        7.593317  -0.000000
   22        8.292568  -0.000000
   23        9.735681  -0.000000
   24       10.869969  -0.000000
   25       13.422409   0.000000
   26       14.676453   0.000000
   27       18.789458   0.000000
   28       19.640115   0.000000
   29       20.171169   0.000000
   30       20.820519   0.000000
   31       24.567257   0.000000
   32       25.013675   0.000000
 
  0.4375000E+00  0.3125000E+00  0.6250000E-01  0.1953125E-02
    1        0.970832   1.000000
    2        1.304925   1.000000
    3        1.910841   1.000000
    4        2.607247   1.000000
    5        2.613332   1.000000
    6        2.772810   1.000000
    7        3.490113   1.000000
    8        3.858775   1.000000
    9        4.437574   1.000000
   10        4.565096   1.000000
   11        4.635855   1.000000
   12        4.748515   1.000000
   13        5.014326   1.000000
   14        5.165800   1.000029
   15        5.321203   1.001597
   16        5.834299   0.383699
   17        6.091355  -0.030855
   18        6.936253  -0.000000
   19        7.131975  -0.000000
   20        7.758632  -0.000000
   21        7.770938  -0.000000
   22        8.147549  -0.000000
   23        8.196646  -0.000000
   24        9.287583  -0.000000
   25       14.312422   0.000000
   26       15.507925   0.000000
   27       16.263802   0.000000
   28       17.290969   0.000000
   29       21.806395   0.000000
   30       22.381113   0.000000
   31       23.647235   0.000000
   32       24.043496   0.000000
 
 -0.4375000E+00  0.3125000E+00  0.6250000E-01  0.1953125E-02
    1        0.970833   1.000000
    2        1.304924   1.000000
    3        1.910841   1.000000
    4        2.607247   1.000000
    5        2.613332   1.000000
    6        2.772810   1.000000
    7        3.490113   1.000000
    8        3.858775   1.000000
    9        4.437575   1.000000
   10        4.565096   1.000000
   11        4.635856   1.000000
   12        4.748514   1.000000
   13        5.014325   1.000000
   14        5.165800   1.000029
   15        5.321203   1.001597
   16        5.834299   0.383698
   17        6.091356  -0.030855
   18        6.936251  -0.000000
   19        7.131977  -0.000000
   20        7.758632  -0.000000
   21        7.770937  -0.000000
   22        8.147549  -0.000000
   23        8.196646  -0.000000
   24        9.287584  -0.000000
   25       14.312421   0.000000
   26       15.507926   0.000000
   27       16.263802   0.000000
   28       17.290969   0.000000
   29       21.806394   0.000000
   30       22.381115   0.000000
   31       23.647238   0.000000
   32       24.043495   0.000000
 
 -0.3125000E+00  0.3125000E+00  0.6250000E-01  0.1953125E-02
    1        0.481903   1.000000
    2        1.007353   1.000000
    3        1.582335   1.000000
    4        2.688788   1.000000
    5        2.826258   1.000000
    6        3.098704   1.000000
    7        3.162746   1.000000
    8        3.520327   1.000000
    9        4.414962   1.000000
   10        4.492460   1.000000
   11        4.532568   1.000000
   12        4.728564   1.000000
   13        4.932684   1.000000
   14        5.028925   1.000000
   15        5.049540   1.000001
   16        5.377548   1.004870
   17        5.964297   0.012850
   18        6.692518  -0.000000
   19        7.189355  -0.000000
   20        7.538589  -0.000000
   21        7.593317  -0.000000
   22        8.292568  -0.000000
   23        9.735680  -0.000000
   24       10.869969  -0.000000
   25       13.422409   0.000000
   26       14.676454   0.000000
   27       18.789456   0.000000
   28       19.640117   0.000000
   29       20.171168   0.000000
   30       20.820521   0.000000
   31       24.566565   0.000000
   32       25.021940   0.000000
 
 -0.1875000E+00  0.3125000E+00  0.6250000E-01  0.1953125E-02
    1       -0.170741   1.000000
    2        0.138679   1.000000
    3        1.746950   1.000000
    4        2.185163   1.000000
    5        2.970967   1.000000
    6        3.256564   1.000000
    7        3.296118   1.000000
    8        3.714435   1.000000
    9        3.898415   1.000000
   10        4.471324   1.000000
   11        4.593152   1.000000
   12        4.772137   1.000000
   13        4.871787   1.000000
   14        5.037956   1.000000
   15        5.127596   1.000009
   16        5.630591   1.007711
   17        5.810353   0.483780
   18        6.693333  -0.000000
   19        6.875618  -0.000000
   20        6.954258  -0.000000
   21        7.669192  -0.000000
   22        8.106946  -0.000000
   23        9.933117  -0.000000
   24       11.128950  -0.000000
   25       15.185374   0.000000
   26       16.148785   0.000000
   27       18.949191   0.000000
   28       19.618902   0.000000
   29       21.756483   0.000000
   30       22.427538   0.000000
   31       24.073478   0.000000
   32       24.623513   0.000000
 
 -0.6250000E-01  0.3125000E+00  0.6250000E-01  0.1953125E-02
    1       -0.629946   1.000000
    2       -0.376326   1.000000
    3        1.698595   1.000000
    4        1.889796   1.000000
    5        3.129256   1.000000
    6        3.352882   1.000000
    7        3.374567   1.000000
    8        3.773432   1.000000
    9        4.133546   1.000000
   10        4.260076   1.000000
   11        4.329127   1.000000
   12        4.728276   1.000000
   13        5.132416   1.000010
   14        5.313120   1.001340
   15        5.345115   1.002625
   16        5.506998   1.027758
   17        6.325497  -0.000750
   18        6.329819  -0.000677
   19        6.536186  -0.000002
   20        6.785931  -0.000000
   21        7.769603  -0.000000
   22        7.778149  -0.000000
   23        9.396210  -0.000000
   24       10.611756  -0.000000
   25       18.111681   0.000000
   26       18.427904   0.000000
   27       18.832134   0.000000
   28       19.082366   0.000000
   29       23.191919   0.000000
   30       23.850597   0.000000
   31       24.543724   0.000000
   32       24.983509   0.000000
 
  0.6250000E-01  0.4375000E+00  0.6250000E-01  0.1953125E-02
    1        0.694777   1.000000
    2        1.123024   1.000000
    3        1.588990   1.000000
    4        2.486919   1.000000
    5        2.515592   1.000000
    6        3.121473   1.000000
    7        3.546877   1.000000
    8        3.858480   1.000000
    9        3.925801   1.000000
   10        4.194112   1.000000
   11        4.509155   1.000000
   12        4.677467   1.000000
   13        5.110682   1.000005
   14        5.148659   1.000017
   15        5.457503   1.016629
   16        5.662938   0.965968
   17        5.809952   0.485477
   18        6.059671  -0.035213
   19        6.215603  -0.006884
   20        6.829553  -0.000000
   21        6.984786  -0.000000
   22        7.328076  -0.000000
   23        8.097128  -0.000000
   24        8.856693  -0.000000
   25       20.195386   0.000000
   26       20.643104   0.000000
   27       20.959595   0.000000
   28       21.338711   0.000000
   29       22.331684   0.000000
   30       22.980701   0.000000
   31       23.168336   0.000000
   32       23.822629   0.000000
 
  0.1875000E+00  0.4375000E+00  0.6250000E-01  0.1953125E-02
    1        0.902741   1.000000
    2        1.480567   1.000000
    3        1.591009   1.000000
    4        2.654377   1.000000
    5        2.672730   1.000000
    6        2.948086   1.000000
    7        3.220624   1.000000
    8        3.348621   1.000000
    9        4.368087   1.000000
   10        4.373722   1.000000
   11        4.450939   1.000000
   12        4.808629   1.000000
   13        4.997895   1.000000
   14        5.165306   1.000028
   15        5.221295   1.000140
   16        5.522765   1.031066
   17        5.742211   0.757140
   18        6.553808  -0.000001
   19        6.635592  -0.000000
   20        7.372095  -0.000000
   21        7.428998  -0.000000
   22        7.805480  -0.000000
   23        8.068067  -0.000000
   24        9.120339  -0.000000
   25       17.027485   0.000000
   26       17.953583   0.000000
   27       19.224932   0.000000
   28       20.047217   0.000000
   29       20.927883   0.000000
   30       21.601976   0.000000
   31       23.151668   0.000000
   32       23.727823   0.000000
 
  0.3125000E+00  0.4375000E+00  0.6250000E-01  0.1953125E-02
    1        0.970846   1.000000
    2        1.304948   1.000000
    3        1.910827   1.000000
    4        2.607150   1.000000
    5        2.613255   1.000000
    6        2.772639   1.000000
    7        3.490658   1.000000
    8        3.859105   1.000000
    9        4.435798   1.000000
   10        4.559491   1.000000
   11        4.641100   1.000000
   12        4.750007   1.000000
   13        5.014964   1.000000
   14        5.168419   1.000031
   15        5.319632   1.001544
   16        5.833769   0.385874
   17        6.089613  -0.031193
   18        6.936288  -0.000000
   19        7.131575  -0.000000