 vasp.5.4.4.18Apr17-6-g9f103f2a35 (build Jan 04 2020 13:53:51) complex          
  
 executed on             LinuxIFC date 2024.11.03  23:21:16
 running on   16 total cores
 distrk:  each k-point on   16 cores,    1 groups
 distr:  one band on NCORES_PER_BAND=   4 cores,    4 groups


--------------------------------------------------------------------------------------------------------


 INCAR:
 POTCAR:    PAW_PBE Fe 06Sep2000                  
 POTCAR:    PAW_PBE Fe 06Sep2000                  
   VRHFIN =Fe:  d7 s1                                                           
   LEXCH  = PE                                                                  
   EATOM  =   594.3153 eV,   43.6809 Ry                                         
                                                                                
   TITEL  = PAW_PBE Fe 06Sep2000                                                
   LULTRA =        F    use ultrasoft PP ?                                      
   IUNSCR =        1    unscreen: 0-lin 1-nonlin 2-no                           
   RPACOR =    2.000    partial core radius                                     
   POMASS =   55.847; ZVAL   =    8.000    mass and valenz                      
   RCORE  =    2.300    outmost cutoff radius                                   
   RWIGS  =    2.460; RWIGS  =    1.302    wigner-seitz radius (au A)           
   ENMAX  =  267.882; ENMIN  =  200.911 eV                                      
   RCLOC  =    1.701    cutoff for local pot                                    
   LCOR   =        T    correct aug charges                                     
   LPAW   =        T    paw PP                                                  
   EAUG   =  511.368                                                            
   DEXC   =    0.000                                                            
   RMAX   =    2.356    core radius for proj-oper                               
   RAUG   =    1.300    factor for augmentation sphere                          
   RDEP   =    2.442    radius for radial grids                                 
   RDEPT  =    1.890    core radius for aug-charge                              
                                                                                
   Atomic configuration                                                         
    9 entries                                                                   
     n  l   j            E        occ.                                          
     1  0  0.50     -6993.8440   2.0000                                         
     2  0  0.50      -814.6047   2.0000                                         
     2  1  1.50      -693.3689   6.0000                                         
     3  0  0.50       -89.4732   2.0000                                         
     3  1  1.50       -55.6373   6.0000                                         
     3  2  2.50        -3.8151   7.0000                                         
     4  0  0.50        -4.2551   1.0000                                         
     4  1  1.50        -3.4015   0.0000                                         
     4  3  2.50        -1.3606   0.0000                                         
   Description                                                                  
     l       E           TYP  RCUT    TYP  RCUT                                 
     2     -3.8151135     23  2.300                                             
     2     -5.1756961     23  2.300                                             
     0     -4.2550963     23  2.300                                             
     0      7.2035603     23  2.300                                             
     1     -2.7211652     23  2.300                                             
     1     18.4316424     23  2.300                                             
  local pseudopotential read in
  partial core-charges read in
  partial kinetic energy density read in
  atomic valenz-charges read in
  non local Contribution for L=           2  read in
    real space projection operators read in
  non local Contribution for L=           2  read in
    real space projection operators read in
  non local Contribution for L=           0  read in
    real space projection operators read in
  non local Contribution for L=           0  read in
    real space projection operators read in
  non local Contribution for L=           1  read in
    real space projection operators read in
  non local Contribution for L=           1  read in
    real space projection operators read in
    PAW grid and wavefunctions read in
 
   number of l-projection  operators is LMAX  =           6
   number of lm-projection operators is LMMAX =          18
 
  PAW_PBE Fe 06Sep2000                  :
 energy of atom  1       EATOM= -594.3153
 kinetic energy error for atom=    0.0026 (will be added to EATOM!!)
 
 
 POSCAR: Fe_bcc                                  
  positions in direct lattice
  velocities in cartesian coordinates
 exchange correlation table for  LEXCH =        8
   RHO(1)=    0.500       N(1)  =     2000
   RHO(2)=  100.500       N(2)  =     4000
 


--------------------------------------------------------------------------------------------------------


 ion  position               nearest neighbor table
   1  0.000  0.000  0.000-   2 2.45   2 2.45   2 2.45   2 2.45   2 2.45   2 2.45   2 2.45   2 2.45

   2  0.500  0.500  0.500-   1 2.45   1 2.45   1 2.45   1 2.45   1 2.45   1 2.45   1 2.45   1 2.45

 

IMPORTANT INFORMATION: All symmetrisations will be switched off!
NOSYMM: (Re-)initialisation of all symmetry stuff for point group C_1.

 
 
 KPOINTS: k-points                                

Automatic generation of k-mesh.
Space group operators:
 irot       det(A)        alpha          n_x          n_y          n_z        tau_x        tau_y        tau_z
    1     1.000000     0.000000     1.000000     0.000000     0.000000     0.000000     0.000000     0.000000
 
 Subroutine IBZKPT returns following result:
 ===========================================
 
 Found    512 irreducible k-points:
 
 Following reciprocal coordinates:
            Coordinates               Weight
  0.062500  0.062500  0.062500      1.000000
  0.187500  0.062500  0.062500      1.000000
  0.312500  0.062500  0.062500      1.000000
  0.437500  0.062500  0.062500      1.000000
 -0.437500  0.062500  0.062500      1.000000
 -0.312500  0.062500  0.062500      1.000000
 -0.187500  0.062500  0.062500      1.000000
 -0.062500  0.062500  0.062500      1.000000
  0.062500  0.187500  0.062500      1.000000
  0.187500  0.187500  0.062500      1.000000
  0.312500  0.187500  0.062500      1.000000
  0.437500  0.187500  0.062500      1.000000
 -0.437500  0.187500  0.062500      1.000000
 -0.312500  0.187500  0.062500      1.000000
 -0.187500  0.187500  0.062500      1.000000
 -0.062500  0.187500  0.062500      1.000000
  0.062500  0.312500  0.062500      1.000000
  0.187500  0.312500  0.062500      1.000000
  0.312500  0.312500  0.062500      1.000000
  0.437500  0.312500  0.062500      1.000000
 -0.437500  0.312500  0.062500      1.000000
 -0.312500  0.312500  0.062500      1.000000
 -0.187500  0.312500  0.062500      1.000000
 -0.062500  0.312500  0.062500      1.000000
  0.062500  0.437500  0.062500      1.000000
  0.187500  0.437500  0.062500      1.000000
  0.312500  0.437500  0.062500      1.000000
  0.437500  0.437500  0.062500      1.000000
 -0.437500  0.437500  0.062500      1.000000
 -0.312500  0.437500  0.062500      1.000000
 -0.187500  0.437500  0.062500      1.000000
 -0.062500  0.437500  0.062500      1.000000
  0.062500 -0.437500  0.062500      1.000000
  0.187500 -0.437500  0.062500      1.000000
  0.312500 -0.437500  0.062500      1.000000
  0.437500 -0.437500  0.062500      1.000000
 -0.437500 -0.437500  0.062500      1.000000
 -0.312500 -0.437500  0.062500      1.000000
 -0.187500 -0.437500  0.062500      1.000000
 -0.062500 -0.437500  0.062500      1.000000
  0.062500 -0.312500  0.062500      1.000000
  0.187500 -0.312500  0.062500      1.000000
  0.312500 -0.312500  0.062500      1.000000
  0.437500 -0.312500  0.062500      1.000000
 -0.437500 -0.312500  0.062500      1.000000
 -0.312500 -0.312500  0.062500      1.000000
 -0.187500 -0.312500  0.062500      1.000000
 -0.062500 -0.312500  0.062500      1.000000
  0.062500 -0.187500  0.062500      1.000000
  0.187500 -0.187500  0.062500      1.000000
  0.312500 -0.187500  0.062500      1.000000
  0.437500 -0.187500  0.062500      1.000000
 -0.437500 -0.187500  0.062500      1.000000
 -0.312500 -0.187500  0.062500      1.000000
 -0.187500 -0.187500  0.062500      1.000000
 -0.062500 -0.187500  0.062500      1.000000
  0.062500 -0.062500  0.062500      1.000000
  0.187500 -0.062500  0.062500      1.000000
  0.312500 -0.062500  0.062500      1.000000
  0.437500 -0.062500  0.062500      1.000000
 -0.437500 -0.062500  0.062500      1.000000
 -0.312500 -0.062500  0.062500      1.000000
 -0.187500 -0.062500  0.062500      1.000000
 -0.062500 -0.062500  0.062500      1.000000
  0.062500  0.062500  0.187500      1.000000
  0.187500  0.062500  0.187500      1.000000
  0.312500  0.062500  0.187500      1.000000
  0.437500  0.062500  0.187500      1.000000
 -0.437500  0.062500  0.187500      1.000000
 -0.312500  0.062500  0.187500      1.000000
 -0.187500  0.062500  0.187500      1.000000
 -0.062500  0.062500  0.187500      1.000000
  0.062500  0.187500  0.187500      1.000000
  0.187500  0.187500  0.187500      1.000000
  0.312500  0.187500  0.187500      1.000000
  0.437500  0.187500  0.187500      1.000000
 -0.437500  0.187500  0.187500      1.000000
 -0.312500  0.187500  0.187500      1.000000
 -0.187500  0.187500  0.187500      1.000000
 -0.062500  0.187500  0.187500      1.000000
  0.062500  0.312500  0.187500      1.000000
  0.187500  0.312500  0.187500      1.000000
  0.312500  0.312500  0.187500      1.000000
  0.437500  0.312500  0.187500      1.000000
 -0.437500  0.312500  0.187500      1.000000
 -0.312500  0.312500  0.187500      1.000000
 -0.187500  0.312500  0.187500      1.000000
 -0.062500  0.312500  0.187500      1.000000
  0.062500  0.437500  0.187500      1.000000
  0.187500  0.437500  0.187500      1.000000
  0.312500  0.437500  0.187500      1.000000
  0.437500  0.437500  0.187500      1.000000
 -0.437500  0.437500  0.187500      1.000000
 -0.312500  0.437500  0.187500      1.000000
 -0.187500  0.437500  0.187500      1.000000
 -0.062500  0.437500  0.187500      1.000000
  0.062500 -0.437500  0.187500      1.000000
  0.187500 -0.437500  0.187500      1.000000
  0.312500 -0.437500  0.187500      1.000000
  0.437500 -0.437500  0.187500      1.000000
 -0.437500 -0.437500  0.187500      1.000000
 -0.312500 -0.437500  0.187500      1.000000
 -0.187500 -0.437500  0.187500      1.000000
 -0.062500 -0.437500  0.187500      1.000000
  0.062500 -0.312500  0.187500      1.000000
  0.187500 -0.312500  0.187500      1.000000
  0.312500 -0.312500  0.187500      1.000000
  0.437500 -0.312500  0.187500      1.000000
 -0.437500 -0.312500  0.187500      1.000000
 -0.312500 -0.312500  0.187500      1.000000
 -0.187500 -0.312500  0.187500      1.000000
 -0.062500 -0.312500  0.187500      1.000000
  0.062500 -0.187500  0.187500      1.000000
  0.187500 -0.187500  0.187500      1.000000
  0.312500 -0.187500  0.187500      1.000000
  0.437500 -0.187500  0.187500      1.000000
 -0.437500 -0.187500  0.187500      1.000000
 -0.312500 -0.187500  0.187500      1.000000
 -0.187500 -0.187500  0.187500      1.000000
 -0.062500 -0.187500  0.187500      1.000000
  0.062500 -0.062500  0.187500      1.000000
  0.187500 -0.062500  0.187500      1.000000
  0.312500 -0.062500  0.187500      1.000000
  0.437500 -0.062500  0.187500      1.000000
 -0.437500 -0.062500  0.187500      1.000000
 -0.312500 -0.062500  0.187500      1.000000
 -0.187500 -0.062500  0.187500      1.000000
 -0.062500 -0.062500  0.187500      1.000000
  0.062500  0.062500  0.312500      1.000000
  0.187500  0.062500  0.312500      1.000000
  0.312500  0.062500  0.312500      1.000000
  0.437500  0.062500  0.312500      1.000000
 -0.437500  0.062500  0.312500      1.000000
 -0.312500  0.062500  0.312500      1.000000
 -0.187500  0.062500  0.312500      1.000000
 -0.062500  0.062500  0.312500      1.000000
  0.062500  0.187500  0.312500      1.000000
  0.187500  0.187500  0.312500      1.000000
  0.312500  0.187500  0.312500      1.000000
  0.437500  0.187500  0.312500      1.000000
 -0.437500  0.187500  0.312500      1.000000
 -0.312500  0.187500  0.312500      1.000000
 -0.187500  0.187500  0.312500      1.000000
 -0.062500  0.187500  0.312500      1.000000
  0.062500  0.312500  0.312500      1.000000
  0.187500  0.312500  0.312500      1.000000
  0.312500  0.312500  0.312500      1.000000
  0.437500  0.312500  0.312500      1.000000
 -0.437500  0.312500  0.312500      1.000000
 -0.312500  0.312500  0.312500      1.000000
 -0.187500  0.312500  0.312500      1.000000
 -0.062500  0.312500  0.312500      1.000000
  0.062500  0.437500  0.312500      1.000000
  0.187500  0.437500  0.312500      1.000000
  0.312500  0.437500  0.312500      1.000000
  0.437500  0.437500  0.312500      1.000000
 -0.437500  0.437500  0.312500      1.000000
 -0.312500  0.437500  0.312500      1.000000
 -0.187500  0.437500  0.312500      1.000000
 -0.062500  0.437500  0.312500      1.000000
  0.062500 -0.437500  0.312500      1.000000
  0.187500 -0.437500  0.312500      1.000000
  0.312500 -0.437500  0.312500      1.000000
  0.437500 -0.437500  0.312500      1.000000
 -0.437500 -0.437500  0.312500      1.000000
 -0.312500 -0.437500  0.312500      1.000000
 -0.187500 -0.437500  0.312500      1.000000
 -0.062500 -0.437500  0.312500      1.000000
  0.062500 -0.312500  0.312500      1.000000
  0.187500 -0.312500  0.312500      1.000000
  0.312500 -0.312500  0.312500      1.000000
  0.437500 -0.312500  0.312500      1.000000
 -0.437500 -0.312500  0.312500      1.000000
 -0.312500 -0.312500  0.312500      1.000000
 -0.187500 -0.312500  0.312500      1.000000
 -0.062500 -0.312500  0.312500      1.000000
  0.062500 -0.187500  0.312500      1.000000
  0.187500 -0.187500  0.312500      1.000000
  0.312500 -0.187500  0.312500      1.000000
  0.437500 -0.187500  0.312500      1.000000
 -0.437500 -0.187500  0.312500      1.000000
 -0.312500 -0.187500  0.312500      1.000000
 -0.187500 -0.187500  0.312500      1.000000
 -0.062500 -0.187500  0.312500      1.000000
  0.062500 -0.062500  0.312500      1.000000
  0.187500 -0.062500  0.312500      1.000000
  0.312500 -0.062500  0.312500      1.000000
  0.437500 -0.062500  0.312500      1.000000
 -0.437500 -0.062500  0.312500      1.000000
 -0.312500 -0.062500  0.312500      1.000000
 -0.187500 -0.062500  0.312500      1.000000
 -0.062500 -0.062500  0.312500      1.000000
  0.062500  0.062500  0.437500      1.000000
  0.187500  0.062500  0.437500      1.000000
  0.312500  0.062500  0.437500      1.000000
  0.437500  0.062500  0.437500      1.000000
 -0.437500  0.062500  0.437500      1.000000
 -0.312500  0.062500  0.437500      1.000000
 -0.187500  0.062500  0.437500      1.000000
 -0.062500  0.062500  0.437500      1.000000
  0.062500  0.187500  0.437500      1.000000
  0.187500  0.187500  0.437500      1.000000
  0.312500  0.187500  0.437500      1.000000
  0.437500  0.187500  0.437500      1.000000
 -0.437500  0.187500  0.437500      1.000000
 -0.312500  0.187500  0.437500      1.000000
 -0.187500  0.187500  0.437500      1.000000
 -0.062500  0.187500  0.437500      1.000000
  0.062500  0.312500  0.437500      1.000000
  0.187500  0.312500  0.437500      1.000000
  0.312500  0.312500  0.437500      1.000000
  0.437500  0.312500  0.437500      1.000000
 -0.437500  0.312500  0.437500      1.000000
 -0.312500  0.312500  0.437500      1.000000
 -0.187500  0.312500  0.437500      1.000000
 -0.062500  0.312500  0.437500      1.000000
  0.062500  0.437500  0.437500      1.000000
  0.187500  0.437500  0.437500      1.000000
  0.312500  0.437500  0.437500      1.000000
  0.437500  0.437500  0.437500      1.000000
 -0.437500  0.437500  0.437500      1.000000
 -0.312500  0.437500  0.437500      1.000000
 -0.187500  0.437500  0.437500      1.000000
 -0.062500  0.437500  0.437500      1.000000
  0.062500 -0.437500  0.437500      1.000000
  0.187500 -0.437500  0.437500      1.000000
  0.312500 -0.437500  0.437500      1.000000
  0.437500 -0.437500  0.437500      1.000000
 -0.437500 -0.437500  0.437500      1.000000
 -0.312500 -0.437500  0.437500      1.000000
 -0.187500 -0.437500  0.437500      1.000000
 -0.062500 -0.437500  0.437500      1.000000
  0.062500 -0.312500  0.437500      1.000000
  0.187500 -0.312500  0.437500      1.000000
  0.312500 -0.312500  0.437500      1.000000
  0.437500 -0.312500  0.437500      1.000000
 -0.437500 -0.312500  0.437500      1.000000
 -0.312500 -0.312500  0.437500      1.000000
 -0.187500 -0.312500  0.437500      1.000000
 -0.062500 -0.312500  0.437500      1.000000
  0.062500 -0.187500  0.437500      1.000000
  0.187500 -0.187500  0.437500      1.000000
  0.312500 -0.187500  0.437500      1.000000
  0.437500 -0.187500  0.437500      1.000000
 -0.437500 -0.187500  0.437500      1.000000
 -0.312500 -0.187500  0.437500      1.000000
 -0.187500 -0.187500  0.437500      1.000000
 -0.062500 -0.187500  0.437500      1.000000
  0.062500 -0.062500  0.437500      1.000000
  0.187500 -0.062500  0.437500      1.000000
  0.312500 -0.062500  0.437500      1.000000
  0.437500 -0.062500  0.437500      1.000000
 -0.437500 -0.062500  0.437500      1.000000
 -0.312500 -0.062500  0.437500      1.000000
 -0.187500 -0.062500  0.437500      1.000000
 -0.062500 -0.062500  0.437500      1.000000
  0.062500  0.062500 -0.437500      1.000000
  0.187500  0.062500 -0.437500      1.000000
  0.312500  0.062500 -0.437500      1.000000
  0.437500  0.062500 -0.437500      1.000000
 -0.437500  0.062500 -0.437500      1.000000
 -0.312500  0.062500 -0.437500      1.000000
 -0.187500  0.062500 -0.437500      1.000000
 -0.062500  0.062500 -0.437500      1.000000
  0.062500  0.187500 -0.437500      1.000000
  0.187500  0.187500 -0.437500      1.000000
  0.312500  0.187500 -0.437500      1.000000
  0.437500  0.187500 -0.437500      1.000000
 -0.437500  0.187500 -0.437500      1.000000
 -0.312500  0.187500 -0.437500      1.000000
 -0.187500  0.187500 -0.437500      1.000000
 -0.062500  0.187500 -0.437500      1.000000
  0.062500  0.312500 -0.437500      1.000000
  0.187500  0.312500 -0.437500      1.000000
  0.312500  0.312500 -0.437500      1.000000
  0.437500  0.312500 -0.437500      1.000000
 -0.437500  0.312500 -0.437500      1.000000
 -0.312500  0.312500 -0.437500      1.000000
 -0.187500  0.312500 -0.437500      1.000000
 -0.062500  0.312500 -0.437500      1.000000
  0.062500  0.437500 -0.437500      1.000000
  0.187500  0.437500 -0.437500      1.000000
  0.312500  0.437500 -0.437500      1.000000
  0.437500  0.437500 -0.437500      1.000000
 -0.437500  0.437500 -0.437500      1.000000
 -0.312500  0.437500 -0.437500      1.000000
 -0.187500  0.437500 -0.437500      1.000000
 -0.062500  0.437500 -0.437500      1.000000
  0.062500 -0.437500 -0.437500      1.000000
  0.187500 -0.437500 -0.437500      1.000000
  0.312500 -0.437500 -0.437500      1.000000
  0.437500 -0.437500 -0.437500      1.000000
 -0.437500 -0.437500 -0.437500      1.000000
 -0.312500 -0.437500 -0.437500      1.000000
 -0.187500 -0.437500 -0.437500      1.000000
 -0.062500 -0.437500 -0.437500      1.000000
  0.062500 -0.312500 -0.437500      1.000000
  0.187500 -0.312500 -0.437500      1.000000
  0.312500 -0.312500 -0.437500      1.000000
  0.437500 -0.312500 -0.437500      1.000000
 -0.437500 -0.312500 -0.437500      1.000000
 -0.312500 -0.312500 -0.437500      1.000000
 -0.187500 -0.312500 -0.437500      1.000000
 -0.062500 -0.312500 -0.437500      1.000000
  0.062500 -0.187500 -0.437500      1.000000
  0.187500 -0.187500 -0.437500      1.000000
  0.312500 -0.187500 -0.437500      1.000000
  0.437500 -0.187500 -0.437500      1.000000
 -0.437500 -0.187500 -0.437500      1.000000
 -0.312500 -0.187500 -0.437500      1.000000
 -0.187500 -0.187500 -0.437500      1.000000
 -0.062500 -0.187500 -0.437500      1.000000
  0.062500 -0.062500 -0.437500      1.000000
  0.187500 -0.062500 -0.437500      1.000000
  0.312500 -0.062500 -0.437500      1.000000
  0.437500 -0.062500 -0.437500      1.000000
 -0.437500 -0.062500 -0.437500      1.000000
 -0.312500 -0.062500 -0.437500      1.000000
 -0.187500 -0.062500 -0.437500      1.000000
 -0.062500 -0.062500 -0.437500      1.000000
  0.062500  0.062500 -0.312500      1.000000
  0.187500  0.062500 -0.312500      1.000000
  0.312500  0.062500 -0.312500      1.000000
  0.437500  0.062500 -0.312500      1.000000
 -0.437500  0.062500 -0.312500      1.000000
 -0.312500  0.062500 -0.312500      1.000000
 -0.187500  0.062500 -0.312500      1.000000
 -0.062500  0.062500 -0.312500      1.000000
  0.062500  0.187500 -0.312500      1.000000
  0.187500  0.187500 -0.312500      1.000000
  0.312500  0.187500 -0.312500      1.000000
  0.437500  0.187500 -0.312500      1.000000
 -0.437500  0.187500 -0.312500      1.000000
 -0.312500  0.187500 -0.312500      1.000000
 -0.187500  0.187500 -0.312500      1.000000
 -0.062500  0.187500 -0.312500      1.000000
  0.062500  0.312500 -0.312500      1.000000
  0.187500  0.312500 -0.312500      1.000000
  0.312500  0.312500 -0.312500      1.000000
  0.437500  0.312500 -0.312500      1.000000
 -0.437500  0.312500 -0.312500      1.000000
 -0.312500  0.312500 -0.312500      1.000000
 -0.187500  0.312500 -0.312500      1.000000
 -0.062500  0.312500 -0.312500      1.000000
  0.062500  0.437500 -0.312500      1.000000
  0.187500  0.437500 -0.312500      1.000000
  0.312500  0.437500 -0.312500      1.000000
  0.437500  0.437500 -0.312500      1.000000
 -0.437500  0.437500 -0.312500      1.000000
 -0.312500  0.437500 -0.312500      1.000000
 -0.187500  0.437500 -0.312500      1.000000
 -0.062500  0.437500 -0.312500      1.000000
  0.062500 -0.437500 -0.312500      1.000000
  0.187500 -0.437500 -0.312500      1.000000
  0.312500 -0.437500 -0.312500      1.000000
  0.437500 -0.437500 -0.312500      1.000000
 -0.437500 -0.437500 -0.312500      1.000000
 -0.312500 -0.437500 -0.312500      1.000000
 -0.187500 -0.437500 -0.312500      1.000000
 -0.062500 -0.437500 -0.312500      1.000000
  0.062500 -0.312500 -0.312500      1.000000
  0.187500 -0.312500 -0.312500      1.000000
  0.312500 -0.312500 -0.312500      1.000000
  0.437500 -0.312500 -0.312500      1.000000
 -0.437500 -0.312500 -0.312500      1.000000
 -0.312500 -0.312500 -0.312500      1.000000
 -0.187500 -0.312500 -0.312500      1.000000
 -0.062500 -0.312500 -0.312500      1.000000
  0.062500 -0.187500 -0.312500      1.000000
  0.187500 -0.187500 -0.312500      1.000000
  0.312500 -0.187500 -0.312500      1.000000
  0.437500 -0.187500 -0.312500      1.000000
 -0.437500 -0.187500 -0.312500      1.000000
 -0.312500 -0.187500 -0.312500      1.000000
 -0.187500 -0.187500 -0.312500      1.000000
 -0.062500 -0.187500 -0.312500      1.000000
  0.062500 -0.062500 -0.312500      1.000000
  0.187500 -0.062500 -0.312500      1.000000
  0.312500 -0.062500 -0.312500      1.000000
  0.437500 -0.062500 -0.312500      1.000000
 -0.437500 -0.062500 -0.312500      1.000000
 -0.312500 -0.062500 -0.312500      1.000000
 -0.187500 -0.062500 -0.312500      1.000000
 -0.062500 -0.062500 -0.312500      1.000000
  0.062500  0.062500 -0.187500      1.000000
  0.187500  0.062500 -0.187500      1.000000
  0.312500  0.062500 -0.187500      1.000000
  0.437500  0.062500 -0.187500      1.000000
 -0.437500  0.062500 -0.187500      1.000000
 -0.312500  0.062500 -0.187500      1.000000
 -0.187500  0.062500 -0.187500      1.000000
 -0.062500  0.062500 -0.187500      1.000000
  0.062500  0.187500 -0.187500      1.000000
  0.187500  0.187500 -0.187500      1.000000
  0.312500  0.187500 -0.187500      1.000000
  0.437500  0.187500 -0.187500      1.000000
 -0.437500  0.187500 -0.187500      1.000000
 -0.312500  0.187500 -0.187500      1.000000
 -0.187500  0.187500 -0.187500      1.000000
 -0.062500  0.187500 -0.187500      1.000000
  0.062500  0.312500 -0.187500      1.000000
  0.187500  0.312500 -0.187500      1.000000
  0.312500  0.312500 -0.187500      1.000000
  0.437500  0.312500 -0.187500      1.000000
 -0.437500  0.312500 -0.187500      1.000000
 -0.312500  0.312500 -0.187500      1.000000
 -0.187500  0.312500 -0.187500      1.000000
 -0.062500  0.312500 -0.187500      1.000000
  0.062500  0.437500 -0.187500      1.000000
  0.187500  0.437500 -0.187500      1.000000
  0.312500  0.437500 -0.187500      1.000000
  0.437500  0.437500 -0.187500      1.000000
 -0.437500  0.437500 -0.187500      1.000000
 -0.312500  0.437500 -0.187500      1.000000
 -0.187500  0.437500 -0.187500      1.000000
 -0.062500  0.437500 -0.187500      1.000000
  0.062500 -0.437500 -0.187500      1.000000
  0.187500 -0.437500 -0.187500      1.000000
  0.312500 -0.437500 -0.187500      1.000000
  0.437500 -0.437500 -0.187500      1.000000
 -0.437500 -0.437500 -0.187500      1.000000
 -0.312500 -0.437500 -0.187500      1.000000
 -0.187500 -0.437500 -0.187500      1.000000
 -0.062500 -0.437500 -0.187500      1.000000
  0.062500 -0.312500 -0.187500      1.000000
  0.187500 -0.312500 -0.187500      1.000000
  0.312500 -0.312500 -0.187500      1.000000
  0.437500 -0.312500 -0.187500      1.000000
 -0.437500 -0.312500 -0.187500      1.000000
 -0.312500 -0.312500 -0.187500      1.000000
 -0.187500 -0.312500 -0.187500      1.000000
 -0.062500 -0.312500 -0.187500      1.000000
  0.062500 -0.187500 -0.187500      1.000000
  0.187500 -0.187500 -0.187500      1.000000
  0.312500 -0.187500 -0.187500      1.000000
  0.437500 -0.187500 -0.187500      1.000000
 -0.437500 -0.187500 -0.187500      1.000000
 -0.312500 -0.187500 -0.187500      1.000000
 -0.187500 -0.187500 -0.187500      1.000000
 -0.062500 -0.187500 -0.187500      1.000000
  0.062500 -0.062500 -0.187500      1.000000
  0.187500 -0.062500 -0.187500      1.000000
  0.312500 -0.062500 -0.187500      1.000000
  0.437500 -0.062500 -0.187500      1.000000
 -0.437500 -0.062500 -0.187500      1.000000
 -0.312500 -0.062500 -0.187500      1.000000
 -0.187500 -0.062500 -0.187500      1.000000
 -0.062500 -0.062500 -0.187500      1.000000
  0.062500  0.062500 -0.062500      1.000000
  0.187500  0.062500 -0.062500      1.000000
  0.312500  0.062500 -0.062500      1.000000
  0.437500  0.062500 -0.062500      1.000000
 -0.437500  0.062500 -0.062500      1.000000
 -0.312500  0.062500 -0.062500      1.000000
 -0.187500  0.062500 -0.062500      1.000000
 -0.062500  0.062500 -0.062500      1.000000
  0.062500  0.187500 -0.062500      1.000000
  0.187500  0.187500 -0.062500      1.000000
  0.312500  0.187500 -0.062500      1.000000
  0.437500  0.187500 -0.062500      1.000000
 -0.437500  0.187500 -0.062500      1.000000
 -0.312500  0.187500 -0.062500      1.000000
 -0.187500  0.187500 -0.062500      1.000000
 -0.062500  0.187500 -0.062500      1.000000
  0.062500  0.312500 -0.062500      1.000000
  0.187500  0.312500 -0.062500      1.000000
  0.312500  0.312500 -0.062500      1.000000
  0.437500  0.312500 -0.062500      1.000000
 -0.437500  0.312500 -0.062500      1.000000
 -0.312500  0.312500 -0.062500      1.000000
 -0.187500  0.312500 -0.062500      1.000000
 -0.062500  0.312500 -0.062500      1.000000
  0.062500  0.437500 -0.062500      1.000000
  0.187500  0.437500 -0.062500      1.000000
  0.312500  0.437500 -0.062500      1.000000
  0.437500  0.437500 -0.062500      1.000000
 -0.437500  0.437500 -0.062500      1.000000
 -0.312500  0.437500 -0.062500      1.000000
 -0.187500  0.437500 -0.062500      1.000000
 -0.062500  0.437500 -0.062500      1.000000
  0.062500 -0.437500 -0.062500      1.000000
  0.187500 -0.437500 -0.062500      1.000000
  0.312500 -0.437500 -0.062500      1.000000
  0.437500 -0.437500 -0.062500      1.000000
 -0.437500 -0.437500 -0.062500      1.000000
 -0.312500 -0.437500 -0.062500      1.000000
 -0.187500 -0.437500 -0.062500      1.000000
 -0.062500 -0.437500 -0.062500      1.000000
  0.062500 -0.312500 -0.062500      1.000000
  0.187500 -0.312500 -0.062500      1.000000
  0.312500 -0.312500 -0.062500      1.000000
  0.437500 -0.312500 -0.062500      1.000000
 -0.437500 -0.312500 -0.062500      1.000000
 -0.312500 -0.312500 -0.062500      1.000000
 -0.187500 -0.312500 -0.062500      1.000000
 -0.062500 -0.312500 -0.062500      1.000000
  0.062500 -0.187500 -0.062500      1.000000
  0.187500 -0.187500 -0.062500      1.000000
  0.312500 -0.187500 -0.062500      1.000000
  0.437500 -0.187500 -0.062500      1.000000
 -0.437500 -0.187500 -0.062500      1.000000
 -0.312500 -0.187500 -0.062500      1.000000
 -0.187500 -0.187500 -0.062500      1.000000
 -0.062500 -0.187500 -0.062500      1.000000
  0.062500 -0.062500 -0.062500      1.000000
  0.187500 -0.062500 -0.062500      1.000000
  0.312500 -0.062500 -0.062500      1.000000
  0.437500 -0.062500 -0.062500      1.000000
 -0.437500 -0.062500 -0.062500      1.000000
 -0.312500 -0.062500 -0.062500      1.000000
 -0.187500 -0.062500 -0.062500      1.000000
 -0.062500 -0.062500 -0.062500      1.000000
 
 Following cartesian coordinates:
            Coordinates               Weight
  0.022064  0.022064  0.022064      1.000000
  0.066193  0.022064  0.022064      1.000000
  0.110321  0.022064  0.022064      1.000000
  0.154450  0.022064  0.022064      1.000000
 -0.154450  0.022064  0.022064      1.000000
 -0.110321  0.022064  0.022064      1.000000
 -0.066193  0.022064  0.022064      1.000000
 -0.022064  0.022064  0.022064      1.000000
  0.022064  0.066193  0.022064      1.000000
  0.066193  0.066193  0.022064      1.000000
  0.110321  0.066193  0.022064      1.000000
  0.154450  0.066193  0.022064      1.000000
 -0.154450  0.066193  0.022064      1.000000
 -0.110321  0.066193  0.022064      1.000000
 -0.066193  0.066193  0.022064      1.000000
 -0.022064  0.066193  0.022064      1.000000
  0.022064  0.110321  0.022064      1.000000
  0.066193  0.110321  0.022064      1.000000
  0.110321  0.110321  0.022064      1.000000
  0.154450  0.110321  0.022064      1.000000
 -0.154450  0.110321  0.022064      1.000000
 -0.110321  0.110321  0.022064      1.000000
 -0.066193  0.110321  0.022064      1.000000
 -0.022064  0.110321  0.022064      1.000000
  0.022064  0.154450  0.022064      1.000000
  0.066193  0.154450  0.022064      1.000000
  0.110321  0.154450  0.022064      1.000000
  0.154450  0.154450  0.022064      1.000000
 -0.154450  0.154450  0.022064      1.000000
 -0.110321  0.154450  0.022064      1.000000
 -0.066193  0.154450  0.022064      1.000000
 -0.022064  0.154450  0.022064      1.000000
  0.022064 -0.154450  0.022064      1.000000
  0.066193 -0.154450  0.022064      1.000000
  0.110321 -0.154450  0.022064      1.000000
  0.154450 -0.154450  0.022064      1.000000
 -0.154450 -0.154450  0.022064      1.000000
 -0.110321 -0.154450  0.022064      1.000000
 -0.066193 -0.154450  0.022064      1.000000
 -0.022064 -0.154450  0.022064      1.000000
  0.022064 -0.110321  0.022064      1.000000
  0.066193 -0.110321  0.022064      1.000000
  0.110321 -0.110321  0.022064      1.000000
  0.154450 -0.110321  0.022064      1.000000
 -0.154450 -0.110321  0.022064      1.000000
 -0.110321 -0.110321  0.022064      1.000000
 -0.066193 -0.110321  0.022064      1.000000
 -0.022064 -0.110321  0.022064      1.000000
  0.022064 -0.066193  0.022064      1.000000
  0.066193 -0.066193  0.022064      1.000000
  0.110321 -0.066193  0.022064      1.000000
  0.154450 -0.066193  0.022064      1.000000
 -0.154450 -0.066193  0.022064      1.000000
 -0.110321 -0.066193  0.022064      1.000000
 -0.066193 -0.066193  0.022064      1.000000
 -0.022064 -0.066193  0.022064      1.000000
  0.022064 -0.022064  0.022064      1.000000
  0.066193 -0.022064  0.022064      1.000000
  0.110321 -0.022064  0.022064      1.000000
  0.154450 -0.022064  0.022064      1.000000
 -0.154450 -0.022064  0.022064      1.000000
 -0.110321 -0.022064  0.022064      1.000000
 -0.066193 -0.022064  0.022064      1.000000
 -0.022064 -0.022064  0.022064      1.000000
  0.022064  0.022064  0.066193      1.000000
  0.066193  0.022064  0.066193      1.000000
  0.110321  0.022064  0.066193      1.000000
  0.154450  0.022064  0.066193      1.000000
 -0.154450  0.022064  0.066193      1.000000
 -0.110321  0.022064  0.066193      1.000000
 -0.066193  0.022064  0.066193      1.000000
 -0.022064  0.022064  0.066193      1.000000
  0.022064  0.066193  0.066193      1.000000
  0.066193  0.066193  0.066193      1.000000
  0.110321  0.066193  0.066193      1.000000
  0.154450  0.066193  0.066193      1.000000
 -0.154450  0.066193  0.066193      1.000000
 -0.110321  0.066193  0.066193      1.000000
 -0.066193  0.066193  0.066193      1.000000
 -0.022064  0.066193  0.066193      1.000000
  0.022064  0.110321  0.066193      1.000000
  0.066193  0.110321  0.066193      1.000000
  0.110321  0.110321  0.066193      1.000000
  0.154450  0.110321  0.066193      1.000000
 -0.154450  0.110321  0.066193      1.000000
 -0.110321  0.110321  0.066193      1.000000
 -0.066193  0.110321  0.066193      1.000000
 -0.022064  0.110321  0.066193      1.000000
  0.022064  0.154450  0.066193      1.000000
  0.066193  0.154450  0.066193      1.000000
  0.110321  0.154450  0.066193      1.000000
  0.154450  0.154450  0.066193      1.000000
 -0.154450  0.154450  0.066193      1.000000
 -0.110321  0.154450  0.066193      1.000000
 -0.066193  0.154450  0.066193      1.000000
 -0.022064  0.154450  0.066193      1.000000
  0.022064 -0.154450  0.066193      1.000000
  0.066193 -0.154450  0.066193      1.000000
  0.110321 -0.154450  0.066193      1.000000
  0.154450 -0.154450  0.066193      1.000000
 -0.154450 -0.154450  0.066193      1.000000
 -0.110321 -0.154450  0.066193      1.000000
 -0.066193 -0.154450  0.066193      1.000000
 -0.022064 -0.154450  0.066193      1.000000
  0.022064 -0.110321  0.066193      1.000000
  0.066193 -0.110321  0.066193      1.000000
  0.110321 -0.110321  0.066193      1.000000
  0.154450 -0.110321  0.066193      1.000000
 -0.154450 -0.110321  0.066193      1.000000
 -0.110321 -0.110321  0.066193      1.000000
 -0.066193 -0.110321  0.066193      1.000000
 -0.022064 -0.110321  0.066193      1.000000
  0.022064 -0.066193  0.066193      1.000000
  0.066193 -0.066193  0.066193      1.000000
  0.110321 -0.066193  0.066193      1.000000
  0.154450 -0.066193  0.066193      1.000000
 -0.154450 -0.066193  0.066193      1.000000
 -0.110321 -0.066193  0.066193      1.000000
 -0.066193 -0.066193  0.066193      1.000000
 -0.022064 -0.066193  0.066193      1.000000
  0.022064 -0.022064  0.066193      1.000000
  0.066193 -0.022064  0.066193      1.000000
  0.110321 -0.022064  0.066193      1.000000
  0.154450 -0.022064  0.066193      1.000000
 -0.154450 -0.022064  0.066193      1.000000
 -0.110321 -0.022064  0.066193      1.000000
 -0.066193 -0.022064  0.066193      1.000000
 -0.022064 -0.022064  0.066193      1.000000
  0.022064  0.022064  0.110321      1.000000
  0.066193  0.022064  0.110321      1.000000
  0.110321  0.022064  0.110321      1.000000
  0.154450  0.022064  0.110321      1.000000
 -0.154450  0.022064  0.110321      1.000000
 -0.110321  0.022064  0.110321      1.000000
 -0.066193  0.022064  0.110321      1.000000
 -0.022064  0.022064  0.110321      1.000000
  0.022064  0.066193  0.110321      1.000000
  0.066193  0.066193  0.110321      1.000000
  0.110321  0.066193  0.110321      1.000000
  0.154450  0.066193  0.110321      1.000000
 -0.154450  0.066193  0.110321      1.000000
 -0.110321  0.066193  0.110321      1.000000
 -0.066193  0.066193  0.110321      1.000000
 -0.022064  0.066193  0.110321      1.000000
  0.022064  0.110321  0.110321      1.000000
  0.066193  0.110321  0.110321      1.000000
  0.110321  0.110321  0.110321      1.000000
  0.154450  0.110321  0.110321      1.000000
 -0.154450  0.110321  0.110321      1.000000
 -0.110321  0.110321  0.110321      1.000000
 -0.066193  0.110321  0.110321      1.000000
 -0.022064  0.110321  0.110321      1.000000
  0.022064  0.154450  0.110321      1.000000
  0.066193  0.154450  0.110321      1.000000
  0.110321  0.154450  0.110321      1.000000
  0.154450  0.154450  0.110321      1.000000
 -0.154450  0.154450  0.110321      1.000000
 -0.110321  0.154450  0.110321      1.000000
 -0.066193  0.154450  0.110321      1.000000
 -0.022064  0.154450  0.110321      1.000000
  0.022064 -0.154450  0.110321      1.000000
  0.066193 -0.154450  0.110321      1.000000
  0.110321 -0.154450  0.110321      1.000000
  0.154450 -0.154450  0.110321      1.000000
 -0.154450 -0.154450  0.110321      1.000000
 -0.110321 -0.154450  0.110321      1.000000
 -0.066193 -0.154450  0.110321      1.000000
 -0.022064 -0.154450  0.110321      1.000000
  0.022064 -0.110321  0.110321      1.000000
  0.066193 -0.110321  0.110321      1.000000
  0.110321 -0.110321  0.110321      1.000000
  0.154450 -0.110321  0.110321      1.000000
 -0.154450 -0.110321  0.110321      1.000000
 -0.110321 -0.110321  0.110321      1.000000
 -0.066193 -0.110321  0.110321      1.000000
 -0.022064 -0.110321  0.110321      1.000000
  0.022064 -0.066193  0.110321      1.000000
  0.066193 -0.066193  0.110321      1.000000
  0.110321 -0.066193  0.110321      1.000000
  0.154450 -0.066193  0.110321      1.000000
 -0.154450 -0.066193  0.110321      1.000000
 -0.110321 -0.066193  0.110321      1.000000
 -0.066193 -0.066193  0.110321      1.000000
 -0.022064 -0.066193  0.110321      1.000000
  0.022064 -0.022064  0.110321      1.000000
  0.066193 -0.022064  0.110321      1.000000
  0.110321 -0.022064  0.110321      1.000000
  0.154450 -0.022064  0.110321      1.000000
 -0.154450 -0.022064  0.110321      1.000000
 -0.110321 -0.022064  0.110321      1.000000
 -0.066193 -0.022064  0.110321      1.000000
 -0.022064 -0.022064  0.110321      1.000000
  0.022064  0.022064  0.154450      1.000000
  0.066193  0.022064  0.154450      1.000000
  0.110321  0.022064  0.154450      1.000000
  0.154450  0.022064  0.154450      1.000000
 -0.154450  0.022064  0.154450      1.000000
 -0.110321  0.022064  0.154450      1.000000
 -0.066193  0.022064  0.154450      1.000000
 -0.022064  0.022064  0.154450      1.000000
  0.022064  0.066193  0.154450      1.000000
  0.066193  0.066193  0.154450      1.000000
  0.110321  0.066193  0.154450      1.000000
  0.154450  0.066193  0.154450      1.000000
 -0.154450  0.066193  0.154450      1.000000
 -0.110321  0.066193  0.154450      1.000000
 -0.066193  0.066193  0.154450      1.000000
 -0.022064  0.066193  0.154450      1.000000
  0.022064  0.110321  0.154450      1.000000
  0.066193  0.110321  0.154450      1.000000
  0.110321  0.110321  0.154450      1.000000
  0.154450  0.110321  0.154450      1.000000
 -0.154450  0.110321  0.154450      1.000000
 -0.110321  0.110321  0.154450      1.000000
 -0.066193  0.110321  0.154450      1.000000
 -0.022064  0.110321  0.154450      1.000000
  0.022064  0.154450  0.154450      1.000000
  0.066193  0.154450  0.154450      1.000000
  0.110321  0.154450  0.154450      1.000000
  0.154450  0.154450  0.154450      1.000000
 -0.154450  0.154450  0.154450      1.000000
 -0.110321  0.154450  0.154450      1.000000
 -0.066193  0.154450  0.154450      1.000000
 -0.022064  0.154450  0.154450      1.000000
  0.022064 -0.154450  0.154450      1.000000
  0.066193 -0.154450  0.154450      1.000000
  0.110321 -0.154450  0.154450      1.000000
  0.154450 -0.154450  0.154450      1.000000
 -0.154450 -0.154450  0.154450      1.000000
 -0.110321 -0.154450  0.154450      1.000000
 -0.066193 -0.154450  0.154450      1.000000
 -0.022064 -0.154450  0.154450      1.000000
  0.022064 -0.110321  0.154450      1.000000
  0.066193 -0.110321  0.154450      1.000000
  0.110321 -0.110321  0.154450      1.000000
  0.154450 -0.110321  0.154450      1.000000
 -0.154450 -0.110321  0.154450      1.000000
 -0.110321 -0.110321  0.154450      1.000000
 -0.066193 -0.110321  0.154450      1.000000
 -0.022064 -0.110321  0.154450      1.000000
  0.022064 -0.066193  0.154450      1.000000
  0.066193 -0.066193  0.154450      1.000000
  0.110321 -0.066193  0.154450      1.000000
  0.154450 -0.066193  0.154450      1.000000
 -0.154450 -0.066193  0.154450      1.000000
 -0.110321 -0.066193  0.154450      1.000000
 -0.066193 -0.066193  0.154450      1.000000
 -0.022064 -0.066193  0.154450      1.000000
  0.022064 -0.022064  0.154450      1.000000
  0.066193 -0.022064  0.154450      1.000000
  0.110321 -0.022064  0.154450      1.000000
  0.154450 -0.022064  0.154450      1.000000
 -0.154450 -0.022064  0.154450      1.000000
 -0.110321 -0.022064  0.154450      1.000000
 -0.066193 -0.022064  0.154450      1.000000
 -0.022064 -0.022064  0.154450      1.000000
  0.022064  0.022064 -0.154450      1.000000
  0.066193  0.022064 -0.154450      1.000000
  0.110321  0.022064 -0.154450      1.000000
  0.154450  0.022064 -0.154450      1.000000
 -0.154450  0.022064 -0.154450      1.000000
 -0.110321  0.022064 -0.154450      1.000000
 -0.066193  0.022064 -0.154450      1.000000
 -0.022064  0.022064 -0.154450      1.000000
  0.022064  0.066193 -0.154450      1.000000
  0.066193  0.066193 -0.154450      1.000000
  0.110321  0.066193 -0.154450      1.000000
  0.154450  0.066193 -0.154450      1.000000
 -0.154450  0.066193 -0.154450      1.000000
 -0.110321  0.066193 -0.154450      1.000000
 -0.066193  0.066193 -0.154450      1.000000
 -0.022064  0.066193 -0.154450      1.000000
  0.022064  0.110321 -0.154450      1.000000
  0.066193  0.110321 -0.154450      1.000000
  0.110321  0.110321 -0.154450      1.000000
  0.154450  0.110321 -0.154450      1.000000
 -0.154450  0.110321 -0.154450      1.000000
 -0.110321  0.110321 -0.154450      1.000000
 -0.066193  0.110321 -0.154450      1.000000
 -0.022064  0.110321 -0.154450      1.000000
  0.022064  0.154450 -0.154450      1.000000
  0.066193  0.154450 -0.154450      1.000000
  0.110321  0.154450 -0.154450      1.000000
  0.154450  0.154450 -0.154450      1.000000
 -0.154450  0.154450 -0.154450      1.000000
 -0.110321  0.154450 -0.154450      1.000000
 -0.066193  0.154450 -0.154450      1.000000
 -0.022064  0.154450 -0.154450      1.000000
  0.022064 -0.154450 -0.154450      1.000000
  0.066193 -0.154450 -0.154450      1.000000
  0.110321 -0.154450 -0.154450      1.000000
  0.154450 -0.154450 -0.154450      1.000000
 -0.154450 -0.154450 -0.154450      1.000000
 -0.110321 -0.154450 -0.154450      1.000000
 -0.066193 -0.154450 -0.154450      1.000000
 -0.022064 -0.154450 -0.154450      1.000000
  0.022064 -0.110321 -0.154450      1.000000
  0.066193 -0.110321 -0.154450      1.000000
  0.110321 -0.110321 -0.154450      1.000000
  0.154450 -0.110321 -0.154450      1.000000
 -0.154450 -0.110321 -0.154450      1.000000
 -0.110321 -0.110321 -0.154450      1.000000
 -0.066193 -0.110321 -0.154450      1.000000
 -0.022064 -0.110321 -0.154450      1.000000
  0.022064 -0.066193 -0.154450      1.000000
  0.066193 -0.066193 -0.154450      1.000000
  0.110321 -0.066193 -0.154450      1.000000
  0.154450 -0.066193 -0.154450      1.000000
 -0.154450 -0.066193 -0.154450      1.000000
 -0.110321 -0.066193 -0.154450      1.000000
 -0.066193 -0.066193 -0.154450      1.000000
 -0.022064 -0.066193 -0.154450      1.000000
  0.022064 -0.022064 -0.154450      1.000000
  0.066193 -0.022064 -0.154450      1.000000
  0.110321 -0.022064 -0.154450      1.000000
  0.154450 -0.022064 -0.154450      1.000000
 -0.154450 -0.022064 -0.154450      1.000000
 -0.110321 -0.022064 -0.154450      1.000000
 -0.066193 -0.022064 -0.154450      1.000000
 -0.022064 -0.022064 -0.154450      1.000000
  0.022064  0.022064 -0.110321      1.000000
  0.066193  0.022064 -0.110321      1.000000
  0.110321  0.022064 -0.110321      1.000000
  0.154450  0.022064 -0.110321      1.000000
 -0.154450  0.022064 -0.110321      1.000000
 -0.110321  0.022064 -0.110321      1.000000
 -0.066193  0.022064 -0.110321      1.000000
 -0.022064  0.022064 -0.110321      1.000000
  0.022064  0.066193 -0.110321      1.000000
  0.066193  0.066193 -0.110321      1.000000
  0.110321  0.066193 -0.110321      1.000000
  0.154450  0.066193 -0.110321      1.000000
 -0.154450  0.066193 -0.110321      1.000000
 -0.110321  0.066193 -0.110321      1.000000
 -0.066193  0.066193 -0.110321      1.000000
 -0.022064  0.066193 -0.110321      1.000000
  0.022064  0.110321 -0.110321      1.000000
  0.066193  0.110321 -0.110321      1.000000
  0.110321  0.110321 -0.110321      1.000000
  0.154450  0.110321 -0.110321      1.000000
 -0.154450  0.110321 -0.110321      1.000000
 -0.110321  0.110321 -0.110321      1.000000
 -0.066193  0.110321 -0.110321      1.000000
 -0.022064  0.110321 -0.110321      1.000000
  0.022064  0.154450 -0.110321      1.000000
  0.066193  0.154450 -0.110321      1.000000
  0.110321  0.154450 -0.110321      1.000000
  0.154450  0.154450 -0.110321      1.000000
 -0.154450  0.154450 -0.110321      1.000000
 -0.110321  0.154450 -0.110321      1.000000
 -0.066193  0.154450 -0.110321      1.000000
 -0.022064  0.154450 -0.110321      1.000000
  0.022064 -0.154450 -0.110321      1.000000
  0.066193 -0.154450 -0.110321      1.000000
  0.110321 -0.154450 -0.110321      1.000000
  0.154450 -0.154450 -0.110321      1.000000
 -0.154450 -0.154450 -0.110321      1.000000
 -0.110321 -0.154450 -0.110321      1.000000
 -0.066193 -0.154450 -0.110321      1.000000
 -0.022064 -0.154450 -0.110321      1.000000
  0.022064 -0.110321 -0.110321      1.000000
  0.066193 -0.110321 -0.110321      1.000000
  0.110321 -0.110321 -0.110321      1.000000
  0.154450 -0.110321 -0.110321      1.000000
 -0.154450 -0.110321 -0.110321      1.000000
 -0.110321 -0.110321 -0.110321      1.000000
 -0.066193 -0.110321 -0.110321      1.000000
 -0.022064 -0.110321 -0.110321      1.000000
  0.022064 -0.066193 -0.110321      1.000000
  0.066193 -0.066193 -0.110321      1.000000
  0.110321 -0.066193 -0.110321      1.000000
  0.154450 -0.066193 -0.110321      1.000000
 -0.154450 -0.066193 -0.110321      1.000000
 -0.110321 -0.066193 -0.110321      1.000000
 -0.066193 -0.066193 -0.110321      1.000000
 -0.022064 -0.066193 -0.110321      1.000000
  0.022064 -0.022064 -0.110321      1.000000
  0.066193 -0.022064 -0.110321      1.000000
  0.110321 -0.022064 -0.110321      1.000000
  0.154450 -0.022064 -0.110321      1.000000
 -0.154450 -0.022064 -0.110321      1.000000
 -0.110321 -0.022064 -0.110321      1.000000
 -0.066193 -0.022064 -0.110321      1.000000
 -0.022064 -0.022064 -0.110321      1.000000
  0.022064  0.022064 -0.066193      1.000000
  0.066193  0.022064 -0.066193      1.000000
  0.110321  0.022064 -0.066193      1.000000
  0.154450  0.022064 -0.066193      1.000000
 -0.154450  0.022064 -0.066193      1.000000
 -0.110321  0.022064 -0.066193      1.000000
 -0.066193  0.022064 -0.066193      1.000000
 -0.022064  0.022064 -0.066193      1.000000
  0.022064  0.066193 -0.066193      1.000000
  0.066193  0.066193 -0.066193      1.000000
  0.110321  0.066193 -0.066193      1.000000
  0.154450  0.066193 -0.066193      1.000000
 -0.154450  0.066193 -0.066193      1.000000
 -0.110321  0.066193 -0.066193      1.000000
 -0.066193  0.066193 -0.066193      1.000000
 -0.022064  0.066193 -0.066193      1.000000
  0.022064  0.110321 -0.066193      1.000000
  0.066193  0.110321 -0.066193      1.000000
  0.110321  0.110321 -0.066193      1.000000
  0.154450  0.110321 -0.066193      1.000000
 -0.154450  0.110321 -0.066193      1.000000
 -0.110321  0.110321 -0.066193      1.000000
 -0.066193  0.110321 -0.066193      1.000000
 -0.022064  0.110321 -0.066193      1.000000
  0.022064  0.154450 -0.066193      1.000000
  0.066193  0.154450 -0.066193      1.000000
  0.110321  0.154450 -0.066193      1.000000
  0.154450  0.154450 -0.066193      1.000000
 -0.154450  0.154450 -0.066193      1.000000
 -0.110321  0.154450 -0.066193      1.000000
 -0.066193  0.154450 -0.066193      1.000000
 -0.022064  0.154450 -0.066193      1.000000
  0.022064 -0.154450 -0.066193      1.000000
  0.066193 -0.154450 -0.066193      1.000000
  0.110321 -0.154450 -0.066193      1.000000
  0.154450 -0.154450 -0.066193      1.000000
 -0.154450 -0.154450 -0.066193      1.000000
 -0.110321 -0.154450 -0.066193      1.000000
 -0.066193 -0.154450 -0.066193      1.000000
 -0.022064 -0.154450 -0.066193      1.000000
  0.022064 -0.110321 -0.066193      1.000000
  0.066193 -0.110321 -0.066193      1.000000
  0.110321 -0.110321 -0.066193      1.000000
  0.154450 -0.110321 -0.066193      1.000000
 -0.154450 -0.110321 -0.066193      1.000000
 -0.110321 -0.110321 -0.066193      1.000000
 -0.066193 -0.110321 -0.066193      1.000000
 -0.022064 -0.110321 -0.066193      1.000000
  0.022064 -0.066193 -0.066193      1.000000
  0.066193 -0.066193 -0.066193      1.000000
  0.110321 -0.066193 -0.066193      1.000000
  0.154450 -0.066193 -0.066193      1.000000
 -0.154450 -0.066193 -0.066193      1.000000
 -0.110321 -0.066193 -0.066193      1.000000
 -0.066193 -0.066193 -0.066193      1.000000
 -0.022064 -0.066193 -0.066193      1.000000
  0.022064 -0.022064 -0.066193      1.000000
  0.066193 -0.022064 -0.066193      1.000000
  0.110321 -0.022064 -0.066193      1.000000
  0.154450 -0.022064 -0.066193      1.000000
 -0.154450 -0.022064 -0.066193      1.000000
 -0.110321 -0.022064 -0.066193      1.000000
 -0.066193 -0.022064 -0.066193      1.000000
 -0.022064 -0.022064 -0.066193      1.000000
  0.022064  0.022064 -0.022064      1.000000
  0.066193  0.022064 -0.022064      1.000000
  0.110321  0.022064 -0.022064      1.000000
  0.154450  0.022064 -0.022064      1.000000
 -0.154450  0.022064 -0.022064      1.000000
 -0.110321  0.022064 -0.022064      1.000000
 -0.066193  0.022064 -0.022064      1.000000
 -0.022064  0.022064 -0.022064      1.000000
  0.022064  0.066193 -0.022064      1.000000
  0.066193  0.066193 -0.022064      1.000000
  0.110321  0.066193 -0.022064      1.000000
  0.154450  0.066193 -0.022064      1.000000
 -0.154450  0.066193 -0.022064      1.000000
 -0.110321  0.066193 -0.022064      1.000000
 -0.066193  0.066193 -0.022064      1.000000
 -0.022064  0.066193 -0.022064      1.000000
  0.022064  0.110321 -0.022064      1.000000
  0.066193  0.110321 -0.022064      1.000000
  0.110321  0.110321 -0.022064      1.000000
  0.154450  0.110321 -0.022064      1.000000
 -0.154450  0.110321 -0.022064      1.000000
 -0.110321  0.110321 -0.022064      1.000000
 -0.066193  0.110321 -0.022064      1.000000
 -0.022064  0.110321 -0.022064      1.000000
  0.022064  0.154450 -0.022064      1.000000
  0.066193  0.154450 -0.022064      1.000000
  0.110321  0.154450 -0.022064      1.000000
  0.154450  0.154450 -0.022064      1.000000
 -0.154450  0.154450 -0.022064      1.000000
 -0.110321  0.154450 -0.022064      1.000000
 -0.066193  0.154450 -0.022064      1.000000
 -0.022064  0.154450 -0.022064      1.000000
  0.022064 -0.154450 -0.022064      1.000000
  0.066193 -0.154450 -0.022064      1.000000
  0.110321 -0.154450 -0.022064      1.000000
  0.154450 -0.154450 -0.022064      1.000000
 -0.154450 -0.154450 -0.022064      1.000000
 -0.110321 -0.154450 -0.022064      1.000000
 -0.066193 -0.154450 -0.022064      1.000000
 -0.022064 -0.154450 -0.022064      1.000000
  0.022064 -0.110321 -0.022064      1.000000
  0.066193 -0.110321 -0.022064      1.000000
  0.110321 -0.110321 -0.022064      1.000000
  0.154450 -0.110321 -0.022064      1.000000
 -0.154450 -0.110321 -0.022064      1.000000
 -0.110321 -0.110321 -0.022064      1.000000
 -0.066193 -0.110321 -0.022064      1.000000
 -0.022064 -0.110321 -0.022064      1.000000
  0.022064 -0.066193 -0.022064      1.000000
  0.066193 -0.066193 -0.022064      1.000000
  0.110321 -0.066193 -0.022064      1.000000
  0.154450 -0.066193 -0.022064      1.000000
 -0.154450 -0.066193 -0.022064      1.000000
 -0.110321 -0.066193 -0.022064      1.000000
 -0.066193 -0.066193 -0.022064      1.000000
 -0.022064 -0.066193 -0.022064      1.000000
  0.022064 -0.022064 -0.022064      1.000000
  0.066193 -0.022064 -0.022064      1.000000
  0.110321 -0.022064 -0.022064      1.000000
  0.154450 -0.022064 -0.022064      1.000000
 -0.154450 -0.022064 -0.022064      1.000000
 -0.110321 -0.022064 -0.022064      1.000000
 -0.066193 -0.022064 -0.022064      1.000000
 -0.022064 -0.022064 -0.022064      1.000000
 


--------------------------------------------------------------------------------------------------------




 Dimension of arrays:
   k-points           NKPTS =    512   k-points in BZ     NKDIM =    512   number of bands    NBANDS=     32
   number of dos      NEDOS =    301   number of ions     NIONS =      2
   non local maximal  LDIM  =      6   non local SUM 2l+1 LMDIM =     18
   total plane-waves  NPLWV =  13824
   max r-space proj   IRMAX =      1   max aug-charges    IRDMAX=  21863
   dimension x,y,z NGX =    24 NGY =   24 NGZ =   24
   dimension x,y,z NGXF=    48 NGYF=   48 NGZF=   48
   support grid    NGXF=    48 NGYF=   48 NGZF=   48
   ions per type =               2
   NGX,Y,Z   is equivalent  to a cutoff of  14.09, 14.09, 14.09 a.u.
   NGXF,Y,Z  is equivalent  to a cutoff of  28.17, 28.17, 28.17 a.u.

 SYSTEM =  unknown system                          
 POSCAR =  Fe_bcc                                  

 Startparameter for this run:
   NWRITE =      2    write-flag & timer
   PREC   = accura    normal or accurate (medium, high low for compatibility)
   ISTART =      0    job   : 0-new  1-cont  2-samecut
   ICHARG =     11    charge: 1-file 2-atom 10-const
   ISPIN  =      1    spin polarized calculation?
   LNONCOLLINEAR =      T non collinear calculations
   LSORBIT =      T    spin-orbit coupling
   INIWAV =      1    electr: 0-lowe 1-rand  2-diag
   LASPH  =      F    aspherical Exc in radial PAW
   METAGGA=      F    non-selfconsistent MetaGGA calc.

 Electronic Relaxation 1
   ENCUT  =  500.0 eV  36.75 Ry    6.06 a.u.   5.16  5.16  5.16*2*pi/ulx,y,z
   ENINI  =  500.0     initial cutoff
   ENAUG  =  511.4 eV  augmentation charge cutoff
   NELM   =     60;   NELMIN=  2; NELMDL= -5     # of ELM steps 
   EDIFF  = 0.1E-04   stopping-criterion for ELM
   LREAL  =      F    real-space projection
   NLSPLINE    = F    spline interpolate recip. space projectors
   LCOMPAT=      F    compatible to vasp.4.4
   GGA_COMPAT  = F    GGA compatible to vasp.4.4-vasp.4.6
   LMAXPAW     = -100 max onsite density
   LMAXMIX     =    4 max onsite mixed and CHGCAR
   VOSKOWN=      0    Vosko Wilk Nusair interpolation
   ROPT   =    0.00000
 Ionic relaxation
   EDIFFG = 0.1E-03   stopping-criterion for IOM
   NSW    =      0    number of steps for IOM
   NBLOCK =      1;   KBLOCK =      1    inner block; outer block 
   IBRION =     -1    ionic relax: 0-MD 1-quasi-New 2-CG
   NFREE  =      0    steps in history (QN), initial steepest desc. (CG)
   ISIF   =      2    stress and relaxation
   IWAVPR =     10    prediction:  0-non 1-charg 2-wave 3-comb
   ISYM   =      0    0-nonsym 1-usesym 2-fastsym
   LCORR  =      T    Harris-Foulkes like correction to forces

   POTIM  = 0.5000    time-step for ionic-motion
   TEIN   =    0.0    initial temperature
   TEBEG  =    0.0;   TEEND  =   0.0 temperature during run
   SMASS  =  -3.00    Nose mass-parameter (am)
   estimated Nose-frequenzy (Omega)   =  0.10E-29 period in steps =****** mass=  -0.183E-27a.u.
   SCALEE = 1.0000    scale energy and forces
   NPACO  =    256;   APACO  = 16.0  distance and # of slots for P.C.
   PSTRESS=    0.0 pullay stress

  Mass of Ions in am
   POMASS =  55.85
  Ionic Valenz
   ZVAL   =   8.00
  Atomic Wigner-Seitz radii
   RWIGS  =  -1.00
  virtual crystal weights 
   VCA    =   1.00
   NELECT =      16.0000    total number of electrons
   NUPDOWN=      -1.0000    fix difference up-down

 DOS related values:
   EMIN   =  10.00;   EMAX   =-10.00  energy-range for DOS
   EFERMI =   0.00
   ISMEAR =     1;   SIGMA  =   0.20  broadening in eV -4-tet -1-fermi 0-gaus

 Electronic relaxation 2 (details)
   IALGO  =     38    algorithm
   LDIAG  =      T    sub-space diagonalisation (order eigenvalues)
   LSUBROT=      F    optimize rotation matrix (better conditioning)
   TURBO    =      0    0=normal 1=particle mesh
   IRESTART =      0    0=no restart 2=restart with 2 vectors
   NREBOOT  =      0    no. of reboots
   NMIN     =      0    reboot dimension
   EREF     =   0.00    reference energy to select bands
   IMIX   =      4    mixing-type and parameters
     AMIX     =   0.40;   BMIX     =  1.00
     AMIX_MAG =   1.60;   BMIX_MAG =  1.00
     AMIN     =   0.10
     WC   =   100.;   INIMIX=   1;  MIXPRE=   1;  MAXMIX= -45

 Intra band minimization:
   WEIMIN = 0.0000     energy-eigenvalue tresh-hold
   EBREAK =  0.78E-07  absolut break condition
   DEPER  =   0.30     relativ break condition  

   TIME   =   0.40     timestep for ELM

  volume/ion in A,a.u.               =      11.36        76.69
  Fermi-wavevector in a.u.,A,eV,Ry     =   1.456323  2.752052 28.856282  2.120877
  Thomas-Fermi vector in A             =   2.573255
 
 Write flags
   LWAVE        =      F    write WAVECAR
   LDOWNSAMPLE  =      F    k-point downsampling of WAVECAR
   LCHARG       =      F    write CHGCAR
   LVTOT        =      F    write LOCPOT, total local potential
   LVHAR        =      F    write LOCPOT, Hartree potential only
   LELF         =      F    write electronic localiz. function (ELF)
   LORBIT       =     11    0 simple, 1 ext, 2 COOP (PROOUT), +10 PAW based schemes


 Dipole corrections
   LMONO  =      F    monopole corrections only (constant potential shift)
   LDIPOL =      F    correct potential (dipole corrections)
   IDIPOL =      0    1-x, 2-y, 3-z, 4-all directions 
   EPSILON=  1.0000000 bulk dielectric constant

 Exchange correlation treatment:
   GGA     =    --    GGA type
   LEXCH   =     8    internal setting for exchange type
   VOSKOWN=      0    Vosko Wilk Nusair interpolation
   LHFCALC =     F    Hartree Fock is set to
   LHFONE  =     F    Hartree Fock one center treatment
   AEXX    =    0.0000 exact exchange contribution

 Linear response parameters
   LEPSILON=     F    determine dielectric tensor
   LRPA    =     F    only Hartree local field effects (RPA)
   LNABLA  =     F    use nabla operator in PAW spheres
   LVEL    =     F    velocity operator in full k-point grid
   LINTERFAST=   F  fast interpolation
   KINTER  =     0    interpolate to denser k-point grid
   CSHIFT  =0.1000    complex shift for real part using Kramers Kronig
   OMEGAMAX=  -1.0    maximum frequency
   DEG_THRESHOLD= 0.2000000E-02 threshold for treating states as degnerate
   RTIME   =   -0.100 relaxation time in fs
  (WPLASMAI=    0.000 imaginary part of plasma frequency in eV, 0.658/RTIME)
   DFIELD  = 0.0000000 0.0000000 0.0000000 field for delta impulse in time
 
 Orbital magnetization related:
   ORBITALMAG=     F  switch on orbital magnetization
   LCHIMAG   =     F  perturbation theory with respect to B field
   DQ        =  0.001000  dq finite difference perturbation B field
   LLRAUG    =     F  two centre corrections for induced B field



--------------------------------------------------------------------------------------------------------


 Static calculation
 charge density and potential remain constant during run
 non collinear spin polarized calculation
 Variant of blocked Davidson
 Davidson routine will perform the subspace rotation
 perform sub-space diagonalisation
    after iterative eigenvector-optimisation
 no mixing
 using additional bands           24
 reciprocal scheme for non local part
 use partial core corrections
 calculate Harris-corrections to forces 
   (improved forces if not selfconsistent)
 use gradient corrections 
 WARNING: stress and forces are not correct
  (second derivative of E(xc) not defined)
 use of overlap-Matrix (Vanderbilt PP)
 Methfessel and Paxton  Order N= 1 SIGMA  =   0.20


--------------------------------------------------------------------------------------------------------


  energy-cutoff  :      500.00
  volume of cell :       22.73
      direct lattice vectors                 reciprocal lattice vectors
     2.832633757  0.000000000  0.000000000     0.353028342 -0.000000000  0.000000000
     0.000000000  2.832633757  0.000000000     0.000000000  0.353028342  0.000000000
     0.000000000  0.000000000  2.832633757    -0.000000000 -0.000000000  0.353028342

  length of vectors
     2.832633757  2.832633757  2.832633757     0.353028342  0.353028342  0.353028342


 
 k-points in units of 2pi/SCALE and weight: k-points                                
   0.02206427  0.02206427  0.02206427       0.002
   0.06619281  0.02206427  0.02206427       0.002
   0.11032136  0.02206427  0.02206427       0.002
   0.15444990  0.02206427  0.02206427       0.002
  -0.15444990  0.02206427  0.02206427       0.002
  -0.11032136  0.02206427  0.02206427       0.002
  -0.06619281  0.02206427  0.02206427       0.002
  -0.02206427  0.02206427  0.02206427       0.002
   0.02206427  0.06619281  0.02206427       0.002
   0.06619281  0.06619281  0.02206427       0.002
   0.11032136  0.06619281  0.02206427       0.002
   0.15444990  0.06619281  0.02206427       0.002
  -0.15444990  0.06619281  0.02206427       0.002
  -0.11032136  0.06619281  0.02206427       0.002
  -0.06619281  0.06619281  0.02206427       0.002
  -0.02206427  0.06619281  0.02206427       0.002
   0.02206427  0.11032136  0.02206427       0.002
   0.06619281  0.11032136  0.02206427       0.002
   0.11032136  0.11032136  0.02206427       0.002
   0.15444990  0.11032136  0.02206427       0.002
  -0.15444990  0.11032136  0.02206427       0.002
  -0.11032136  0.11032136  0.02206427       0.002
  -0.06619281  0.11032136  0.02206427       0.002
  -0.02206427  0.11032136  0.02206427       0.002
   0.02206427  0.15444990  0.02206427       0.002
   0.06619281  0.15444990  0.02206427       0.002
   0.11032136  0.15444990  0.02206427       0.002
   0.15444990  0.15444990  0.02206427       0.002
  -0.15444990  0.15444990  0.02206427       0.002
  -0.11032136  0.15444990  0.02206427       0.002
  -0.06619281  0.15444990  0.02206427       0.002
  -0.02206427  0.15444990  0.02206427       0.002
   0.02206427 -0.15444990  0.02206427       0.002
   0.06619281 -0.15444990  0.02206427       0.002
   0.11032136 -0.15444990  0.02206427       0.002
   0.15444990 -0.15444990  0.02206427       0.002
  -0.15444990 -0.15444990  0.02206427       0.002
  -0.11032136 -0.15444990  0.02206427       0.002
  -0.06619281 -0.15444990  0.02206427       0.002
  -0.02206427 -0.15444990  0.02206427       0.002
   0.02206427 -0.11032136  0.02206427       0.002
   0.06619281 -0.11032136  0.02206427       0.002
   0.11032136 -0.11032136  0.02206427       0.002
   0.15444990 -0.11032136  0.02206427       0.002
  -0.15444990 -0.11032136  0.02206427       0.002
  -0.11032136 -0.11032136  0.02206427       0.002
  -0.06619281 -0.11032136  0.02206427       0.002
  -0.02206427 -0.11032136  0.02206427       0.002
   0.02206427 -0.06619281  0.02206427       0.002
   0.06619281 -0.06619281  0.02206427       0.002
   0.11032136 -0.06619281  0.02206427       0.002
   0.15444990 -0.06619281  0.02206427       0.002
  -0.15444990 -0.06619281  0.02206427       0.002
  -0.11032136 -0.06619281  0.02206427       0.002
  -0.06619281 -0.06619281  0.02206427       0.002
  -0.02206427 -0.06619281  0.02206427       0.002
   0.02206427 -0.02206427  0.02206427       0.002
   0.06619281 -0.02206427  0.02206427       0.002
   0.11032136 -0.02206427  0.02206427       0.002
   0.15444990 -0.02206427  0.02206427       0.002
  -0.15444990 -0.02206427  0.02206427       0.002
  -0.11032136 -0.02206427  0.02206427       0.002
  -0.06619281 -0.02206427  0.02206427       0.002
  -0.02206427 -0.02206427  0.02206427       0.002
   0.02206427  0.02206427  0.06619281       0.002
   0.06619281  0.02206427  0.06619281       0.002
   0.11032136  0.02206427  0.06619281       0.002
   0.15444990  0.02206427  0.06619281       0.002
  -0.15444990  0.02206427  0.06619281       0.002
  -0.11032136  0.02206427  0.06619281       0.002
  -0.06619281  0.02206427  0.06619281       0.002
  -0.02206427  0.02206427  0.06619281       0.002
   0.02206427  0.06619281  0.06619281       0.002
   0.06619281  0.06619281  0.06619281       0.002
   0.11032136  0.06619281  0.06619281       0.002
   0.15444990  0.06619281  0.06619281       0.002
  -0.15444990  0.06619281  0.06619281       0.002
  -0.11032136  0.06619281  0.06619281       0.002
  -0.06619281  0.06619281  0.06619281       0.002
  -0.02206427  0.06619281  0.06619281       0.002
   0.02206427  0.11032136  0.06619281       0.002
   0.06619281  0.11032136  0.06619281       0.002
   0.11032136  0.11032136  0.06619281       0.002
   0.15444990  0.11032136  0.06619281       0.002
  -0.15444990  0.11032136  0.06619281       0.002
  -0.11032136  0.11032136  0.06619281       0.002
  -0.06619281  0.11032136  0.06619281       0.002
  -0.02206427  0.11032136  0.06619281       0.002
   0.02206427  0.15444990  0.06619281       0.002
   0.06619281  0.15444990  0.06619281       0.002
   0.11032136  0.15444990  0.06619281       0.002
   0.15444990  0.15444990  0.06619281       0.002
  -0.15444990  0.15444990  0.06619281       0.002
  -0.11032136  0.15444990  0.06619281       0.002
  -0.06619281  0.15444990  0.06619281       0.002
  -0.02206427  0.15444990  0.06619281       0.002
   0.02206427 -0.15444990  0.06619281       0.002
   0.06619281 -0.15444990  0.06619281       0.002
   0.11032136 -0.15444990  0.06619281       0.002
   0.15444990 -0.15444990  0.06619281       0.002
  -0.15444990 -0.15444990  0.06619281       0.002
  -0.11032136 -0.15444990  0.06619281       0.002
  -0.06619281 -0.15444990  0.06619281       0.002
  -0.02206427 -0.15444990  0.06619281       0.002
   0.02206427 -0.11032136  0.06619281       0.002
   0.06619281 -0.11032136  0.06619281       0.002
   0.11032136 -0.11032136  0.06619281       0.002
   0.15444990 -0.11032136  0.06619281       0.002
  -0.15444990 -0.11032136  0.06619281       0.002
  -0.11032136 -0.11032136  0.06619281       0.002
  -0.06619281 -0.11032136  0.06619281       0.002
  -0.02206427 -0.11032136  0.06619281       0.002
   0.02206427 -0.06619281  0.06619281       0.002
   0.06619281 -0.06619281  0.06619281       0.002
   0.11032136 -0.06619281  0.06619281       0.002
   0.15444990 -0.06619281  0.06619281       0.002
  -0.15444990 -0.06619281  0.06619281       0.002
  -0.11032136 -0.06619281  0.06619281       0.002
  -0.06619281 -0.06619281  0.06619281       0.002
  -0.02206427 -0.06619281  0.06619281       0.002
   0.02206427 -0.02206427  0.06619281       0.002
   0.06619281 -0.02206427  0.06619281       0.002
   0.11032136 -0.02206427  0.06619281       0.002
   0.15444990 -0.02206427  0.06619281       0.002
  -0.15444990 -0.02206427  0.06619281       0.002
  -0.11032136 -0.02206427  0.06619281       0.002
  -0.06619281 -0.02206427  0.06619281       0.002
  -0.02206427 -0.02206427  0.06619281       0.002
   0.02206427  0.02206427  0.11032136       0.002
   0.06619281  0.02206427  0.11032136       0.002
   0.11032136  0.02206427  0.11032136       0.002
   0.15444990  0.02206427  0.11032136       0.002
  -0.15444990  0.02206427  0.11032136       0.002
  -0.11032136  0.02206427  0.11032136       0.002
  -0.06619281  0.02206427  0.11032136       0.002
  -0.02206427  0.02206427  0.11032136       0.002
   0.02206427  0.06619281  0.11032136       0.002
   0.06619281  0.06619281  0.11032136       0.002
   0.11032136  0.06619281  0.11032136       0.002
   0.15444990  0.06619281  0.11032136       0.002
  -0.15444990  0.06619281  0.11032136       0.002
  -0.11032136  0.06619281  0.11032136       0.002
  -0.06619281  0.06619281  0.11032136       0.002
  -0.02206427  0.06619281  0.11032136       0.002
   0.02206427  0.11032136  0.11032136       0.002
   0.06619281  0.11032136  0.11032136       0.002
   0.11032136  0.11032136  0.11032136       0.002
   0.15444990  0.11032136  0.11032136       0.002
  -0.15444990  0.11032136  0.11032136       0.002
  -0.11032136  0.11032136  0.11032136       0.002
  -0.06619281  0.11032136  0.11032136       0.002
  -0.02206427  0.11032136  0.11032136       0.002
   0.02206427  0.15444990  0.11032136       0.002
   0.06619281  0.15444990  0.11032136       0.002
   0.11032136  0.15444990  0.11032136       0.002
   0.15444990  0.15444990  0.11032136       0.002
  -0.15444990  0.15444990  0.11032136       0.002
  -0.11032136  0.15444990  0.11032136       0.002
  -0.06619281  0.15444990  0.11032136       0.002
  -0.02206427  0.15444990  0.11032136       0.002
   0.02206427 -0.15444990  0.11032136       0.002
   0.06619281 -0.15444990  0.11032136       0.002
   0.11032136 -0.15444990  0.11032136       0.002
   0.15444990 -0.15444990  0.11032136       0.002
  -0.15444990 -0.15444990  0.11032136       0.002
  -0.11032136 -0.15444990  0.11032136       0.002
  -0.06619281 -0.15444990  0.11032136       0.002
  -0.02206427 -0.15444990  0.11032136       0.002
   0.02206427 -0.11032136  0.11032136       0.002
   0.06619281 -0.11032136  0.11032136       0.002
   0.11032136 -0.11032136  0.11032136       0.002
   0.15444990 -0.11032136  0.11032136       0.002
  -0.15444990 -0.11032136  0.11032136       0.002
  -0.11032136 -0.11032136  0.11032136       0.002
  -0.06619281 -0.11032136  0.11032136       0.002
  -0.02206427 -0.11032136  0.11032136       0.002
   0.02206427 -0.06619281  0.11032136       0.002
   0.06619281 -0.06619281  0.11032136       0.002
   0.11032136 -0.06619281  0.11032136       0.002
   0.15444990 -0.06619281  0.11032136       0.002
  -0.15444990 -0.06619281  0.11032136       0.002
  -0.11032136 -0.06619281  0.11032136       0.002
  -0.06619281 -0.06619281  0.11032136       0.002
  -0.02206427 -0.06619281  0.11032136       0.002
   0.02206427 -0.02206427  0.11032136       0.002
   0.06619281 -0.02206427  0.11032136       0.002
   0.11032136 -0.02206427  0.11032136       0.002
   0.15444990 -0.02206427  0.11032136       0.002
  -0.15444990 -0.02206427  0.11032136       0.002
  -0.11032136 -0.02206427  0.11032136       0.002
  -0.06619281 -0.02206427  0.11032136       0.002
  -0.02206427 -0.02206427  0.11032136       0.002
   0.02206427  0.02206427  0.15444990       0.002
   0.06619281  0.02206427  0.15444990       0.002
   0.11032136  0.02206427  0.15444990       0.002
   0.15444990  0.02206427  0.15444990       0.002
  -0.15444990  0.02206427  0.15444990       0.002
  -0.11032136  0.02206427  0.15444990       0.002
  -0.06619281  0.02206427  0.15444990       0.002
  -0.02206427  0.02206427  0.15444990       0.002
   0.02206427  0.06619281  0.15444990       0.002
   0.06619281  0.06619281  0.15444990       0.002
   0.11032136  0.06619281  0.15444990       0.002
   0.15444990  0.06619281  0.15444990       0.002
  -0.15444990  0.06619281  0.15444990       0.002
  -0.11032136  0.06619281  0.15444990       0.002
  -0.06619281  0.06619281  0.15444990       0.002
  -0.02206427  0.06619281  0.15444990       0.002
   0.02206427  0.11032136  0.15444990       0.002
   0.06619281  0.11032136  0.15444990       0.002
   0.11032136  0.11032136  0.15444990       0.002
   0.15444990  0.11032136  0.15444990       0.002
  -0.15444990  0.11032136  0.15444990       0.002
  -0.11032136  0.11032136  0.15444990       0.002
  -0.06619281  0.11032136  0.15444990       0.002
  -0.02206427  0.11032136  0.15444990       0.002
   0.02206427  0.15444990  0.15444990       0.002
   0.06619281  0.15444990  0.15444990       0.002
   0.11032136  0.15444990  0.15444990       0.002
   0.15444990  0.15444990  0.15444990       0.002
  -0.15444990  0.15444990  0.15444990       0.002
  -0.11032136  0.15444990  0.15444990       0.002
  -0.06619281  0.15444990  0.15444990       0.002
  -0.02206427  0.15444990  0.15444990       0.002
   0.02206427 -0.15444990  0.15444990       0.002
   0.06619281 -0.15444990  0.15444990       0.002
   0.11032136 -0.15444990  0.15444990       0.002
   0.15444990 -0.15444990  0.15444990       0.002
  -0.15444990 -0.15444990  0.15444990       0.002
  -0.11032136 -0.15444990  0.15444990       0.002
  -0.06619281 -0.15444990  0.15444990       0.002
  -0.02206427 -0.15444990  0.15444990       0.002
   0.02206427 -0.11032136  0.15444990       0.002
   0.06619281 -0.11032136  0.15444990       0.002
   0.11032136 -0.11032136  0.15444990       0.002
   0.15444990 -0.11032136  0.15444990       0.002
  -0.15444990 -0.11032136  0.15444990       0.002
  -0.11032136 -0.11032136  0.15444990       0.002
  -0.06619281 -0.11032136  0.15444990       0.002
  -0.02206427 -0.11032136  0.15444990       0.002
   0.02206427 -0.06619281  0.15444990       0.002
   0.06619281 -0.06619281  0.15444990       0.002
   0.11032136 -0.06619281  0.15444990       0.002
   0.15444990 -0.06619281  0.15444990       0.002
  -0.15444990 -0.06619281  0.15444990       0.002
  -0.11032136 -0.06619281  0.15444990       0.002
  -0.06619281 -0.06619281  0.15444990       0.002
  -0.02206427 -0.06619281  0.15444990       0.002
   0.02206427 -0.02206427  0.15444990       0.002
   0.06619281 -0.02206427  0.15444990       0.002
   0.11032136 -0.02206427  0.15444990       0.002
   0.15444990 -0.02206427  0.15444990       0.002
  -0.15444990 -0.02206427  0.15444990       0.002
  -0.11032136 -0.02206427  0.15444990       0.002
  -0.06619281 -0.02206427  0.15444990       0.002
  -0.02206427 -0.02206427  0.15444990       0.002
   0.02206427  0.02206427 -0.15444990       0.002
   0.06619281  0.02206427 -0.15444990       0.002
   0.11032136  0.02206427 -0.15444990       0.002
   0.15444990  0.02206427 -0.15444990       0.002
  -0.15444990  0.02206427 -0.15444990       0.002
  -0.11032136  0.02206427 -0.15444990       0.002
  -0.06619281  0.02206427 -0.15444990       0.002
  -0.02206427  0.02206427 -0.15444990       0.002
   0.02206427  0.06619281 -0.15444990       0.002
   0.06619281  0.06619281 -0.15444990       0.002
   0.11032136  0.06619281 -0.15444990       0.002
   0.15444990  0.06619281 -0.15444990       0.002
  -0.15444990  0.06619281 -0.15444990       0.002
  -0.11032136  0.06619281 -0.15444990       0.002
  -0.06619281  0.06619281 -0.15444990       0.002
  -0.02206427  0.06619281 -0.15444990       0.002
   0.02206427  0.11032136 -0.15444990       0.002
   0.06619281  0.11032136 -0.15444990       0.002
   0.11032136  0.11032136 -0.15444990       0.002
   0.15444990  0.11032136 -0.15444990       0.002
  -0.15444990  0.11032136 -0.15444990       0.002
  -0.11032136  0.11032136 -0.15444990       0.002
  -0.06619281  0.11032136 -0.15444990       0.002
  -0.02206427  0.11032136 -0.15444990       0.002
   0.02206427  0.15444990 -0.15444990       0.002
   0.06619281  0.15444990 -0.15444990       0.002
   0.11032136  0.15444990 -0.15444990       0.002
   0.15444990  0.15444990 -0.15444990       0.002
  -0.15444990  0.15444990 -0.15444990       0.002
  -0.11032136  0.15444990 -0.15444990       0.002
  -0.06619281  0.15444990 -0.15444990       0.002
  -0.02206427  0.15444990 -0.15444990       0.002
   0.02206427 -0.15444990 -0.15444990       0.002
   0.06619281 -0.15444990 -0.15444990       0.002
   0.11032136 -0.15444990 -0.15444990       0.002
   0.15444990 -0.15444990 -0.15444990       0.002
  -0.15444990 -0.15444990 -0.15444990       0.002
  -0.11032136 -0.15444990 -0.15444990       0.002
  -0.06619281 -0.15444990 -0.15444990       0.002
  -0.02206427 -0.15444990 -0.15444990       0.002
   0.02206427 -0.11032136 -0.15444990       0.002
   0.06619281 -0.11032136 -0.15444990       0.002
   0.11032136 -0.11032136 -0.15444990       0.002
   0.15444990 -0.11032136 -0.15444990       0.002
  -0.15444990 -0.11032136 -0.15444990       0.002
  -0.11032136 -0.11032136 -0.15444990       0.002
  -0.06619281 -0.11032136 -0.15444990       0.002
  -0.02206427 -0.11032136 -0.15444990       0.002
   0.02206427 -0.06619281 -0.15444990       0.002
   0.06619281 -0.06619281 -0.15444990       0.002
   0.11032136 -0.06619281 -0.15444990       0.002
   0.15444990 -0.06619281 -0.15444990       0.002
  -0.15444990 -0.06619281 -0.15444990       0.002
  -0.11032136 -0.06619281 -0.15444990       0.002
  -0.06619281 -0.06619281 -0.15444990       0.002
  -0.02206427 -0.06619281 -0.15444990       0.002
   0.02206427 -0.02206427 -0.15444990       0.002
   0.06619281 -0.02206427 -0.15444990       0.002
   0.11032136 -0.02206427 -0.15444990       0.002
   0.15444990 -0.02206427 -0.15444990       0.002
  -0.15444990 -0.02206427 -0.15444990       0.002
  -0.11032136 -0.02206427 -0.15444990       0.002
  -0.06619281 -0.02206427 -0.15444990       0.002
  -0.02206427 -0.02206427 -0.15444990       0.002
   0.02206427  0.02206427 -0.11032136       0.002
   0.06619281  0.02206427 -0.11032136       0.002
   0.11032136  0.02206427 -0.11032136       0.002
   0.15444990  0.02206427 -0.11032136       0.002
  -0.15444990  0.02206427 -0.11032136       0.002
  -0.11032136  0.02206427 -0.11032136       0.002
  -0.06619281  0.02206427 -0.11032136       0.002
  -0.02206427  0.02206427 -0.11032136       0.002
   0.02206427  0.06619281 -0.11032136       0.002
   0.06619281  0.06619281 -0.11032136       0.002
   0.11032136  0.06619281 -0.11032136       0.002
   0.15444990  0.06619281 -0.11032136       0.002
  -0.15444990  0.06619281 -0.11032136       0.002
  -0.11032136  0.06619281 -0.11032136       0.002
  -0.06619281  0.06619281 -0.11032136       0.002
  -0.02206427  0.06619281 -0.11032136       0.002
   0.02206427  0.11032136 -0.11032136       0.002
   0.06619281  0.11032136 -0.11032136       0.002
   0.11032136  0.11032136 -0.11032136       0.002
   0.15444990  0.11032136 -0.11032136       0.002
  -0.15444990  0.11032136 -0.11032136       0.002
  -0.11032136  0.11032136 -0.11032136       0.002
  -0.06619281  0.11032136 -0.11032136       0.002
  -0.02206427  0.11032136 -0.11032136       0.002
   0.02206427  0.15444990 -0.11032136       0.002
   0.06619281  0.15444990 -0.11032136       0.002
   0.11032136  0.15444990 -0.11032136       0.002
   0.15444990  0.15444990 -0.11032136       0.002
  -0.15444990  0.15444990 -0.11032136       0.002
  -0.11032136  0.15444990 -0.11032136       0.002
  -0.06619281  0.15444990 -0.11032136       0.002
  -0.02206427  0.15444990 -0.11032136       0.002
   0.02206427 -0.15444990 -0.11032136       0.002
   0.06619281 -0.15444990 -0.11032136       0.002
   0.11032136 -0.15444990 -0.11032136       0.002
   0.15444990 -0.15444990 -0.11032136       0.002
  -0.15444990 -0.15444990 -0.11032136       0.002
  -0.11032136 -0.15444990 -0.11032136       0.002
  -0.06619281 -0.15444990 -0.11032136       0.002
  -0.02206427 -0.15444990 -0.11032136       0.002
   0.02206427 -0.11032136 -0.11032136       0.002
   0.06619281 -0.11032136 -0.11032136       0.002
   0.11032136 -0.11032136 -0.11032136       0.002
   0.15444990 -0.11032136 -0.11032136       0.002
  -0.15444990 -0.11032136 -0.11032136       0.002
  -0.11032136 -0.11032136 -0.11032136       0.002
  -0.06619281 -0.11032136 -0.11032136       0.002
  -0.02206427 -0.11032136 -0.11032136       0.002
   0.02206427 -0.06619281 -0.11032136       0.002
   0.06619281 -0.06619281 -0.11032136       0.002
   0.11032136 -0.06619281 -0.11032136       0.002
   0.15444990 -0.06619281 -0.11032136       0.002
  -0.15444990 -0.06619281 -0.11032136       0.002
  -0.11032136 -0.06619281 -0.11032136       0.002
  -0.06619281 -0.06619281 -0.11032136       0.002
  -0.02206427 -0.06619281 -0.11032136       0.002
   0.02206427 -0.02206427 -0.11032136       0.002
   0.06619281 -0.02206427 -0.11032136       0.002
   0.11032136 -0.02206427 -0.11032136       0.002
   0.15444990 -0.02206427 -0.11032136       0.002
  -0.15444990 -0.02206427 -0.11032136       0.002
  -0.11032136 -0.02206427 -0.11032136       0.002
  -0.06619281 -0.02206427 -0.11032136       0.002
  -0.02206427 -0.02206427 -0.11032136       0.002
   0.02206427  0.02206427 -0.06619281       0.002
   0.06619281  0.02206427 -0.06619281       0.002
   0.11032136  0.02206427 -0.06619281       0.002
[...]
  0.000   0.000   0.000   1.400   0.000   0.000   0.000   0.000   0.000   0.000   0.000   0.000   0.000   0.000   0.000   0.000
  0.000   0.000   0.000   0.000   1.400   0.000   0.000   0.000   0.000   0.000   0.000   0.000   0.000   0.000   0.000   0.000
  0.000   0.000   0.000   0.000   0.000   0.000   0.000   0.000   0.000   0.000   0.000   0.000   0.000   0.000   0.000   0.000
  0.000   0.000   0.000   0.000   0.000   0.000   0.000   0.000   0.000   0.000   0.000   0.000   0.000   0.000   0.000   0.000
  0.000   0.000   0.000   0.000   0.000   0.000   0.000   0.000   0.000   0.000   0.000   0.000   0.000   0.000   0.000   0.000
  0.000   0.000   0.000   0.000   0.000   0.000   0.000   0.000   0.000   0.000   0.000   0.000   0.000   0.000   0.000   0.000
  0.000   0.000   0.000   0.000   0.000   0.000   0.000   0.000   0.000   0.000   0.000   0.000   0.000   0.000   0.000   0.000
  0.000   0.000   0.000   0.000   0.000   0.000   0.000   0.000   0.000   0.000   1.000   0.000   0.000   0.000   0.000   0.000
  0.000   0.000   0.000   0.000   0.000   0.000   0.000   0.000   0.000   0.000   0.000   0.000   0.000   0.000   0.000   0.000
  0.000   0.000   0.000   0.000   0.000   0.000   0.000   0.000   0.000   0.000   0.000   0.000   0.000   0.000   0.000   0.000
  0.000   0.000   0.000   0.000   0.000   0.000   0.000   0.000   0.000   0.000   0.000   0.000   0.000   0.000   0.000   0.000
  0.000   0.000   0.000   0.000   0.000   0.000   0.000   0.000   0.000   0.000   0.000   0.000   0.000   0.000   0.000   0.000
  0.000   0.000   0.000   0.000   0.000   0.000   0.000   0.000   0.000   0.000   0.000   0.000   0.000   0.000   0.000   0.000
  0.000   0.000   0.000   0.000   0.000   0.000   0.000   0.000   0.000   0.000   0.000   0.000   0.000   0.000   0.000   0.000
  0.000   0.000   0.000   0.000   0.000   0.000   0.000   0.000   0.000   0.000   0.000   0.000   0.000   0.000   0.000   0.000
 total augmentation occupancy for first ion, spin component:           2
  0.000   0.000   0.000   0.000   0.000   0.000   0.000   0.000   0.000   0.000   0.000   0.000   0.000   0.000   0.000   0.000
  0.000   0.000   0.000   0.000   0.000   0.000   0.000   0.000   0.000   0.000   0.000   0.000   0.000   0.000   0.000   0.000
  0.000   0.000   0.000   0.000   0.000   0.000   0.000   0.000   0.000   0.000   0.000   0.000   0.000   0.000   0.000   0.000
  0.000   0.000   0.000   0.000   0.000   0.000   0.000   0.000   0.000   0.000   0.000   0.000   0.000   0.000   0.000   0.000
  0.000   0.000   0.000   0.000   0.000   0.000   0.000   0.000   0.000   0.000   0.000   0.000   0.000   0.000   0.000   0.000
  0.000   0.000   0.000   0.000   0.000   0.000   0.000   0.000   0.000   0.000   0.000   0.000   0.000   0.000   0.000   0.000
  0.000   0.000   0.000   0.000   0.000   0.000   0.000   0.000   0.000   0.000   0.000   0.000   0.000   0.000   0.000   0.000
  0.000   0.000   0.000   0.000   0.000   0.000   0.000   0.000   0.000   0.000   0.000   0.000   0.000   0.000   0.000   0.000
  0.000   0.000   0.000   0.000   0.000   0.000   0.000   0.000   0.000   0.000   0.000   0.000   0.000   0.000   0.000   0.000
  0.000   0.000   0.000   0.000   0.000   0.000   0.000   0.000   0.000   0.000   0.000   0.000   0.000   0.000   0.000   0.000
  0.000   0.000   0.000   0.000   0.000   0.000   0.000   0.000   0.000   0.000   0.000   0.000   0.000   0.000   0.000   0.000
  0.000   0.000   0.000   0.000   0.000   0.000   0.000   0.000   0.000   0.000   0.000   0.000   0.000   0.000   0.000   0.000
  0.000   0.000   0.000   0.000   0.000   0.000   0.000   0.000   0.000   0.000   0.000   0.000   0.000   0.000   0.000   0.000
  0.000   0.000   0.000   0.000   0.000   0.000   0.000   0.000   0.000   0.000   0.000   0.000   0.000   0.000   0.000   0.000
  0.000   0.000   0.000   0.000   0.000   0.000   0.000   0.000   0.000   0.000   0.000   0.000   0.000   0.000   0.000   0.000
  0.000   0.000   0.000   0.000   0.000   0.000   0.000   0.000   0.000   0.000   0.000   0.000   0.000   0.000   0.000   0.000
  0.000   0.000   0.000   0.000   0.000   0.000   0.000   0.000   0.000   0.000   0.000   0.000   0.000   0.000   0.000   0.000
  0.000   0.000   0.000   0.000   0.000   0.000   0.000   0.000   0.000   0.000   0.000   0.000   0.000   0.000   0.000   0.000
 total augmentation occupancy for first ion, spin component:           3
  0.000   0.000   0.000   0.000   0.000   0.000   0.000   0.000   0.000   0.000   0.000   0.000   0.000   0.000   0.000   0.000
  0.000   0.000   0.000   0.000   0.000   0.000   0.000   0.000   0.000   0.000   0.000   0.000   0.000   0.000   0.000   0.000
  0.000   0.000   0.000   0.000   0.000   0.000   0.000   0.000   0.000   0.000   0.000   0.000   0.000   0.000   0.000   0.000
  0.000   0.000   0.000   0.000   0.000   0.000   0.000   0.000   0.000   0.000   0.000   0.000   0.000   0.000   0.000   0.000
  0.000   0.000   0.000   0.000   0.000   0.000   0.000   0.000   0.000   0.000   0.000   0.000   0.000   0.000   0.000   0.000
  0.000   0.000   0.000   0.000   0.000   0.000   0.000   0.000   0.000   0.000   0.000   0.000   0.000   0.000   0.000   0.000
  0.000   0.000   0.000   0.000   0.000   0.000   0.000   0.000   0.000   0.000   0.000   0.000   0.000   0.000   0.000   0.000
  0.000   0.000   0.000   0.000   0.000   0.000   0.000   0.000   0.000   0.000   0.000   0.000   0.000   0.000   0.000   0.000
  0.000   0.000   0.000   0.000   0.000   0.000   0.000   0.000   0.000   0.000   0.000   0.000   0.000   0.000   0.000   0.000
  0.000   0.000   0.000   0.000   0.000   0.000   0.000   0.000   0.000   0.000   0.000   0.000   0.000   0.000   0.000   0.000
  0.000   0.000   0.000   0.000   0.000   0.000   0.000   0.000   0.000   0.000   0.000   0.000   0.000   0.000   0.000   0.000
  0.000   0.000   0.000   0.000   0.000   0.000   0.000   0.000   0.000   0.000   0.000   0.000   0.000   0.000   0.000   0.000
  0.000   0.000   0.000   0.000   0.000   0.000   0.000   0.000   0.000   0.000   0.000   0.000   0.000   0.000   0.000   0.000
  0.000   0.000   0.000   0.000   0.000   0.000   0.000   0.000   0.000   0.000   0.000   0.000   0.000   0.000   0.000   0.000
  0.000   0.000   0.000   0.000   0.000   0.000   0.000   0.000   0.000   0.000   0.000   0.000   0.000   0.000   0.000   0.000
  0.000   0.000   0.000   0.000   0.000   0.000   0.000   0.000   0.000   0.000   0.000   0.000   0.000   0.000   0.000   0.000
  0.000   0.000   0.000   0.000   0.000   0.000   0.000   0.000   0.000   0.000   0.000   0.000   0.000   0.000   0.000   0.000
  0.000   0.000   0.000   0.000   0.000   0.000   0.000   0.000   0.000   0.000   0.000   0.000   0.000   0.000   0.000   0.000
 total augmentation occupancy for first ion, spin component:           4
  0.385   0.000   0.000   0.000   0.000   0.000   0.000   0.000   0.000   0.000   0.000   0.000   0.000   0.000   0.000   0.000
  0.000   0.385   0.000   0.000   0.000   0.000   0.000   0.000   0.000   0.000   0.000   0.000   0.000   0.000   0.000   0.000
  0.000   0.000   0.385   0.000   0.000   0.000   0.000   0.000   0.000   0.000   0.000   0.000   0.000   0.000   0.000   0.000
  0.000   0.000   0.000   0.385   0.000   0.000   0.000   0.000   0.000   0.000   0.000   0.000   0.000   0.000   0.000   0.000
  0.000   0.000   0.000   0.000   0.385   0.000   0.000   0.000   0.000   0.000   0.000   0.000   0.000   0.000   0.000   0.000
  0.000   0.000   0.000   0.000   0.000   0.000   0.000   0.000   0.000   0.000   0.000   0.000   0.000   0.000   0.000   0.000
  0.000   0.000   0.000   0.000   0.000   0.000   0.000   0.000   0.000   0.000   0.000   0.000   0.000   0.000   0.000   0.000
  0.000   0.000   0.000   0.000   0.000   0.000   0.000   0.000   0.000   0.000   0.000   0.000   0.000   0.000   0.000   0.000
  0.000   0.000   0.000   0.000   0.000   0.000   0.000   0.000   0.000   0.000   0.000   0.000   0.000   0.000   0.000   0.000
  0.000   0.000   0.000   0.000   0.000   0.000   0.000   0.000   0.000   0.000   0.000   0.000   0.000   0.000   0.000   0.000
  0.000   0.000   0.000   0.000   0.000   0.000   0.000   0.000   0.000   0.000   0.275   0.000   0.000   0.000   0.000   0.000
  0.000   0.000   0.000   0.000   0.000   0.000   0.000   0.000   0.000   0.000   0.000   0.000   0.000   0.000   0.000   0.000
  0.000   0.000   0.000   0.000   0.000   0.000   0.000   0.000   0.000   0.000   0.000   0.000   0.000   0.000   0.000   0.000
  0.000   0.000   0.000   0.000   0.000   0.000   0.000   0.000   0.000   0.000   0.000   0.000   0.000   0.000   0.000   0.000
  0.000   0.000   0.000   0.000   0.000   0.000   0.000   0.000   0.000   0.000   0.000   0.000   0.000   0.000   0.000   0.000
  0.000   0.000   0.000   0.000   0.000   0.000   0.000   0.000   0.000   0.000   0.000   0.000   0.000   0.000   0.000   0.000
  0.000   0.000   0.000   0.000   0.000   0.000   0.000   0.000   0.000   0.000   0.000   0.000   0.000   0.000   0.000   0.000
  0.000   0.000   0.000   0.000   0.000   0.000   0.000   0.000   0.000   0.000   0.000   0.000   0.000   0.000   0.000   0.000


------------------------ aborting loop because EDIFF is reached ----------------------------------------


 


 total charge     
 
# of ion       s       p       d       tot
------------------------------------------
    1        0.487   0.534   6.248   7.270
    2        0.487   0.534   6.248   7.270
--------------------------------------------------
tot          0.975   1.068  12.497  14.540
 


 magnetization (x)
 
# of ion       s       p       d       tot
------------------------------------------
    1       -0.000   0.000  -0.000  -0.000
    2        0.000  -0.000   0.000   0.000
--------------------------------------------------
tot         -0.000  -0.000   0.000  -0.000
 


 magnetization (y)
 
# of ion       s       p       d       tot
------------------------------------------
    1        0.000   0.000   0.000   0.000
    2        0.000   0.000  -0.000   0.000
--------------------------------------------------
tot          0.000   0.000   0.000   0.000
 


 magnetization (z)
 
# of ion       s       p       d       tot
------------------------------------------
    1       -0.013  -0.047   2.281   2.222
    2       -0.013  -0.047   2.281   2.222
--------------------------------------------------
tot         -0.026  -0.093   4.562   4.443
 
    CHARGE:  cpu time    1.3508: real time    1.3528
    FORLOC:  cpu time    0.0010: real time    0.0010
    FORNL :  cpu time    1.0778: real time    1.0785
    STRESS:  cpu time    2.3496: real time    2.3503
    FORCOR:  cpu time    0.0420: real time    0.0427
    FORHAR:  cpu time    0.0030: real time    0.0041
    OFIELD:  cpu time    0.0010: real time    0.0005

  FORCE on cell =-STRESS in cart. coord.  units (eV):
  Direction    XX          YY          ZZ          XY          YZ          ZX
  --------------------------------------------------------------------------------------
  Alpha Z   121.63354   121.63354   121.63354
  Ewald    -394.67012  -394.67012  -394.67012     0.00000     0.00000     0.00000
  Hartree    63.59384    63.58413    63.59384    -0.00000     0.00000     0.00000
  E(xc)     -79.44985   -79.44800   -79.44985     0.00000    -0.00000    -0.00000
  Local     118.07597   118.10337   118.07599     0.00001    -0.00000    -0.00000
  n-local   -52.03825   -52.03441   -52.03826    -0.00001     0.00000    -0.00000
  augment    77.48935    77.48245    77.48934    -0.00000     0.00000    -0.00000
  Kinetic   145.74125   145.72818   145.74125     0.00000    -0.00000     0.00000
  Fock        0.00000     0.00000     0.00000     0.00000     0.00000     0.00000
  -------------------------------------------------------------------------------------
  Total       0.37573     0.37913     0.37572    -0.00000    -0.00000    -0.00000
  in kB      26.48562    26.72549    26.48513    -0.00008    -0.00001    -0.00024
  external pressure =       26.57 kB  Pullay stress =        0.00 kB


 VOLUME and BASIS-vectors are now :
 -----------------------------------------------------------------------------
  energy-cutoff  :      500.00
  volume of cell :       22.73
      direct lattice vectors                 reciprocal lattice vectors
     2.832633757  0.000000000  0.000000000     0.353028342 -0.000000000  0.000000000
     0.000000000  2.832633757  0.000000000     0.000000000  0.353028342  0.000000000
     0.000000000  0.000000000  2.832633757    -0.000000000 -0.000000000  0.353028342

  length of vectors
     2.832633757  2.832633757  2.832633757     0.353028342  0.353028342  0.353028342


 FORCES acting on ions
    electron-ion (+dipol)            ewald-force                    non-local-force                 convergence-correction
 -----------------------------------------------------------------------------------------------
   0.899E-05 -.520E-05 -.960E-05   -.829E-14 -.421E-15 -.160E-14   -.598E-05 0.268E-05 0.604E-05   -.576E-05 0.333E-05 0.644E-05
   -.522E-05 0.100E-04 0.134E-04   0.743E-14 0.131E-14 0.947E-15   0.101E-05 -.108E-04 -.169E-04   0.353E-05 -.698E-05 -.937E-05
 -----------------------------------------------------------------------------------------------
   0.377E-05 0.480E-05 0.378E-05   -.860E-15 0.884E-15 -.652E-15   -.497E-05 -.817E-05 -.109E-04   -.224E-05 -.365E-05 -.293E-05
 
 
 POSITION                                       TOTAL-FORCE (eV/Angst)
 -----------------------------------------------------------------------------------
      0.00000      0.00000      0.00000        -0.000001      0.000004      0.000008
      1.41632      1.41632      1.41632         0.000001     -0.000004     -0.000008
 -----------------------------------------------------------------------------------
    total drift:                               -0.000003     -0.000007     -0.000010


--------------------------------------------------------------------------------------------------------



  FREE ENERGIE OF THE ION-ELECTRON SYSTEM (eV)
  ---------------------------------------------------
  free  energy   TOTEN  =       -16.45644287 eV

  energy  without entropy=      -16.44964420  energy(sigma->0) =      -16.45417665
 


--------------------------------------------------------------------------------------------------------


    POTLOK:  cpu time    0.0670: real time    0.0775


--------------------------------------------------------------------------------------------------------


     LOOP+:  cpu time  127.5896: real time  129.8144
    4ORBIT:  cpu time    0.0000: real time    0.0000
 


 orbital moment (x)
 
 # of ion     p       d       tot
 ----------------------------------------
  1         0.000  -0.000  -0.000
  2         0.000  -0.000   0.000
 ----------------------------------------
            0.000  -0.000  -0.000
 


 orbital moment (y)
 
 # of ion     p       d       tot
 ----------------------------------------
  1         0.000   0.048   0.048
  2         0.000   0.048   0.048
 ----------------------------------------
            0.000   0.096   0.096
 


 orbital moment (z)
 
 # of ion     p       d       tot
 ----------------------------------------
  1         0.000   0.000   0.000
  2        -0.000   0.000   0.000
 ----------------------------------------
           -0.000   0.000   0.000

 Spin-Orbit-Coupling matrix elements

 Ion:    1  E_soc:     -0.0121996
 l=   1
     0.0000000    -0.0003132    -0.0003132
    -0.0003132     0.0000000    -0.0003013
    -0.0003132    -0.0003013     0.0000000
 l=   2
     0.0000000    -0.0004489     0.0000000    -0.0003655    -0.0013999
    -0.0004489     0.0000000    -0.0010528    -0.0003655    -0.0003472
     0.0000000    -0.0010528     0.0000000    -0.0008942     0.0000000
    -0.0003655    -0.0003655    -0.0008942     0.0000000    -0.0002981
    -0.0013999    -0.0003472     0.0000000    -0.0002981     0.0000000
 l=   3
     0.0000000     0.0000000     0.0000000     0.0000000     0.0000000     0.0000000     0.0000000
     0.0000000     0.0000000     0.0000000     0.0000000     0.0000000     0.0000000     0.0000000
     0.0000000     0.0000000     0.0000000     0.0000000     0.0000000     0.0000000     0.0000000
     0.0000000     0.0000000     0.0000000     0.0000000     0.0000000     0.0000000     0.0000000
     0.0000000     0.0000000     0.0000000     0.0000000     0.0000000     0.0000000     0.0000000
     0.0000000     0.0000000     0.0000000     0.0000000     0.0000000     0.0000000     0.0000000
     0.0000000     0.0000000     0.0000000     0.0000000     0.0000000     0.0000000     0.0000000

 Ion:    2  E_soc:     -0.0121996
 l=   1
     0.0000000    -0.0003132    -0.0003132
    -0.0003132     0.0000000    -0.0003013
    -0.0003132    -0.0003013     0.0000000
 l=   2
     0.0000000    -0.0004489     0.0000000    -0.0003655    -0.0013999
    -0.0004489     0.0000000    -0.0010527    -0.0003655    -0.0003472
     0.0000000    -0.0010527     0.0000000    -0.0008942     0.0000000
    -0.0003655    -0.0003655    -0.0008942     0.0000000    -0.0002981
    -0.0013999    -0.0003472     0.0000000    -0.0002981     0.0000000
 l=   3
     0.0000000     0.0000000     0.0000000     0.0000000     0.0000000     0.0000000     0.0000000
     0.0000000     0.0000000     0.0000000     0.0000000     0.0000000     0.0000000     0.0000000
     0.0000000     0.0000000     0.0000000     0.0000000     0.0000000     0.0000000     0.0000000
     0.0000000     0.0000000     0.0000000     0.0000000     0.0000000     0.0000000     0.0000000
     0.0000000     0.0000000     0.0000000     0.0000000     0.0000000     0.0000000     0.0000000
     0.0000000     0.0000000     0.0000000     0.0000000     0.0000000     0.0000000     0.0000000
     0.0000000     0.0000000     0.0000000     0.0000000     0.0000000     0.0000000     0.0000000
 


 total charge     
 
# of ion       s       p       d       tot
------------------------------------------
    1        0.487   0.534   6.248   7.270
    2        0.487   0.534   6.248   7.270
--------------------------------------------------
tot          0.975   1.068  12.497  14.540
 


 magnetization (x)
 
# of ion       s       p       d       tot
------------------------------------------
    1       -0.000   0.000  -0.000  -0.000
    2        0.000  -0.000   0.000   0.000
--------------------------------------------------
tot         -0.000  -0.000   0.000  -0.000
 


 magnetization (y)
 
# of ion       s       p       d       tot
------------------------------------------
    1        0.000   0.000   0.000   0.000
    2        0.000   0.000  -0.000   0.000
--------------------------------------------------
tot          0.000   0.000   0.000   0.000
 


 magnetization (z)
 
# of ion       s       p       d       tot
------------------------------------------
    1       -0.013  -0.047   2.281   2.222
    2       -0.013  -0.047   2.281   2.222
--------------------------------------------------
tot         -0.026  -0.093   4.562   4.443
 

 total amount of memory used by VASP MPI-rank0    67202. kBytes
=======================================================================

   base      :      30000. kBytes
   nonl-proj :      11506. kBytes
   fftplans  :        576. kBytes
   grid      :       1990. kBytes
   one-center:         62. kBytes
   wavefun   :      23068. kBytes
 
  
  
 General timing and accounting informations for this job:
 ========================================================
  
                  Total CPU time used (sec):      154.482
                            User time (sec):      142.218
                          System time (sec):       12.263
                         Elapsed time (sec):      198.856
  
                   Maximum memory used (kb):       90268.
                   Average memory used (kb):           0.
  
                          Minor page faults:        10744
                          Major page faults:            1
                 Voluntary context switches:      1223049
