 running on   16 total cores
 distrk:  each k-point on   16 cores,    1 groups
 distr:  one band on    4 cores,    4 groups
 using from now: INCAR     
 vasp.5.4.4.18Apr17-6-g9f103f2a35 (build Jan 04 2020 13:53:51) complex          
  
 POSCAR found type information on POSCAR  Fe
 POSCAR found :  1 types and       2 ions
 scaLAPACK will be used
 LDA part: xc-table for Pade appr. of Perdew
 WARNING: stress and forces are not correct
 POSCAR, INCAR and KPOINTS ok, starting setup
 FFT: planning ...
 WAVECAR not read
 charge-density read from file: unknown                                 
 magnetization density read from file 1
 entering main loop
       N       E                     dE             d eps       ncg     rms          rms(c)
DAV:   1     0.105962992735E+03    0.10596E+03   -0.66111E+03 34336   0.129E+03
DAV:   2    -0.958571269190E+01   -0.11555E+03   -0.10522E+03 32944   0.264E+02
DAV:   3    -0.163633587183E+02   -0.67776E+01   -0.61384E+01 37328   0.864E+01
DAV:   4    -0.164554414907E+02   -0.92083E-01   -0.91922E-01 36224   0.111E+01
DAV:   5    -0.164564170435E+02   -0.97555E-03   -0.97553E-03 37816   0.871E-01
DAV:   6    -0.164564421879E+02   -0.25144E-04   -0.25144E-04 36592   0.139E-01
DAV:   7    -0.164564428695E+02   -0.68160E-06   -0.68135E-06 28480   0.220E-02
   1 F= -.16456443E+02 E0= -.16454177E+02  d E =-.679867E-02  mag=     0.0000     0.0000     4.4211
