unknown system                          
   1.00000000000000     
     2.800264   -0.000000    0.000000
     0.000000    2.800264    0.000000
     0.000000   -0.000000    2.800264
   Fe
     2
Direct
  0.000000  0.000000  0.000000
  0.500000  0.500000  0.500000
 
   40   40   40
  199.02      194.98      183.33      165.37      142.99      118.41      93.777      70.945      51.259      35.486    
  23.824      15.980      11.285      8.8365      7.6360      6.8508      6.2685      5.8828      5.6456      5.5230    
  5.4840      5.5230      5.6456      5.8828      6.2685      6.8508      7.6360      8.8365      11.285      15.980    
  23.824      35.486      51.259      70.945      93.777      118.41      142.99      165.37      183.33      194.98    
  194.98      191.04      179.65      162.09      140.21      116.14      92.012      69.629      50.323      34.855    
  23.428      15.756      11.176      8.7945      7.6193      6.8395      6.2624      5.8799      5.6451      5.5234    
  5.4848      5.5234      5.6451      5.8799      6.2624      6.8395      7.6193      8.7945      11.176      15.756    
  23.428      34.855      50.323      69.629      92.012      116.14      140.21      162.09      179.65      191.04    
  183.33      179.65      169.04      152.63      132.14      109.57      86.883      65.799      47.595      33.020    
  22.279      15.109      10.865      8.6757      7.5698      6.8057      6.2445      5.8716      5.6438      5.5245    
  5.4875      5.5245      5.6438      5.8716      6.2445      6.8057      7.5698      8.6757      10.865      15.109    
  22.279      33.020      47.595      65.799      86.883      109.57      132.14      152.63      169.04      179.65    
  165.37      162.09      152.63      137.98      119.62      99.329      78.864      59.799      43.322      30.152    
  20.499      14.121      10.399      8.4995      7.4882      6.7501      6.2156      5.8586      5.6421      5.5268    
  5.4922      5.5268      5.6421      5.8586      6.2156      6.7501      7.4882      8.4995      10.399      14.121    
  20.499      30.152      43.322      59.799      78.864      99.329      119.62      137.98      152.63      162.09    
  142.99      140.21      132.14      119.62      103.88      86.399      68.703      52.179      37.900      26.534    
  18.282      12.916      9.8491      8.2887      7.3747      6.6750      6.1771      5.8423      5.6403      5.5308    
  5.4988      5.5308      5.6403      5.8423      6.1771      6.6750      7.3747      8.2887      9.8491      12.916    
  18.282      26.534      37.900      52.179      68.703      86.399      103.88      119.62      132.14      140.21    
  118.41      116.14      109.57      99.329      86.399      71.978      57.334      43.647      31.854      22.541    
  15.883      11.651      9.2932      8.0589      7.2289      6.5849      6.1301      5.8245      5.6382      5.5371    
  5.5068      5.5371      5.6382      5.8245      6.1301      6.5849      7.2289      8.0589      9.2932      11.651    
  15.883      22.541      31.854      43.647      57.334      71.978      86.399      99.329      109.57      116.14    
  93.777      92.012      86.883      78.864      68.703      57.334      45.776      34.994      25.771      18.591    
  13.576      10.481      8.7903      7.8094      7.0560      6.4841      6.0771      5.8058      5.6359      5.5449    
  5.5155      5.5449      5.6359      5.8058      6.0771      6.4841      7.0560      7.8094      8.7903      10.481    
  13.576      18.591      25.771      34.994      45.776      57.334      68.703      78.864      86.883      92.012    
  70.945      69.629      65.799      59.799      52.179      43.647      34.994      26.980      20.222      15.077    
  11.597      9.5203      8.3517      7.5318      6.8692      6.3755      6.0220      5.7853      5.6340      5.5523    
  5.5251      5.5523      5.6340      5.7853      6.0220      6.3755      6.8692      7.5318      8.3517      9.5203    
  11.597      15.077      20.222      26.980      34.994      43.647      52.179      59.799      65.799      69.629    
  51.259      50.323      47.595      43.322      37.900      31.854      25.771      20.222      15.647      12.282    
  10.089      8.7932      7.9388      7.2350      6.6802      6.2637      5.9674      5.7627      5.6318      5.5574    
  5.5343      5.5574      5.6318      5.7627      5.9674      6.2637      6.6802      7.2350      7.9388      8.7932    
  10.089      12.282      15.647      20.222      25.771      31.854      37.900      43.322      47.595      50.323    
  35.486      34.855      33.020      30.152      26.534      22.541      18.591      15.077      12.282      10.306    
  9.0491      8.2143      7.5218      6.9454      6.4946      6.1568      5.9117      5.7401      5.6262      5.5612    
  5.5398      5.5612      5.6262      5.7401      5.9117      6.1568      6.4946      6.9454      7.5218      8.2143    
  9.0491      10.306      12.282      15.077      18.591      22.541      26.534      30.152      33.020      34.855    
  23.824      23.428      22.279      20.499      18.282      15.883      13.576      11.597      10.089      9.0491    
  8.3123      7.6791      7.1264      6.6757      6.3227      6.0559      5.8580      5.7154      5.6179      5.5608    
  5.5418      5.5608      5.6179      5.7154      5.8580      6.0559      6.3227      6.6757      7.1264      7.6791    
  8.3123      9.0491      10.089      11.597      13.576      15.883      18.282      20.499      22.279      23.428    
  15.980      15.756      15.109      14.121      12.916      11.651      10.481      9.5203      8.7932      8.2143    
  7.6791      7.1908      6.7752      6.4359      6.1693      5.9630      5.8058      5.6882      5.6058      5.5563    
  5.5398      5.5563      5.6058      5.6882      5.8058      5.9630      6.1693      6.4359      6.7752      7.1908    
  7.6791      8.2143      8.7932      9.5203      10.481      11.651      12.916      14.121      15.109      15.756    
  11.285      11.176      10.865      10.399      9.8491      9.2932      8.7903      8.3517      7.9388      7.5218    
  7.1264      6.7752      6.4761      6.2316      6.0349      5.8785      5.7551      5.6600      5.5910      5.5487    
  5.5343      5.5487      5.5910      5.6600      5.7551      5.8785      6.0349      6.2316      6.4761      6.7752    
  7.1264      7.5218      7.9388      8.3517      8.7903      9.2932      9.8491      10.399      10.865      11.176    
  8.8365      8.7945      8.6757      8.4995      8.2887      8.0589      7.8094      7.5318      7.2350      6.9454    
  6.6757      6.4359      6.2316      6.0603      5.9189      5.8025      5.7068      5.6298      5.5727      5.5372    
  5.5251      5.5372      5.5727      5.6298      5.7068      5.8025      5.9189      6.0603      6.2316      6.4359    
  6.6757      6.9454      7.2350      7.5318      7.8094      8.0589      8.2887      8.4995      8.6757      8.7945    
  7.6360      7.6193      7.5698      7.4882      7.3747      7.2289      7.0560      6.8692      6.6802      6.4946    
  6.3227      6.1693      6.0349      5.9189      5.8195      5.7334      5.6595      5.5990      5.5535      5.5252    
  5.5155      5.5252      5.5535      5.5990      5.6595      5.7334      5.8195      5.9189      6.0349      6.1693    
  6.3227      6.4946      6.6802      6.8692      7.0560      7.2289      7.3747      7.4882      7.5698      7.6193    
  6.8508      6.8395      6.8057      6.7501      6.6750      6.5849      6.4841      6.3755      6.2637      6.1568    
  6.0559      5.9630      5.8785      5.8025      5.7334      5.6705      5.6158      5.5703      5.5359      5.5141    
  5.5068      5.5141      5.5359      5.5703      5.6158      5.6705      5.7334      5.8025      5.8785      5.9630    
  6.0559      6.1568      6.2637      6.3755      6.4841      6.5849      6.6750      6.7501      6.8057      6.8395    
  6.2685      6.2624      6.2445      6.2156      6.1771      6.1301      6.0771      6.0220      5.9674      5.9117    
  5.8580      5.8058      5.7551      5.7068      5.6595      5.6158      5.5771      5.5447      5.5198      5.5042    
  5.4988      5.5042      5.5198      5.5447      5.5771      5.6158      5.6595      5.7068      5.7551      5.8058    
  5.8580      5.9117      5.9674      6.0220      6.0771      6.1301      6.1771      6.2156      6.2445      6.2624    
  5.8828      5.8799      5.8716      5.8586      5.8423      5.8245      5.8058      5.7853      5.7627      5.7401    
  5.7154      5.6882      5.6600      5.6298      5.5990      5.5703      5.5447      5.5230      5.5062      5.4957    
  5.4922      5.4957      5.5062      5.5230      5.5447      5.5703      5.5990      5.6298      5.6600      5.6882    
  5.7154      5.7401      5.7627      5.7853      5.8058      5.8245      5.8423      5.8586      5.8716      5.8799    
  5.6456      5.6451      5.6438      5.6421      5.6403      5.6382      5.6359      5.6340      5.6318      5.6262    
  5.6179      5.6058      5.5910      5.5727      5.5535      5.5359      5.5198      5.5062      5.4959      5.4896    
  5.4875      5.4896      5.4959      5.5062      5.5198      5.5359      5.5535      5.5727      5.5910      5.6058    
  5.6179      5.6262      5.6318      5.6340      5.6359      5.6382      5.6403      5.6421      5.6438      5.6451    
  5.5230      5.5234      5.5245      5.5268      5.5308      5.5371      5.5449      5.5523      5.5574      5.5612    
  5.5608      5.5563      5.5487      5.5372      5.5252      5.5141      5.5042      5.4957      5.4896      5.4860    
  5.4848      5.4860      5.4896      5.4957      5.5042      5.5141      5.5252      5.5372      5.5487      5.5563    
  5.5608      5.5612      5.5574      5.5523      5.5449      5.5371      5.5308      5.5268      5.5245      5.5234    
  5.4840      5.4848      5.4875      5.4922      5.4988      5.5068      5.5155      5.5251      5.5343      5.5398    
  5.5418      5.5398      5.5343      5.5251      5.5155      5.5068      5.4988      5.4922      5.4875      5.4848    
  5.4840      5.4848      5.4875      5.4922      5.4988      5.5068      5.5155      5.5251      5.5343      5.5398    
  5.5418      5.5398      5.5343      5.5251      5.5155      5.5068      5.4988      5.4922      5.4875      5.4848    
  5.5230      5.5234      5.5245      5.5268      5.5308      5.5371      5.5449      5.5523      5.5574      5.5612    
  5.5608      5.5563      5.5487      5.5372      5.5252      5.5141      5.5042      5.4957      5.4896      5.4860    
  5.4848      5.4860      5.4896      5.4957      5.5042      5.5141      5.5252      5.5372      5.5487      5.5563    
  5.5608      5.5612      5.5574      5.5523      5.5449      5.5371      5.5308      5.5268      5.5245      5.5234    
  5.6456      5.6451      5.6438      5.6421      5.6403      5.6382      5.6359      5.6340      5.6318      5.6262    
  5.6179      5.6058      5.5910      5.5727      5.5535      5.5359      5.5198      5.5062      5.4959      5.4896    
  5.4875      5.4896      5.4959      5.5062      5.5198      5.5359      5.5535      5.5727      5.5910      5.6058    
  5.6179      5.6262      5.6318      5.6340      5.6359      5.6382      5.6403      5.6421      5.6438      5.6451    
  5.8828      5.8799      5.8716      5.8586      5.8423      5.8245      5.8058      5.7853      5.7627      5.7401    
  5.7154      5.6882      5.6600      5.6298      5.5990      5.5703      5.5447      5.5230      5.5062      5.4957    
  5.4922      5.4957      5.5062      5.5230      5.5447      5.5703      5.5990      5.6298      5.6600      5.6882    
  5.7154      5.7401      5.7627      5.7853      5.8058      5.8245      5.8423      5.8586      5.8716      5.8799    
  6.2685      6.2624      6.2445      6.2156      6.1771      6.1301      6.0771      6.0220      5.9674      5.9117    
  5.8580      5.8058      5.7551      5.7068      5.6595      5.6158      5.5771      5.5447      5.5198      5.5042    
  5.4988      5.5042      5.5198      5.5447      5.5771      5.6158      5.6595      5.7068      5.7551      5.8058    
  5.8580      5.9117      5.9674      6.0220      6.0771      6.1301      6.1771      6.2156      6.2445      6.2624    
  6.8508      6.8395      6.8057      6.7501      6.6750      6.5849      6.4841      6.3755      6.2637      6.1568    
  6.0559      5.9630      5.8785      5.8025      5.7334      5.6705      5.6158      5.5703      5.5359      5.5141    
  5.5068      5.5141      5.5359      5.5703      5.6158      5.6705      5.7334      5.8025      5.8785      5.9630    
  6.0559      6.1568      6.2637      6.3755      6.4841      6.5849      6.6750      6.7501      6.8057      6.8395    
  7.6360      7.6193      7.5698      7.4882      7.3747      7.2289      7.0560      6.8692      6.6802      6.4946    
  6.3227      6.1693      6.0349      5.9189      5.8195      5.7334      5.6595      5.5990      5.5535      5.5252    
  5.5155      5.5252      5.5535      5.5990      5.6595      5.7334      5.8195      5.9189      6.0349      6.1693    
  6.3227      6.4946      6.6802      6.8692      7.0560      7.2289      7.3747      7.4882      7.5698      7.6193    
  8.8365      8.7945      8.6757      8.4995      8.2887      8.0589      7.8094      7.5318      7.2350      6.9454    
  6.6757      6.4359      6.2316      6.0603      5.9189      5.8025      5.7068      5.6298      5.5727      5.5372    
  5.5251      5.5372      5.5727      5.6298      5.7068      5.8025      5.9189      6.0603      6.2316      6.4359    
  6.6757      6.9454      7.2350      7.5318      7.8094      8.0589      8.2887      8.4995      8.6757      8.7945    
  11.285      11.176      10.865      10.399      9.8491      9.2932      8.7903      8.3517      7.9388      7.5218    
  7.1264      6.7752      6.4761      6.2316      6.0349      5.8785      5.7551      5.6600      5.5910      5.5487    
  5.5343      5.5487      5.5910      5.6600      5.7551      5.8785      6.0349      6.2316      6.4761      6.7752    
  7.1264      7.5218      7.9388      8.3517      8.7903      9.2932      9.8491      10.399      10.865      11.176    
  15.980      15.756      15.109      14.121      12.916      11.651      10.481      9.5203      8.7932      8.2143    
  7.6791      7.1908      6.7752      6.4359      6.1693      5.9630      5.8058      5.6882      5.6058      5.5563    
  5.5398      5.5563      5.6058      5.6882      5.8058      5.9630      6.1693      6.4359      6.7752      7.1908    
  7.6791      8.2143      8.7932      9.5203      10.481      11.651      12.916      14.121      15.109      15.756    
  23.824      23.428      22.279      20.499      18.282      15.883      13.576      11.597      10.089      9.0491    
  8.3123      7.6791      7.1264      6.6757      6.3227      6.0559      5.8580      5.7154      5.6179      5.5608    
  5.5418      5.5608      5.6179      5.7154      5.8580      6.0559      6.3227      6.6757      7.1264      7.6791    
  8.3123      9.0491      10.089      11.597      13.576      15.883      18.282      20.499      22.279      23.428    
  35.486      34.855      33.020      30.152      26.534      22.541      18.591      15.077      12.282      10.306    
  9.0491      8.2143      7.5218      6.9454      6.4946      6.1568      5.9117      5.7401      5.6262      5.5612    
  5.5398      5.5612      5.6262      5.7401      5.9117      6.1568      6.4946      6.9454      7.5218      8.2143    
  9.0491      10.306      12.282      15.077      18.591      22.541      26.534      30.152      33.020      34.855    
  51.259      50.323      47.595      43.322      37.900      31.854      25.771      20.222      15.647      12.282    
  10.089      8.7932      7.9388      7.2350      6.6802      6.2637      5.9674      5.7627      5.6318      5.5574    
  5.5343      5.5574      5.6318      5.7627      5.9674      6.2637      6.6802      7.2350      7.9388      8.7932    
  10.089      12.282      15.647      20.222      25.771      31.854      37.900      43.322      47.595      50.323    
  70.945      69.629      65.799      59.799      52.179      43.647      34.994      26.980      20.222      15.077    
  11.597      9.5203      8.3517      7.5318      6.8692      6.3755      6.0220      5.7853      5.6340      5.5523    
  5.5251      5.5523      5.6340      5.7853      6.0220      6.3755      6.8692      7.5318      8.3517      9.5203    
  11.597      15.077      20.222      26.980      34.994      43.647      52.179      59.799      65.799      69.629    
  93.777      92.012      86.883      78.864      68.703      57.334      45.776      34.994      25.771      18.591    
  13.576      10.481      8.7903      7.8094      7.0560      6.4841      6.0771      5.8058      5.6359      5.5449    
  5.5155      5.5449      5.6359      5.8058      6.0771      6.4841      7.0560      7.8094      8.7903      10.481    
  13.576      18.591      25.771      34.994      45.776      57.334      68.703      78.864      86.883      92.012    
  118.41      116.14      109.57      99.329      86.399      71.978      57.334      43.647      31.854      22.541    
  15.883      11.651      9.2932      8.0589      7.2289      6.5849      6.1301      5.8245      5.6382      5.5371    
  5.5068      5.5371      5.6382      5.8245      6.1301      6.5849      7.2289      8.0589      9.2932      11.651    
  15.883      22.541      31.854      43.647      57.334      71.978      86.399      99.329      109.57      116.14    
  142.99      140.21      132.14      119.62      103.88      86.399      68.703      52.179      37.900      26.534    
  18.282      12.916      9.8491      8.2887      7.3747      6.6750      6.1771      5.8423      5.6403      5.5308    
  5.4988      5.5308      5.6403      5.8423      6.1771      6.6750      7.3747      8.2887      9.8491      12.916    
  18.282      26.534      37.900      52.179      68.703      86.399      103.88      119.62      132.14      140.21    
  165.37      162.09      152.63      137.98      119.62      99.329      78.864      59.799      43.322      30.152    
  20.499      14.121      10.399      8.4995      7.4882      6.7501      6.2156      5.8586      5.6421      5.5268    
  5.4922      5.5268      5.6421      5.8586      6.2156      6.7501      7.4882      8.4995      10.399      14.121    
  20.499      30.152      43.322      59.799      78.864      99.329      119.62      137.98      152.63      162.09    
  183.33      179.65      169.04      152.63      132.14      109.57      86.883      65.799      47.595      33.020    
  22.279      15.109      10.865      8.6757      7.5698      6.8057      6.2445      5.8716      5.6438      5.5245    
  5.4875      5.5245      5.6438      5.8716      6.2445      6.8057      7.5698      8.6757      10.865      15.109    
  22.279      33.020      47.595      65.799      86.883      109.57      132.14      152.63      169.04      179.65    
  194.98      191.04      179.65      162.09      140.21      116.14      92.012      69.629      50.323      34.855    
  23.428      15.756      11.176      8.7945      7.6193      6.8395      6.2624      5.8799      5.6451      5.5234    
  5.4848      5.5234      5.6451      5.8799      6.2624      6.8395      7.6193      8.7945      11.176      15.756    
  23.428      34.855      50.323      69.629      92.012      116.14      140.21      162.09      179.65      191.04    
  194.98      191.04      179.65      162.09      140.21      116.14      92.012      69.629      50.323      34.855    
  23.428      15.756      11.176      8.7945      7.6193      6.8395      6.2624      5.8799      5.6451      5.5234    
  5.4848      5.5234      5.6451      5.8799      6.2624      6.8395      7.6193      8.7945      11.176      15.756    
  23.428      34.855      50.323      69.629      92.012      116.14      140.21      162.09      179.65      191.04    
  191.04      187.19      176.06      158.89      137.48      113.92      90.280      68.337      49.403      34.235    
  23.039      15.536      11.070      8.7541      7.6031      6.8285      6.2567      5.8774      5.6449      5.5240    
  5.4860      5.5240      5.6449      5.8774      6.2567      6.8285      7.6031      8.7541      11.070      15.536    
  23.039      34.235      49.403      68.337      90.280      113.92      137.48      158.89      176.06      187.19    
  179.65      176.06      165.68      149.64      129.59      107.48      85.248      64.576      46.724      32.433    
  21.914      14.905      10.768      8.6398      7.5548      6.7957      6.2398      5.8701      5.6446      5.5261    
  5.4896      5.5261      5.6446      5.8701      6.2398      6.7957      7.5548      8.6398      10.768      14.905    
  21.914      32.433      46.724      64.576      85.248      107.48      129.59      149.64      165.68      176.06    
  162.09      158.89      149.64      135.30      117.33      97.442      77.380      58.685      42.527      29.618    
  20.170      13.941      10.317      8.4701      7.4749      6.7419      6.2127      5.8588      5.6445      5.5299    
  5.4957      5.5299      5.6445      5.8588      6.2127      6.7419      7.4749      8.4701      10.317      13.941    
  20.170      29.618      42.527      58.685      77.380      97.442      117.33      135.30      149.64      158.89    
  140.21      137.48      129.59      117.33      101.90      84.763      67.411      51.205      37.206      26.072    
  18.002      12.768      9.7856      8.2666      7.3635      6.6693      6.1764      5.8447      5.6446      5.5359    
  5.5042      5.5359      5.6446      5.8447      6.1764      6.6693      7.3635      8.2666      9.7856      12.768    
  18.002      26.072      37.206      51.205      67.411      84.763      101.90      117.33      129.59      137.48    
  116.14      113.92      107.48      97.442      84.763      70.619      56.256      42.834      31.277      22.163    
  15.660      11.539      9.2491      8.0432      7.2202      6.5824      6.1319      5.8294      5.6446      5.5444    
  5.5141      5.5444      5.6446      5.8294      6.1319      6.5824      7.2202      8.0432      9.2491      11.539    
  15.660      22.163      31.277      42.834      56.256      70.619      84.763      97.442      107.48      113.92    
  92.012      90.280      85.248      77.380      67.411      56.256      44.919      34.349      25.320      18.303    
  13.414      10.406      8.7635      7.7983      7.0510      6.4851      6.0818      5.8134      5.6447      5.5546    
  5.5252      5.5546      5.6447      5.8134      6.0818      6.4851      7.0510      7.7983      8.7635      10.406    
  13.414      18.303      25.320      34.349      44.919      56.256      67.411      77.380      85.248      90.280    
  69.629      68.337      64.576      58.685      51.205      42.834      34.349      26.502      19.895      14.877    
  11.493      9.4774      8.3367      7.5246      6.8686      6.3799      6.0301      5.7954      5.6454      5.5641    
  5.5372      5.5641      5.6454      5.7954      6.0301      6.3799      6.8686      7.5246      8.3367      9.4774    
  11.493      14.877      19.895      26.502      34.349      42.834      51.205      58.685      64.576      68.337    
  50.323      49.403      46.724      42.527      37.206      31.277      25.320      19.895      15.432      12.160    
  10.031      8.7728      7.9302      7.2328      6.6841      6.2718      5.9785      5.7755      5.6456      5.5716    
  5.5487      5.5716      5.6456      5.7755      5.9785      6.2718      6.6841      7.2328      7.9302      8.7728    
  10.031      12.160      15.432      19.895      25.320      31.277      37.206      42.527      46.724      49.403    
  34.855      34.235      32.433      29.618      26.072      22.163      18.303      14.877      12.160      10.243    
  9.0244      8.2045      7.5184      6.9485      6.5026      6.1685      5.9258      5.7556      5.6424      5.5776    
  5.5563      5.5776      5.6424      5.7556      5.9258      6.1685      6.5026      6.9485      7.5184      8.2045    
  9.0244      10.243      12.160      14.877      18.303      22.163      26.072      29.618      32.433      34.235    
  23.428      23.039      21.914      20.170      18.002      15.660      13.414      11.493      10.031      9.0244    
  8.3019      7.6752      7.1290      6.6836      6.3349      6.0708      5.8747      5.7331      5.6364      5.5797    
  5.5608      5.5797      5.6364      5.7331      5.8747      6.0708      6.3349      6.6836      7.1290      7.6752    
  8.3019      9.0244      10.031      11.493      13.414      15.660      18.002      20.170      21.914      23.039    
  15.756      15.536      14.905      13.941      12.768      11.539      10.406      9.4774      8.7728      8.2045    
  7.6752      7.1931      6.7829      6.4483      6.1847      5.9807      5.8253      5.7089      5.6270      5.5776    
  5.5612      5.5776      5.6270      5.7089      5.8253      5.9807      6.1847      6.4483      6.7829      7.1931    
  7.6752      8.2045      8.7728      9.4774      10.406      11.539      12.768      13.941      14.905      15.536    
  11.176      11.070      10.768      10.317      9.7856      9.2491      8.7635      8.3367      7.9302      7.5184    
  7.1290      6.7829      6.4885      6.2472      6.0533      5.8993      5.7769      5.6822      5.6135      5.5716    
  5.5574      5.5716      5.6135      5.6822      5.7769      5.8993      6.0533      6.2472      6.4885      6.7829    
  7.1290      7.5184      7.9302      8.3367      8.7635      9.2491      9.7856      10.317      10.768      11.070    
  8.7945      8.7541      8.6398      8.4701      8.2666      8.0432      7.7983      7.5246      7.2328      6.9485    
  6.6836      6.4483      6.2472      6.0791      5.9402      5.8247      5.7300      5.6546      5.5988      5.5641    
  5.5523      5.5641      5.5988      5.6546      5.7300      5.8247      5.9402      6.0791      6.2472      6.4483    
  6.6836      6.9485      7.2328      7.5246      7.7983      8.0432      8.2666      8.4701      8.6398      8.7541    
  7.6193      7.6031      7.5548      7.4749      7.3635      7.2202      7.0510      6.8686      6.6841      6.5026    
  6.3349      6.1847      6.0533      5.9402      5.8418      5.7576      5.6861      5.6274      5.5826      5.5546    
  5.5449      5.5546      5.5826      5.6274      5.6861      5.7576      5.8418      5.9402      6.0533      6.1847    
  6.3349      6.5026      6.6841      6.8686      7.0510      7.2202      7.3635      7.4749      7.5548      7.6031    
  6.8395      6.8285      6.7957      6.7419      6.6693      6.5824      6.4851      6.3799      6.2718      6.1685    
  6.0708      5.9807      5.8993      5.8247      5.7576      5.6978      5.6448      5.6001      5.5659      5.5444    
  5.5371      5.5444      5.5659      5.6001      5.6448      5.6978      5.7576      5.8247      5.8993      5.9807    
  6.0708      6.1685      6.2718      6.3799      6.4851      6.5824      6.6693      6.7419      6.7957      6.8285    
  6.2624      6.2567      6.2398      6.2127      6.1764      6.1319      6.0818      6.0301      5.9785      5.9258    
  5.8747      5.8253      5.7769      5.7300      5.6861      5.6448      5.6071      5.5751      5.5509      5.5359    
  5.5308      5.5359      5.5509      5.5751      5.6071      5.6448      5.6861      5.7300      5.7769      5.8253    
  5.8747      5.9258      5.9785      6.0301      6.0818      6.1319      6.1764      6.2127      6.2398      6.2567    
  5.8799      5.8774      5.8701      5.8588      5.8447      5.8294      5.8134      5.7954      5.7755      5.7556    
  5.7331      5.7089      5.6822      5.6546      5.6274      5.6001      5.5751      5.5544      5.5393      5.5299    
  5.5268      5.5299      5.5393      5.5544      5.5751      5.6001      5.6274      5.6546      5.6822      5.7089    
  5.7331      5.7556      5.7755      5.7954      5.8134      5.8294      5.8447      5.8588      5.8701      5.8774    
  5.6451      5.6449      5.6446      5.6445      5.6446      5.6446      5.6447      5.6454      5.6456      5.6424    
  5.6364      5.6270      5.6135      5.5988      5.5826      5.5659      5.5509      5.5393      5.5310      5.5261    
  5.5245      5.5261      5.5310      5.5393      5.5509      5.5659      5.5826      5.5988      5.6135      5.6270    
  5.6364      5.6424      5.6456      5.6454      5.6447      5.6446      5.6446      5.6445      5.6446      5.6449    
  5.5234      5.5240      5.5261      5.5299      5.5359      5.5444      5.5546      5.5641      5.5716      5.5776    
  5.5797      5.5776      5.5716      5.5641      5.5546      5.5444      5.5359      5.5299      5.5261      5.5240    
  5.5234      5.5240      5.5261      5.5299      5.5359      5.5444      5.5546      5.5641      5.5716      5.5776    
  5.5797      5.5776      5.5716      5.5641      5.5546      5.5444      5.5359      5.5299      5.5261      5.5240    
  5.4848      5.4860      5.4896      5.4957      5.5042      5.5141      5.5252      5.5372      5.5487      5.5563    
  5.5608      5.5612      5.5574      5.5523      5.5449      5.5371      5.5308      5.5268      5.5245      5.5234    
  5.5230      5.5234      5.5245      5.5268      5.5308      5.5371      5.5449      5.5523      5.5574      5.5612    
  5.5608      5.5563      5.5487      5.5372      5.5252      5.5141      5.5042      5.4957      5.4896      5.4860    
  5.5234      5.5240      5.5261      5.5299      5.5359      5.5444      5.5546      5.5641      5.5716      5.5776    