unknown system                          
   1.00000000000000     
     2.830013   -0.000000    0.000000
     0.000000    2.830013    0.000000
     0.000000   -0.000000    2.830013
   Fe
     2
Direct
  0.000000  0.000000 -0.000000
  0.500000  0.500000  0.500000
 
   40   40   40
 0.19196937691E+03 0.18816535455E+03 0.17717809887E+03 0.16020476578E+03 0.13901196004E+03
 0.11564566558E+03 0.92130178492E+02 0.70206477429E+02 0.51163719663E+02 0.35761766997E+02
 0.24234332543E+02 0.16353411880E+02 0.11536868791E+02 0.89637341109E+01 0.77129538281E+01
 0.69432580768E+01 0.63667477540E+01 0.59818716886E+01 0.57423756369E+01 0.56189767927E+01
 0.55788405917E+01 0.56189767927E+01 0.57423756369E+01 0.59818716886E+01 0.63667477540E+01
 0.69432580768E+01 0.77129538281E+01 0.89637341109E+01 0.11536868791E+02 0.16353411880E+02
 0.24234332543E+02 0.35761766997E+02 0.51163719663E+02 0.70206477429E+02 0.92130178492E+02
 0.11564566558E+03 0.13901196004E+03 0.16020476578E+03 0.17717809887E+03 0.18816535455E+03
 0.18816535455E+03 0.18444723680E+03 0.17370581177E+03 0.15710511524E+03 0.13636514127E+03
 0.11348138296E+03 0.90433921558E+02 0.68932623845E+02 0.50250336608E+02 0.35139674568E+02
 0.23838246504E+02 0.16124710272E+02 0.11422334052E+02 0.89182259705E+01 0.76962188263E+01
 0.69326603982E+01 0.63608045891E+01 0.59793196454E+01 0.57420563787E+01 0.56196746256E+01
 0.55799284371E+01 0.56196746256E+01 0.57420563787E+01 0.59793196454E+01 0.63608045891E+01
 0.69326603982E+01 0.76962188263E+01 0.89182259705E+01 0.11422334052E+02 0.16124710272E+02
 0.23838246504E+02 0.35139674568E+02 0.50250336608E+02 0.68932623845E+02 0.90433921558E+02
 0.11348138296E+03 0.13636514127E+03 0.15710511524E+03 0.17370581177E+03 0.18444723680E+03
 0.17717809887E+03 0.17370581177E+03 0.16366727842E+03 0.14813363691E+03 0.12869203757E+03
 0.10719671329E+03 0.85501238044E+02 0.65224719272E+02 0.47587522834E+02 0.33328932238E+02
 0.22689257815E+02 0.15464690623E+02 0.11095539379E+02 0.87894123682E+01 0.76474164056E+01
 0.69006816478E+01 0.63435561271E+01 0.59716769222E+01 0.57413272949E+01 0.56215785397E+01
 0.55833049286E+01 0.56215785397E+01 0.57413272949E+01 0.59716769222E+01 0.63435561271E+01
 0.69006816478E+01 0.76474164056E+01 0.87894123682E+01 0.11095539379E+02 0.15464690623E+02
 0.22689257815E+02 0.33328932238E+02 0.47587522834E+02 0.65224719272E+02 0.85501238044E+02
 0.10719671329E+03 0.12869203757E+03 0.14813363691E+03 0.16366727842E+03 0.17370581177E+03
 0.16020476578E+03 0.15710511524E+03 0.14813363691E+03 0.13422296421E+03 0.11676294303E+03
 0.97395501749E+02 0.77784017837E+02 0.59409608048E+02 0.43411478278E+02 0.30495447134E+02
 0.20903369598E+02 0.14452279580E+02 0.10603716796E+02 0.85990310838E+01 0.75684016993E+01
 0.68476817986E+01 0.63157006793E+01 0.59596542099E+01 0.57405799544E+01 0.56251136622E+01
 0.55891723463E+01 0.56251136622E+01 0.57405799544E+01 0.59596542099E+01 0.63157006793E+01
 0.68476817986E+01 0.75684016993E+01 0.85990310838E+01 0.10603716796E+02 0.14452279580E+02
 0.20903369598E+02 0.30495447134E+02 0.43411478278E+02 0.59409608048E+02 0.77784017837E+02
 0.97395501749E+02 0.11676294303E+03 0.13422296421E+03 0.14813363691E+03 0.15710511524E+03
 0.13901196004E+03 0.13636514127E+03 0.12869203757E+03 0.11676294303E+03 0.10173471590E+03
 0.84998309235E+02 0.67988000829E+02 0.52012836008E+02 0.38101502478E+02 0.26911629140E+02
 0.18671190681E+02 0.13211685988E+02 0.10019256004E+02 0.83744994302E+01 0.74601649470E+01
 0.67749200948E+01 0.62787400226E+01 0.59440540181E+01 0.57401589970E+01 0.56302420149E+01
 0.55974740770E+01 0.56302420149E+01 0.57401589970E+01 0.59440540181E+01 0.62787400226E+01
 0.67749200948E+01 0.74601649470E+01 0.83744994302E+01 0.10019256004E+02 0.13211685988E+02
 0.18671190681E+02 0.26911629140E+02 0.38101502478E+02 0.52012836008E+02 0.67988000829E+02
 0.84998309235E+02 0.10173471590E+03 0.11676294303E+03 0.12869203757E+03 0.13636514127E+03
 0.11564566558E+03 0.11348138296E+03 0.10719671329E+03 0.97395501749E+02 0.84998309235E+02
 0.71134242933E+02 0.56997169832E+02 0.43705512357E+02 0.32158915254E+02 0.22936723352E+02
 0.16240213838E+02 0.11898618983E+02 0.94240384274E+01 0.81373314053E+01 0.73218457629E+01
 0.66863877498E+01 0.62334210111E+01 0.59266126291E+01 0.57396670916E+01 0.56375951327E+01
 0.56074128917E+01 0.56375951327E+01 0.57396670916E+01 0.59266126291E+01 0.62334210111E+01
 0.66863877498E+01 0.73218457629E+01 0.81373314053E+01 0.94240384274E+01 0.11898618983E+02
 0.16240213838E+02 0.22936723352E+02 0.32158915254E+02 0.43705512357E+02 0.56997169832E+02
 0.71134242933E+02 0.84998309235E+02 0.97395501749E+02 0.10719671329E+03 0.11348138296E+03
 0.92130178492E+02 0.90433921558E+02 0.85501238044E+02 0.77784017837E+02 0.67988000829E+02
 0.56997169832E+02 0.45774798229E+02 0.35239942094E+02 0.26145869328E+02 0.18976119418E+02
 0.13881030416E+02 0.10670389313E+02 0.88866731164E+01 0.78909187662E+01 0.71554535038E+01
 0.65870714101E+01 0.61814949134E+01 0.59083758484E+01 0.57385123515E+01 0.56465971491E+01
 0.56178046217E+01 0.56465971491E+01 0.57385123515E+01 0.59083758484E+01 0.61814949134E+01
 0.65870714101E+01 0.71554535038E+01 0.78909187662E+01 0.88866731164E+01 0.10670389313E+02
 0.13881030416E+02 0.18976119418E+02 0.26145869328E+02 0.35239942094E+02 0.45774798229E+02
 0.56997169832E+02 0.67988000829E+02 0.77784017837E+02 0.85501238044E+02 0.90433921558E+02
 0.70206477429E+02 0.68932623845E+02 0.65224719272E+02 0.59409608048E+02 0.52012836008E+02
 0.43705512357E+02 0.35239942094E+02 0.27342084896E+02 0.20612542707E+02 0.15414822867E+02
 0.11832209373E+02 0.96499762354E+01 0.84308154449E+01 0.76243239980E+01 0.69717145902E+01
 0.64803820152E+01 0.61261847913E+01 0.58888530335E+01 0.57370138512E+01 0.56555746075E+01
 0.56283236496E+01 0.56555746075E+01 0.57370138512E+01 0.58888530335E+01 0.61261847913E+01
 0.64803820152E+01 0.69717145902E+01 0.76243239980E+01 0.84308154449E+01 0.96499762354E+01
 0.11832209373E+02 0.15414822867E+02 0.20612542707E+02 0.27342084896E+02 0.35239942094E+02
 0.43705512357E+02 0.52012836008E+02 0.59409608048E+02 0.65224719272E+02 0.68932623845E+02
 0.51163719663E+02 0.50250336608E+02 0.47587522834E+02 0.43411478278E+02 0.38101502478E+02
 0.32158915254E+02 0.26145869328E+02 0.20612542707E+02 0.15994669789E+02 0.12540580592E+02
 0.10246036009E+02 0.88804002482E+01 0.80240550546E+01 0.73360766304E+01 0.67848787234E+01
 0.63692727726E+01 0.60714217174E+01 0.58665343125E+01 0.57353046330E+01 0.56616109307E+01
 0.56383837811E+01 0.56616109307E+01 0.57353046330E+01 0.58665343125E+01 0.60714217174E+01
 0.63692727726E+01 0.67848787234E+01 0.73360766304E+01 0.80240550546E+01 0.88804002482E+01
 0.10246036009E+02 0.12540580592E+02 0.15994669789E+02 0.20612542707E+02 0.26145869328E+02
 0.32158915254E+02 0.38101502478E+02 0.43411478278E+02 0.47587522834E+02 0.50250336608E+02
 0.35761766997E+02 0.35139674568E+02 0.33328932238E+02 0.30495447134E+02 0.26911629140E+02
 0.22936723352E+02 0.18976119418E+02 0.15414822867E+02 0.12540580592E+02 0.10473459932E+02
 0.91444594836E+01 0.82958977683E+01 0.76203945024E+01 0.70499703228E+01 0.66010060420E+01
 0.62615675705E+01 0.60158582196E+01 0.58435229618E+01 0.57304328352E+01 0.56656543115E+01
 0.56448574696E+01 0.56656543115E+01 0.57304328352E+01 0.58435229618E+01 0.60158582196E+01
 0.62615675705E+01 0.66010060420E+01 0.70499703228E+01 0.76203945024E+01 0.82958977683E+01
 0.91444594836E+01 0.10473459932E+02 0.12540580592E+02 0.15414822867E+02 0.18976119418E+02
 0.22936723352E+02 0.26911629140E+02 0.30495447134E+02 0.33328932238E+02 0.35139674568E+02
 0.24234332543E+02 0.23838246504E+02 0.22689257815E+02 0.20903369598E+02 0.18671190681E+02
 0.16240213838E+02 0.13881030416E+02 0.11832209373E+02 0.10246036009E+02 0.91444594836E+01
 0.83929743562E+01 0.77758890548E+01 0.72310033757E+01 0.67826549208E+01 0.64284980519E+01
 0.61603855787E+01 0.59613594465E+01 0.58188409163E+01 0.57217463115E+01 0.56655494243E+01
 0.56467034295E+01 0.56655494243E+01 0.57217463115E+01 0.58188409163E+01 0.59613594465E+01
 0.61603855787E+01 0.64284980519E+01 0.67826549208E+01 0.72310033757E+01 0.77758890548E+01
 0.83929743562E+01 0.91444594836E+01 0.10246036009E+02 0.11832209373E+02 0.13881030416E+02
 0.16240213838E+02 0.18671190681E+02 0.20903369598E+02 0.22689257815E+02 0.23838246504E+02
 0.16353411880E+02 0.16124710272E+02 0.15464690623E+02 0.14452279580E+02 0.13211685988E+02
 0.11898618983E+02 0.10670389313E+02 0.96499762354E+01 0.88804002482E+01 0.82958977683E+01
 0.77758890548E+01 0.72953066607E+01 0.68824458765E+01 0.65425902705E+01 0.62744097466E+01
 0.60664002115E+01 0.59085913416E+01 0.57913293090E+01 0.57098227717E+01 0.56609427924E+01
 0.56448574696E+01 0.56609427924E+01 0.57098227717E+01 0.57913293090E+01 0.59085913416E+01
 0.60664002115E+01 0.62744097466E+01 0.65425902705E+01 0.68824458765E+01 0.72953066607E+01
 0.77758890548E+01 0.82958977683E+01 0.88804002482E+01 0.96499762354E+01 0.10670389313E+02
 0.11898618983E+02 0.13211685988E+02 0.14452279580E+02 0.15464690623E+02 0.16124710272E+02
 0.11536868791E+02 0.11422334052E+02 0.11095539379E+02 0.10603716796E+02 0.10019256004E+02
 0.94240384274E+01 0.88866731164E+01 0.84308154449E+01 0.80240550546E+01 0.76203945024E+01
 0.72310033757E+01 0.68824458765E+01 0.65830732726E+01 0.63371194223E+01 0.61385398882E+01
 0.59812683779E+01 0.58576312725E+01 0.57628340324E+01 0.56942564471E+01 0.56525763423E+01
 0.56383837811E+01 0.56525763423E+01 0.56942564471E+01 0.57628340324E+01 0.58576312725E+01
 0.59812683779E+01 0.61385398882E+01 0.63371194223E+01 0.65830732726E+01 0.68824458765E+01
 0.72310033757E+01 0.76203945024E+01 0.80240550546E+01 0.84308154449E+01 0.88866731164E+01
 0.94240384274E+01 0.10019256004E+02 0.10603716796E+02 0.11095539379E+02 0.11422334052E+02
 0.89637341109E+01 0.89182259705E+01 0.87894123682E+01 0.85990310838E+01 0.83744994302E+01
 0.81373314053E+01 0.78909187662E+01 0.76243239980E+01 0.73360766304E+01 0.70499703228E+01
 0.67826549208E+01 0.65425902705E+01 0.63371194223E+01 0.61641823789E+01 0.60217533885E+01
 0.59045793647E+01 0.58085185835E+01 0.57317472646E+01 0.56751877396E+01 0.56401340258E+01
 0.56283236496E+01 0.56401340258E+01 0.56751877396E+01 0.57317472646E+01 0.58085185835E+01
 0.59045793647E+01 0.60217533885E+01 0.61641823789E+01 0.63371194223E+01 0.65425902705E+01
 0.67826549208E+01 0.70499703228E+01 0.73360766304E+01 0.76243239980E+01 0.78909187662E+01
 0.81373314053E+01 0.83744994302E+01 0.85990310838E+01 0.87894123682E+01 0.89182259705E+01
 0.77129538281E+01 0.76962188263E+01 0.76474164056E+01 0.75684016993E+01 0.74601649470E+01
 0.73218457629E+01 0.71554535038E+01 0.69717145902E+01 0.67848787234E+01 0.66010060420E+01
 0.64284980519E+01 0.62744097466E+01 0.61385398882E+01 0.60217533885E+01 0.59214344050E+01
 0.58346492997E+01 0.57607273607E+01 0.57006355900E+01 0.56555491769E+01 0.56274379095E+01
 0.56178046217E+01 0.56274379095E+01 0.56555491769E+01 0.57006355900E+01 0.57607273607E+01
 0.58346492997E+01 0.59214344050E+01 0.60217533885E+01 0.61385398882E+01 0.62744097466E+01
 0.64284980519E+01 0.66010060420E+01 0.67848787234E+01 0.69717145902E+01 0.71554535038E+01
 0.73218457629E+01 0.74601649470E+01 0.75684016993E+01 0.76474164056E+01 0.76962188263E+01
 0.69432580768E+01 0.69326603982E+01 0.69006816478E+01 0.68476817986E+01 0.67749200948E+01
 0.66863877498E+01 0.65870714101E+01 0.64803820152E+01 0.63692727726E+01 0.62615675705E+01
 0.61603855787E+01 0.60664002115E+01 0.59812683779E+01 0.59045793647E+01 0.58346492997E+01
 0.57716144641E+01 0.57169427664E+01 0.56714198388E+01 0.56367878090E+01 0.56148740579E+01
 0.56074128917E+01 0.56148740579E+01 0.56367878090E+01 0.56714198388E+01 0.57169427664E+01
 0.57716144641E+01 0.58346492997E+01 0.59045793647E+01 0.59812683779E+01 0.60664002115E+01
 0.61603855787E+01 0.62615675705E+01 0.63692727726E+01 0.64803820152E+01 0.65870714101E+01
 0.66863877498E+01 0.67749200948E+01 0.68476817986E+01 0.69006816478E+01 0.69326603982E+01
 0.63667477540E+01 0.63608045891E+01 0.63435561271E+01 0.63157006793E+01 0.62787400226E+01
 0.62334210111E+01 0.61814949134E+01 0.61261847913E+01 0.60714217174E+01 0.60158582196E+01
 0.59613594465E+01 0.59085913416E+01 0.58576312725E+01 0.58085185835E+01 0.57607273607E+01
 0.57169427664E+01 0.56778595041E+01 0.56448205400E+01 0.56192055340E+01 0.56030801860E+01
 0.55974740770E+01 0.56030801860E+01 0.56192055340E+01 0.56448205400E+01 0.56778595041E+01
 0.57169427664E+01 0.57607273607E+01 0.58085185835E+01 0.58576312725E+01 0.59085913416E+01
 0.59613594465E+01 0.60158582196E+01 0.60714217174E+01 0.61261847913E+01 0.61814949134E+01
 0.62334210111E+01 0.62787400226E+01 0.63157006793E+01 0.63435561271E+01 0.63608045891E+01
 0.59818716886E+01 0.59793196454E+01 0.59716769222E+01 0.59596542099E+01 0.59440540181E+01
 0.59266126291E+01 0.59083758484E+01 0.58888530335E+01 0.58665343125E+01 0.58435229618E+01
 0.58188409163E+01 0.57913293090E+01 0.57628340324E+01 0.57317472646E+01 0.57006355900E+01
 0.56714198388E+01 0.56448205400E+01 0.56217855277E+01 0.56040776968E+01 0.55929250032E+01
 0.55891723463E+01 0.55929250032E+01 0.56040776968E+01 0.56217855277E+01 0.56448205400E+01
 0.56714198388E+01 0.57006355900E+01 0.57317472646E+01 0.57628340324E+01 0.57913293090E+01
 0.58188409163E+01 0.58435229618E+01 0.58665343125E+01 0.58888530335E+01 0.59083758484E+01
 0.59266126291E+01 0.59440540181E+01 0.59596542099E+01 0.59716769222E+01 0.59793196454E+01
 0.57423756369E+01 0.57420563787E+01 0.57413272949E+01 0.57405799544E+01 0.57401589970E+01
 0.57396670916E+01 0.57385123515E+01 0.57370138512E+01 0.57353046330E+01 0.57304328352E+01
 0.57217463115E+01 0.57098227717E+01 0.56942564471E+01 0.56751877396E+01 0.56555491769E+01
 0.56367878090E+01 0.56192055340E+01 0.56040776968E+01 0.55926487421E+01 0.55856686987E+01
 0.55833049286E+01 0.55856686987E+01 0.55926487421E+01 0.56040776968E+01 0.56192055340E+01
 0.56367878090E+01 0.56555491769E+01 0.56751877396E+01 0.56942564471E+01 0.57098227717E+01
 0.57217463115E+01 0.57304328352E+01 0.57353046330E+01 0.57370138512E+01 0.57385123515E+01
 0.57396670916E+01 0.57401589970E+01 0.57405799544E+01 0.57413272949E+01 0.57420563787E+01
 0.56189767927E+01 0.56196746256E+01 0.56215785397E+01 0.56251136622E+01 0.56302420149E+01
 0.56375951327E+01 0.56465971491E+01 0.56555746075E+01 0.56616109307E+01 0.56656543115E+01
 0.56655494243E+01 0.56609427924E+01 0.56525763423E+01 0.56401340258E+01 0.56274379095E+01
 0.56148740579E+01 0.56030801860E+01 0.55929250032E+01 0.55856686987E+01 0.55812822584E+01
 0.55799284371E+01 0.55812822584E+01 0.55856686987E+01 0.55929250032E+01 0.56030801860E+01
 0.56148740579E+01 0.56274379095E+01 0.56401340258E+01 0.56525763423E+01 0.56609427924E+01
 0.56655494243E+01 0.56656543115E+01 0.56616109307E+01 0.56555746075E+01 0.56465971491E+01
 0.56375951327E+01 0.56302420149E+01 0.56251136622E+01 0.56215785397E+01 0.56196746256E+01
 0.55788405917E+01 0.55799284371E+01 0.55833049286E+01 0.55891723463E+01 0.55974740770E+01
 0.56074128917E+01 0.56178046217E+01 0.56283236496E+01 0.56383837811E+01 0.56448574696E+01
 0.56467034295E+01 0.56448574696E+01 0.56383837811E+01 0.56283236496E+01 0.56178046217E+01
 0.56074128917E+01 0.55974740770E+01 0.55891723463E+01 0.55833049286E+01 0.55799284371E+01
 0.55788405917E+01 0.55799284371E+01 0.55833049286E+01 0.55891723463E+01 0.55974740770E+01
 0.56074128917E+01 0.56178046217E+01 0.56283236496E+01 0.56383837811E+01 0.56448574696E+01
 0.56467034295E+01 0.56448574696E+01 0.56383837811E+01 0.56283236496E+01 0.56178046217E+01
 0.56074128917E+01 0.55974740770E+01 0.55891723463E+01 0.55833049286E+01 0.55799284371E+01
 0.56189767927E+01 0.56196746256E+01 0.56215785397E+01 0.56251136622E+01 0.56302420149E+01
 0.56375951327E+01 0.56465971491E+01 0.56555746075E+01 0.56616109307E+01 0.56656543115E+01
 0.56655494243E+01 0.56609427924E+01 0.56525763423E+01 0.56401340258E+01 0.56274379095E+01
 0.56148740579E+01 0.56030801860E+01 0.55929250032E+01 0.55856686987E+01 0.55812822584E+01
 0.55799284371E+01 0.55812822584E+01 0.55856686987E+01 0.55929250032E+01 0.56030801860E+01
 0.56148740579E+01 0.56274379095E+01 0.56401340258E+01 0.56525763423E+01 0.56609427924E+01
 0.56655494243E+01 0.56656543115E+01 0.56616109307E+01 0.56555746075E+01 0.56465971491E+01
 0.56375951327E+01 0.56302420149E+01 0.56251136622E+01 0.56215785397E+01 0.56196746256E+01
 0.57423756369E+01 0.57420563787E+01 0.57413272949E+01 0.57405799544E+01 0.57401589970E+01
 0.57396670916E+01 0.57385123515E+01 0.57370138512E+01 0.57353046330E+01 0.57304328352E+01
 0.57217463115E+01 0.57098227717E+01 0.56942564471E+01 0.56751877396E+01 0.56555491769E+01
 0.56367878090E+01 0.56192055340E+01 0.56040776968E+01 0.55926487421E+01 0.55856686987E+01
 0.55833049286E+01 0.55856686987E+01 0.55926487421E+01 0.56040776968E+01 0.56192055340E+01
 0.56367878090E+01 0.56555491769E+01 0.56751877396E+01 0.56942564471E+01 0.57098227717E+01
 0.57217463115E+01 0.57304328352E+01 0.57353046330E+01 0.57370138512E+01 0.57385123515E+01
 0.57396670916E+01 0.57401589970E+01 0.57405799544E+01 0.57413272949E+01 0.57420563787E+01
 0.59818716886E+01 0.59793196454E+01 0.59716769222E+01 0.59596542099E+01 0.59440540181E+01
 0.59266126291E+01 0.59083758484E+01 0.58888530335E+01 0.58665343125E+01 0.58435229618E+01
 0.58188409163E+01 0.57913293090E+01 0.57628340324E+01 0.57317472646E+01 0.57006355900E+01
 0.56714198388E+01 0.56448205400E+01 0.56217855277E+01 0.56040776968E+01 0.55929250032E+01
 0.55891723463E+01 0.55929250032E+01 0.56040776968E+01 0.56217855277E+01 0.56448205400E+01
 0.56714198388E+01 0.57006355900E+01 0.57317472646E+01 0.57628340324E+01 0.57913293090E+01
 0.58188409163E+01 0.58435229618E+01 0.58665343125E+01 0.58888530335E+01 0.59083758484E+01
 0.59266126291E+01 0.59440540181E+01 0.59596542099E+01 0.59716769222E+01 0.59793196454E+01
 0.63667477540E+01 0.63608045891E+01 0.63435561271E+01 0.63157006793E+01 0.62787400226E+01
 0.62334210111E+01 0.61814949134E+01 0.61261847913E+01 0.60714217174E+01 0.60158582196E+01
 0.59613594465E+01 0.59085913416E+01 0.58576312725E+01 0.58085185835E+01 0.57607273607E+01
 0.57169427664E+01 0.56778595041E+01 0.56448205400E+01 0.56192055340E+01 0.56030801860E+01
 0.55974740770E+01 0.56030801860E+01 0.56192055340E+01 0.56448205400E+01 0.56778595041E+01
 0.57169427664E+01 0.57607273607E+01 0.58085185835E+01 0.58576312725E+01 0.59085913416E+01
 0.59613594465E+01 0.60158582196E+01 0.60714217174E+01 0.61261847913E+01 0.61814949134E+01
 0.62334210111E+01 0.62787400226E+01 0.63157006793E+01 0.63435561271E+01 0.63608045891E+01
 0.69432580768E+01 0.69326603982E+01 0.69006816478E+01 0.68476817986E+01 0.67749200948E+01
 0.66863877498E+01 0.65870714101E+01 0.64803820152E+01 0.63692727726E+01 0.62615675705E+01
 0.61603855787E+01 0.60664002115E+01 0.59812683779E+01 0.59045793647E+01 0.58346492997E+01
 0.57716144641E+01 0.57169427664E+01 0.56714198388E+01 0.56367878090E+01 0.56148740579E+01
 0.56074128917E+01 0.56148740579E+01 0.56367878090E+01 0.56714198388E+01 0.57169427664E+01
 0.57716144641E+01 0.58346492997E+01 0.59045793647E+01 0.59812683779E+01 0.60664002115E+01
 0.61603855787E+01 0.62615675705E+01 0.63692727726E+01 0.64803820152E+01 0.65870714101E+01
 0.66863877498E+01 0.67749200948E+01 0.68476817986E+01 0.69006816478E+01 0.69326603982E+01
 0.77129538281E+01 0.76962188263E+01 0.76474164056E+01 0.75684016993E+01 0.74601649470E+01
 0.73218457629E+01 0.71554535038E+01 0.69717145902E+01 0.67848787234E+01 0.66010060420E+01
 0.64284980519E+01 0.62744097466E+01 0.61385398882E+01 0.60217533885E+01 0.59214344050E+01
 0.58346492997E+01 0.57607273607E+01 0.57006355900E+01 0.56555491769E+01 0.56274379095E+01
 0.56178046217E+01 0.56274379095E+01 0.56555491769E+01 0.57006355900E+01 0.57607273607E+01
 0.58346492997E+01 0.59214344050E+01 0.60217533885E+01 0.61385398882E+01 0.62744097466E+01
 0.64284980519E+01 0.66010060420E+01 0.67848787234E+01 0.69717145902E+01 0.71554535038E+01
 0.73218457629E+01 0.74601649470E+01 0.75684016993E+01 0.76474164056E+01 0.76962188263E+01
 0.89637341109E+01 0.89182259705E+01 0.87894123682E+01 0.85990310838E+01 0.83744994302E+01
 0.81373314053E+01 0.78909187662E+01 0.76243239980E+01 0.73360766304E+01 0.70499703228E+01
 0.67826549208E+01 0.65425902705E+01 0.63371194223E+01 0.61641823789E+01 0.60217533885E+01
 0.59045793647E+01 0.58085185835E+01 0.57317472646E+01 0.56751877396E+01 0.56401340258E+01
 0.56283236496E+01 0.56401340258E+01 0.56751877396E+01 0.57317472646E+01 0.58085185835E+01
 0.59045793647E+01 0.60217533885E+01 0.61641823789E+01 0.63371194223E+01 0.65425902705E+01
 0.67826549208E+01 0.70499703228E+01 0.73360766304E+01 0.76243239980E+01 0.78909187662E+01
 0.81373314053E+01 0.83744994302E+01 0.85990310838E+01 0.87894123682E+01 0.89182259705E+01
 0.11536868791E+02 0.11422334052E+02 0.11095539379E+02 0.10603716796E+02 0.10019256004E+02
 0.94240384274E+01 0.88866731164E+01 0.84308154449E+01 0.80240550546E+01 0.76203945024E+01
 0.72310033757E+01 0.68824458765E+01 0.65830732726E+01 0.63371194223E+01 0.61385398882E+01
 0.59812683779E+01 0.58576312725E+01 0.57628340324E+01 0.56942564471E+01 0.56525763423E+01
 0.56383837811E+01 0.56525763423E+01 0.56942564471E+01 0.57628340324E+01 0.58576312725E+01
 0.59812683779E+01 0.61385398882E+01 0.63371194223E+01 0.65830732726E+01 0.68824458765E+01
 0.72310033757E+01 0.76203945024E+01 0.80240550546E+01 0.84308154449E+01 0.88866731164E+01
 0.94240384274E+01 0.10019256004E+02 0.10603716796E+02 0.11095539379E+02 0.11422334052E+02
 0.16353411880E+02 0.16124710272E+02 0.15464690623E+02 0.14452279580E+02 0.13211685988E+02
 0.11898618983E+02 0.10670389313E+02 0.96499762354E+01 0.88804002482E+01 0.82958977683E+01
 0.77758890548E+01 0.72953066607E+01 0.68824458765E+01 0.65425902705E+01 0.62744097466E+01
 0.60664002115E+01 0.59085913416E+01 0.57913293090E+01 0.57098227717E+01 0.56609427924E+01
 0.56448574696E+01 0.56609427924E+01 0.57098227717E+01 0.57913293090E+01 0.59085913416E+01
 0.60664002115E+01 0.62744097466E+01 0.65425902705E+01 0.68824458765E+01 0.72953066607E+01
 0.77758890548E+01 0.82958977683E+01 0.88804002482E+01 0.96499762354E+01 0.10670389313E+02
 0.11898618983E+02 0.13211685988E+02 0.14452279580E+02 0.15464690623E+02 0.16124710272E+02
 0.24234332543E+02 0.23838246504E+02 0.22689257815E+02 0.20903369598E+02 0.18671190681E+02
 0.16240213838E+02 0.13881030416E+02 0.11832209373E+02 0.10246036009E+02 0.91444594836E+01
 0.83929743562E+01 0.77758890548E+01 0.72310033757E+01 0.67826549208E+01 0.64284980519E+01
 0.61603855787E+01 0.59613594465E+01 0.58188409163E+01 0.57217463115E+01 0.56655494243E+01
 0.56467034295E+01 0.56655494243E+01 0.57217463115E+01 0.58188409163E+01 0.59613594465E+01
 0.61603855787E+01 0.64284980519E+01 0.67826549208E+01 0.72310033757E+01 0.77758890548E+01
 0.83929743562E+01 0.91444594836E+01 0.10246036009E+02 0.11832209373E+02 0.13881030416E+02
 0.16240213838E+02 0.18671190681E+02 0.20903369598E+02 0.22689257815E+02 0.23838246504E+02
 0.35761766997E+02 0.35139674568E+02 0.33328932238E+02 0.30495447134E+02 0.26911629140E+02
 0.22936723352E+02 0.18976119418E+02 0.15414822867E+02 0.12540580592E+02 0.10473459932E+02
 0.91444594836E+01 0.82958977683E+01 0.76203945024E+01 0.70499703228E+01 0.66010060420E+01
 0.62615675705E+01 0.60158582196E+01 0.58435229618E+01 0.57304328352E+01 0.56656543115E+01
 0.56448574696E+01 0.56656543115E+01 0.57304328352E+01 0.58435229618E+01 0.60158582196E+01
 0.62615675705E+01 0.66010060420E+01 0.70499703228E+01 0.76203945024E+01 0.82958977683E+01
 0.91444594836E+01 0.10473459932E+02 0.12540580592E+02 0.15414822867E+02 0.18976119418E+02
 0.22936723352E+02 0.26911629140E+02 0.30495447134E+02 0.33328932238E+02 0.35139674568E+02
 0.51163719663E+02 0.50250336608E+02 0.47587522834E+02 0.43411478278E+02 0.38101502478E+02
 0.32158915254E+02 0.26145869328E+02 0.20612542707E+02 0.15994669789E+02 0.12540580592E+02
 0.10246036009E+02 0.88804002482E+01 0.80240550546E+01 0.73360766304E+01 0.67848787234E+01
 0.63692727726E+01 0.60714217174E+01 0.58665343125E+01 0.57353046330E+01 0.56616109307E+01
 0.56383837811E+01 0.56616109307E+01 0.57353046330E+01 0.58665343125E+01 0.60714217174E+01
 0.63692727726E+01 0.67848787234E+01 0.73360766304E+01 0.80240550546E+01 0.88804002482E+01
 0.10246036009E+02 0.12540580592E+02 0.15994669789E+02 0.20612542707E+02 0.26145869328E+02
 0.32158915254E+02 0.38101502478E+02 0.43411478278E+02 0.47587522834E+02 0.50250336608E+02
 0.70206477429E+02 0.68932623845E+02 0.65224719272E+02 0.59409608048E+02 0.52012836008E+02
 0.43705512357E+02 0.35239942094E+02 0.27342084896E+02 0.20612542707E+02 0.15414822867E+02
 0.11832209373E+02 0.96499762354E+01 0.84308154449E+01 0.76243239980E+01 0.69717145902E+01
 0.64803820152E+01 0.61261847913E+01 0.58888530335E+01 0.57370138512E+01 0.56555746075E+01
 0.56283236496E+01 0.56555746075E+01 0.57370138512E+01 0.58888530335E+01 0.61261847913E+01
 0.64803820152E+01 0.69717145902E+01 0.76243239980E+01 0.84308154449E+01 0.96499762354E+01
 0.11832209373E+02 0.15414822867E+02 0.20612542707E+02 0.27342084896E+02 0.35239942094E+02
 0.43705512357E+02 0.52012836008E+02 0.59409608048E+02 0.65224719272E+02 0.68932623845E+02
 0.92130178492E+02 0.90433921558E+02 0.85501238044E+02 0.77784017837E+02 0.67988000829E+02
 0.56997169832E+02 0.45774798229E+02 0.35239942094E+02 0.26145869328E+02 0.18976119418E+02
 0.13881030416E+02 0.10670389313E+02 0.88866731164E+01 0.78909187662E+01 0.71554535038E+01
 0.65870714101E+01 0.61814949134E+01 0.59083758484E+01 0.57385123515E+01 0.56465971491E+01
 0.56178046217E+01 0.56465971491E+01 0.57385123515E+01 0.59083758484E+01 0.61814949134E+01
 0.65870714101E+01 0.71554535038E+01 0.78909187662E+01 0.88866731164E+01 0.10670389313E+02
 0.13881030416E+02 0.18976119418E+02 0.26145869328E+02 0.35239942094E+02 0.45774798229E+02
 0.56997169832E+02 0.67988000829E+02 0.77784017837E+02 0.85501238044E+02 0.90433921558E+02
 0.11564566558E+03 0.11348138296E+03 0.10719671329E+03 0.97395501749E+02 0.84998309235E+02
 0.71134242933E+02 0.56997169832E+02 0.43705512357E+02 0.32158915254E+02 0.22936723352E+02
 0.16240213838E+02 0.11898618983E+02 0.94240384274E+01 0.81373314053E+01 0.73218457629E+01
 0.66863877498E+01 0.62334210111E+01 0.59266126291E+01 0.57396670916E+01 0.56375951327E+01
 0.56074128917E+01 0.56375951327E+01 0.57396670916E+01 0.59266126291E+01 0.62334210111E+01
 0.66863877498E+01 0.73218457629E+01 0.81373314053E+01 0.94240384274E+01 0.11898618983E+02
 0.16240213838E+02 0.22936723352E+02 0.32158915254E+02 0.43705512357E+02 0.56997169832E+02
 0.71134242933E+02 0.84998309235E+02 0.97395501749E+02 0.10719671329E+03 0.11348138296E+03
 0.13901196004E+03 0.13636514127E+03 0.12869203757E+03 0.11676294303E+03 0.10173471590E+03
 0.84998309235E+02 0.67988000829E+02 0.52012836008E+02 0.38101502478E+02 0.26911629140E+02
 0.18671190681E+02 0.13211685988E+02 0.10019256004E+02 0.83744994302E+01 0.74601649470E+01
 0.67749200948E+01 0.62787400226E+01 0.59440540181E+01 0.57401589970E+01 0.56302420149E+01
 0.55974740770E+01 0.56302420149E+01 0.57401589970E+01 0.59440540181E+01 0.62787400226E+01
 0.67749200948E+01 0.74601649470E+01 0.83744994302E+01 0.10019256004E+02 0.13211685988E+02
 0.18671190681E+02 0.26911629140E+02 0.38101502478E+02 0.52012836008E+02 0.67988000829E+02
 0.84998309235E+02 0.10173471590E+03 0.11676294303E+03 0.12869203757E+03 0.13636514127E+03
 0.16020476578E+03 0.15710511524E+03 0.14813363691E+03 0.13422296421E+03 0.11676294303E+03
 0.97395501749E+02 0.77784017837E+02 0.59409608048E+02 0.43411478278E+02 0.30495447134E+02
 0.20903369598E+02 0.14452279580E+02 0.10603716796E+02 0.85990310838E+01 0.75684016993E+01
 0.68476817986E+01 0.63157006793E+01 0.59596542099E+01 0.57405799544E+01 0.56251136622E+01
 0.55891723463E+01 0.56251136622E+01 0.57405799544E+01 0.59596542099E+01 0.63157006793E+01
 0.68476817986E+01 0.75684016993E+01 0.85990310838E+01 0.10603716796E+02 0.14452279580E+02
 0.20903369598E+02 0.30495447134E+02 0.43411478278E+02 0.59409608048E+02 0.77784017837E+02
 0.97395501749E+02 0.11676294303E+03 0.13422296421E+03 0.14813363691E+03 0.15710511524E+03
 0.17717809887E+03 0.17370581177E+03 0.16366727842E+03 0.14813363691E+03 0.12869203757E+03
 0.10719671329E+03 0.85501238044E+02 0.65224719272E+02 0.47587522834E+02 0.33328932238E+02
 0.22689257815E+02 0.15464690623E+02 0.11095539379E+02 0.87894123682E+01 0.76474164056E+01
 0.69006816478E+01 0.63435561271E+01 0.59716769222E+01 0.57413272949E+01 0.56215785397E+01
 0.55833049286E+01 0.56215785397E+01 0.57413272949E+01 0.59716769222E+01 0.63435561271E+01
 0.69006816478E+01 0.76474164056E+01 0.87894123682E+01 0.11095539379E+02 0.15464690623E+02
 0.22689257815E+02 0.33328932238E+02 0.47587522834E+02 0.65224719272E+02 0.85501238044E+02
 0.10719671329E+03 0.12869203757E+03 0.14813363691E+03 0.16366727842E+03 0.17370581177E+03
 0.18816535455E+03 0.18444723680E+03 0.17370581177E+03 0.15710511524E+03 0.13636514127E+03
 0.11348138296E+03 0.90433921558E+02 0.68932623845E+02 0.50250336608E+02 0.35139674568E+02
 0.23838246504E+02 0.16124710272E+02 0.11422334052E+02 0.89182259705E+01 0.76962188263E+01
 0.69326603982E+01 0.63608045891E+01 0.59793196454E+01 0.57420563787E+01 0.56196746256E+01
 0.55799284371E+01 0.56196746256E+01 0.57420563787E+01 0.59793196454E+01 0.63608045891E+01
 0.69326603982E+01 0.76962188263E+01 0.89182259705E+01 0.11422334052E+02 0.16124710272E+02
 0.23838246504E+02 0.35139674568E+02 0.50250336608E+02 0.68932623845E+02 0.90433921558E+02
 0.11348138296E+03 0.13636514127E+03 0.15710511524E+03 0.17370581177E+03 0.18444723680E+03
 0.18816535455E+03 0.18444723680E+03 0.17370581177E+03 0.15710511524E+03 0.13636514127E+03
 0.11348138296E+03 0.90433921558E+02 0.68932623845E+02 0.50250336608E+02 0.35139674568E+02
 0.23838246504E+02 0.16124710272E+02 0.11422334052E+02 0.89182259705E+01 0.76962188263E+01
 0.69326603982E+01 0.63608045891E+01 0.59793196454E+01 0.57420563787E+01 0.56196746256E+01
 0.55799284371E+01 0.56196746256E+01 0.57420563787E+01 0.59793196454E+01 0.63608045891E+01
 0.69326603982E+01 0.76962188263E+01 0.89182259705E+01 0.11422334052E+02 0.16124710272E+02