   2   2   1   0
  0.1173411E+02  0.2863036E-09  0.2863036E-09  0.2863036E-09  0.5000000E-15
  1.000000000000000E-004
  CAR 
 unknown system                          
     45.20451877     -4.87116684  301      5.84701554      1.00000000
     -4.871  0.0000E+00  0.0000E+00  0.0000E+00  0.0000E+00
     -4.704  0.0000E+00  0.0000E+00  0.0000E+00  0.0000E+00
     -4.537  0.0000E+00  0.0000E+00  0.0000E+00  0.0000E+00
     -4.370  0.0000E+00  0.0000E+00  0.0000E+00  0.0000E+00
     -4.203 -0.3278E-32  0.0000E+00 -0.5472E-33  0.0000E+00
     -4.037 -0.9936E-27 -0.5304E-32 -0.1659E-27 -0.8853E-33
     -3.870 -0.7408E-22 -0.1528E-26 -0.1237E-22 -0.2550E-27
     -3.703 -0.1318E-17 -0.1083E-21 -0.2200E-18 -0.1807E-22
     -3.536 -0.5908E-14 -0.1830E-17 -0.9865E-15 -0.3054E-18
     -3.369 -0.6590E-11 -0.7792E-14 -0.1101E-11 -0.1301E-14
     -3.202 -0.1862E-08 -0.8258E-11 -0.3119E-09 -0.1380E-11
     -3.035 -0.1366E-06 -0.2218E-08 -0.2311E-07 -0.3716E-09
     -2.868 -0.2528E-05 -0.1546E-06 -0.4451E-06 -0.2618E-07
     -2.701 -0.6096E-05 -0.2709E-05 -0.1463E-05 -0.4784E-06
     -2.534  0.6476E-04 -0.5615E-05  0.9347E-05 -0.1416E-05
     -2.367  0.2305E-03  0.6966E-04  0.4783E-04  0.1021E-04
     -2.200  0.3646E-03  0.2340E-03  0.1087E-03  0.4926E-04
     -2.034  0.5349E-03  0.3655E-03  0.1980E-03  0.1103E-03
     -1.867  0.4668E-03  0.5328E-03  0.2759E-03  0.1992E-03
     -1.700  0.7036E-03  0.4563E-03  0.3933E-03  0.2754E-03
     -1.533  0.7565E-03  0.6937E-03  0.5196E-03  0.3912E-03
     -1.366  0.8084E-03  0.7385E-03  0.6545E-03  0.5144E-03
     -1.199  0.7288E-03  0.7904E-03  0.7762E-03  0.6464E-03
     -1.032  0.1046E-02  0.7053E-03  0.9508E-03  0.7641E-03
     -0.865  0.1231E-02  0.9538E-03  0.1156E-02  0.9233E-03
     -0.698  0.1011E-02  0.1186E-02  0.1325E-02  0.1121E-02
     -0.531  0.1003E-02  0.1043E-02  0.1493E-02  0.1295E-02
     -0.364  0.1518E-02  0.8030E-03  0.1746E-02  0.1429E-02
     -0.197  0.1633E-02  0.1322E-02  0.2018E-02  0.1650E-02
     -0.031  0.1535E-02  0.1500E-02  0.2275E-02  0.1900E-02
      0.136  0.1584E-02  0.1420E-02  0.2539E-02  0.2137E-02
      0.303  0.1932E-02  0.1229E-02  0.2862E-02  0.2343E-02
      0.470  0.2446E-02  0.1588E-02  0.3270E-02  0.2608E-02
      0.637  0.2729E-02  0.1552E-02  0.3726E-02  0.2867E-02
      0.804  0.3167E-02  0.1939E-02  0.4254E-02  0.3190E-02
      0.971  0.5881E-02  0.2181E-02  0.5236E-02  0.3554E-02
      1.138  0.1057E-01  0.1972E-02  0.7000E-02  0.3884E-02
      1.305  0.1158E-01  0.1761E-02  0.8933E-02  0.4177E-02
      1.472  0.1413E-01  0.2712E-02  0.1129E-01  0.4630E-02
      1.639  0.1813E-01  0.3012E-02  0.1432E-01  0.5133E-02
      1.806  0.1803E-01  0.3050E-02  0.1733E-01  0.5642E-02
      1.973  0.1371E-01  0.3660E-02  0.1962E-01  0.6253E-02
      2.139  0.9745E-02  0.4508E-02  0.2124E-01  0.7005E-02
      2.306  0.8613E-02  0.6288E-02  0.2268E-01  0.8055E-02
      2.473  0.1902E-01  0.7829E-02  0.2585E-01  0.9362E-02
      2.640  0.3037E-01  0.6621E-02  0.3093E-01  0.1047E-01
      2.807  0.2403E-01  0.7329E-02  0.3494E-01  0.1169E-01
      2.974  0.2018E-01  0.9224E-02  0.3831E-01  0.1323E-01
      3.141  0.2248E-01  0.1158E-01  0.4206E-01  0.1516E-01
      3.308  0.2836E-01  0.1301E-01  0.4679E-01  0.1733E-01
      3.475  0.2711E-01  0.1122E-01  0.5132E-01  0.1921E-01
      3.642  0.1641E-01  0.8259E-02  0.5406E-01  0.2059E-01
      3.809  0.9393E-02  0.5507E-02  0.5562E-01  0.2151E-01
      3.976  0.8438E-02  0.9680E-02  0.5703E-01  0.2312E-01
      4.142  0.9075E-02  0.2073E-01  0.5855E-01  0.2658E-01
      4.309  0.1205E-01  0.2645E-01  0.6056E-01  0.3100E-01
      4.476  0.1892E-01  0.2457E-01  0.6372E-01  0.3510E-01
      4.643  0.3113E-01  0.2281E-01  0.6891E-01  0.3890E-01
      4.810  0.4342E-01  0.2258E-01  0.7616E-01  0.4267E-01
      4.977  0.5051E-01  0.2427E-01  0.8459E-01  0.4672E-01
      5.144  0.3525E-01  0.2345E-01  0.9047E-01  0.5064E-01
      5.311  0.1861E-01  0.1914E-01  0.9358E-01  0.5383E-01
      5.478  0.1664E-01  0.1320E-01  0.9636E-01  0.5604E-01
      5.645  0.1395E-01  0.6552E-02  0.9869E-01  0.5713E-01
      5.812  0.1504E-01  0.5453E-02  0.1012E+00  0.5804E-01
      5.979  0.1548E-01  0.4750E-02  0.1038E+00  0.5883E-01
      6.145  0.9603E-02  0.5446E-02  0.1054E+00  0.5974E-01
      6.312  0.4425E-02  0.5923E-02  0.1061E+00  0.6073E-01
      6.479  0.2230E-02  0.8667E-02  0.1065E+00  0.6218E-01
      6.646  0.2760E-02  0.1191E-01  0.1070E+00  0.6416E-01
      6.813  0.3550E-02  0.1498E-01  0.1075E+00  0.6666E-01
      6.980  0.3219E-02  0.1778E-01  0.1081E+00  0.6963E-01
      7.147  0.2383E-02  0.2260E-01  0.1085E+00  0.7341E-01
      7.314  0.3093E-02  0.2681E-01  0.1090E+00  0.7788E-01
      7.481  0.3410E-02  0.2533E-01  0.1096E+00  0.8211E-01
      7.648  0.2034E-02  0.3209E-01  0.1099E+00  0.8746E-01
      7.815  0.2201E-02  0.4807E-01  0.1103E+00  0.9549E-01
      7.982  0.3166E-02  0.3278E-01  0.1108E+00  0.1010E+00
      8.149  0.3311E-02  0.1664E-01  0.1114E+00  0.1037E+00
      8.315  0.2830E-02  0.1140E-01  0.1118E+00  0.1056E+00
      8.482  0.2679E-02  0.6121E-02  0.1123E+00  0.1067E+00
      8.649  0.2061E-02  0.4158E-02  0.1126E+00  0.1074E+00
      8.816  0.1886E-02  0.4620E-02  0.1129E+00  0.1081E+00
      8.983  0.2584E-02  0.4402E-02  0.1134E+00  0.1089E+00
      9.150  0.2595E-02  0.3752E-02  0.1138E+00  0.1095E+00
      9.317  0.2367E-02  0.2638E-02  0.1142E+00  0.1099E+00
      9.484  0.2496E-02  0.3315E-02  0.1146E+00  0.1105E+00
      9.651  0.2654E-02  0.4869E-02  0.1151E+00  0.1113E+00
      9.818  0.1954E-02  0.3663E-02  0.1154E+00  0.1119E+00
      9.985  0.1666E-02  0.2229E-02  0.1157E+00  0.1123E+00
     10.152  0.1808E-02  0.2269E-02  0.1160E+00  0.1127E+00
     10.318  0.2125E-02  0.3435E-02  0.1163E+00  0.1132E+00
     10.485  0.1281E-02  0.3477E-02  0.1165E+00  0.1138E+00
     10.652  0.1337E-02  0.2409E-02  0.1168E+00  0.1142E+00
     10.819  0.2495E-02  0.2400E-02  0.1172E+00  0.1146E+00
     10.986  0.2096E-02  0.3195E-02  0.1175E+00  0.1151E+00
     11.153  0.1818E-02  0.2240E-02  0.1178E+00  0.1155E+00
     11.320  0.1147E-02  0.1778E-02  0.1180E+00  0.1158E+00
     11.487  0.1200E-02  0.2379E-02  0.1182E+00  0.1162E+00
     11.654  0.1122E-02  0.1913E-02  0.1184E+00  0.1165E+00
     11.821  0.4186E-03  0.1764E-02  0.1185E+00  0.1168E+00
     11.988  0.1027E-02  0.2532E-02  0.1186E+00  0.1173E+00
     12.155  0.1416E-02  0.2153E-02  0.1189E+00  0.1176E+00
     12.321  0.9989E-03  0.1698E-02  0.1190E+00  0.1179E+00
     12.488  0.9732E-03  0.1165E-02  0.1192E+00  0.1181E+00
     12.655  0.8597E-03  0.1137E-02  0.1194E+00  0.1183E+00
     12.822  0.9012E-03  0.1024E-02  0.1195E+00  0.1184E+00
     12.989  0.5747E-03  0.1167E-02  0.1196E+00  0.1186E+00
     13.156  0.3295E-03  0.1819E-02  0.1197E+00  0.1189E+00
     13.323  0.1574E-02  0.1410E-02  0.1199E+00  0.1192E+00
     13.490  0.3757E-02  0.5649E-03  0.1205E+00  0.1193E+00
     13.657  0.5258E-02  0.5823E-03  0.1214E+00  0.1194E+00
     13.824  0.5532E-02  0.8881E-03  0.1223E+00  0.1195E+00
     13.991  0.4917E-02  0.5008E-03  0.1232E+00  0.1196E+00
     14.158  0.3856E-02  0.2302E-03  0.1238E+00  0.1196E+00
     14.325  0.3627E-02  0.1487E-03  0.1244E+00  0.1197E+00
     14.491  0.3742E-02  0.1400E-02  0.1250E+00  0.1199E+00
     14.658  0.3055E-02  0.4209E-02  0.1255E+00  0.1206E+00
     14.825  0.3077E-02  0.6046E-02  0.1261E+00  0.1216E+00
     14.992  0.3019E-02  0.7072E-02  0.1266E+00  0.1228E+00
     15.159  0.2760E-02  0.5909E-02  0.1270E+00  0.1238E+00
     15.326  0.3648E-02  0.3119E-02  0.1276E+00  0.1243E+00
     15.493  0.3442E-02  0.3288E-02  0.1282E+00  0.1249E+00
     15.660  0.2972E-02  0.4154E-02  0.1287E+00  0.1255E+00
     15.827  0.4364E-02  0.4393E-02  0.1294E+00  0.1263E+00
     15.994  0.4294E-02  0.4203E-02  0.1302E+00  0.1270E+00
     16.161  0.3801E-02  0.2635E-02  0.1308E+00  0.1274E+00
     16.328  0.3376E-02  0.3381E-02  0.1314E+00  0.1280E+00
     16.494  0.3621E-02  0.3778E-02  0.1320E+00  0.1286E+00
     16.661  0.4059E-02  0.4838E-02  0.1326E+00  0.1294E+00
     16.828  0.3731E-02  0.4701E-02  0.1333E+00  0.1302E+00
     16.995  0.3616E-02  0.3897E-02  0.1339E+00  0.1309E+00
     17.162  0.3533E-02  0.4426E-02  0.1344E+00  0.1316E+00
     17.329  0.4992E-02  0.4170E-02  0.1353E+00  0.1323E+00
     17.496  0.4452E-02  0.2756E-02  0.1360E+00  0.1328E+00
     17.663  0.2397E-02  0.3610E-02  0.1364E+00  0.1334E+00
     17.830  0.2432E-02  0.4349E-02  0.1368E+00  0.1341E+00
     17.997  0.3714E-02  0.4170E-02  0.1375E+00  0.1348E+00
     18.164  0.3348E-02  0.5357E-02  0.1380E+00  0.1357E+00
     18.331  0.4033E-02  0.4493E-02  0.1387E+00  0.1364E+00
     18.497  0.5772E-02  0.2186E-02  0.1396E+00  0.1368E+00
     18.664  0.3923E-02  0.2304E-02  0.1403E+00  0.1372E+00
     18.831  0.2552E-02  0.3298E-02  0.1407E+00  0.1377E+00
     18.998  0.3560E-02  0.4791E-02  0.1413E+00  0.1385E+00
     19.165  0.2141E-02  0.5059E-02  0.1417E+00  0.1394E+00
     19.332  0.1378E-02  0.4820E-02  0.1419E+00  0.1402E+00
     19.499  0.4366E-02  0.3597E-02  0.1426E+00  0.1408E+00
     19.666  0.5597E-02  0.2876E-02  0.1436E+00  0.1413E+00
     19.833  0.4541E-02  0.2388E-02  0.1443E+00  0.1416E+00
     20.000  0.4570E-02  0.2158E-02  0.1451E+00  0.1420E+00
     20.167  0.2384E-02  0.4195E-02  0.1455E+00  0.1427E+00
     20.334  0.1533E-02  0.4886E-02  0.1457E+00  0.1435E+00
     20.501  0.2600E-02  0.5182E-02  0.1462E+00  0.1444E+00
     20.667  0.3308E-02  0.4650E-02  0.1467E+00  0.1452E+00
     20.834  0.3069E-02  0.1903E-02  0.1472E+00  0.1455E+00
     21.001  0.3586E-02  0.2572E-02  0.1478E+00  0.1459E+00
     21.168  0.5209E-02  0.3063E-02  0.1487E+00  0.1464E+00
     21.335  0.4805E-02  0.2758E-02  0.1495E+00  0.1469E+00
     21.502  0.3416E-02  0.3342E-02  0.1501E+00  0.1474E+00
     21.669  0.1882E-02  0.4441E-02  0.1504E+00  0.1482E+00
     21.836  0.1459E-02  0.5495E-02  0.1506E+00  0.1491E+00
     22.003  0.3459E-02  0.4111E-02  0.1512E+00  0.1498E+00
     22.170  0.3999E-02  0.2874E-02  0.1519E+00  0.1503E+00
     22.337  0.3985E-02  0.1329E-02  0.1526E+00  0.1505E+00
     22.504  0.4990E-02  0.2539E-02  0.1534E+00  0.1509E+00
     22.670  0.5027E-02  0.3844E-02  0.1542E+00  0.1516E+00
     22.837  0.4885E-02  0.3763E-02  0.1550E+00  0.1522E+00
     23.004  0.4340E-02  0.4186E-02  0.1558E+00  0.1529E+00
     23.171  0.3166E-02  0.5276E-02  0.1563E+00  0.1538E+00
     23.338  0.2990E-02  0.5452E-02  0.1568E+00  0.1547E+00
     23.505  0.4318E-02  0.4263E-02  0.1575E+00  0.1554E+00
     23.672  0.5708E-02  0.3711E-02  0.1585E+00  0.1560E+00
     23.839  0.5038E-02  0.4394E-02  0.1593E+00  0.1567E+00
     24.006  0.5069E-02  0.4322E-02  0.1602E+00  0.1575E+00
     24.173  0.6994E-02  0.4854E-02  0.1613E+00  0.1583E+00
     24.340  0.5431E-02  0.6630E-02  0.1622E+00  0.1594E+00
     24.507  0.4018E-02  0.7094E-02  0.1629E+00  0.1606E+00
     24.673  0.3933E-02  0.5832E-02  0.1636E+00  0.1615E+00
     24.840  0.4202E-02  0.4265E-02  0.1643E+00  0.1622E+00
     25.007  0.4148E-02  0.4389E-02  0.1649E+00  0.1630E+00
     25.174  0.5411E-02  0.4513E-02  0.1659E+00  0.1637E+00
     25.341  0.6013E-02  0.3729E-02  0.1669E+00  0.1644E+00
     25.508  0.6056E-02  0.5148E-02  0.1679E+00  0.1652E+00
     25.675  0.6120E-02  0.5726E-02  0.1689E+00  0.1662E+00
     25.842  0.5629E-02  0.5396E-02  0.1698E+00  0.1671E+00
     26.009  0.3751E-02  0.7060E-02  0.1705E+00  0.1682E+00
     26.176  0.3049E-02  0.6644E-02  0.1710E+00  0.1694E+00
     26.343  0.4476E-02  0.4015E-02  0.1717E+00  0.1700E+00
     26.510  0.6121E-02  0.3267E-02  0.1727E+00  0.1706E+00
     26.677  0.6126E-02  0.4194E-02  0.1738E+00  0.1713E+00
     26.843  0.5764E-02  0.5237E-02  0.1747E+00  0.1721E+00
     27.010  0.4343E-02  0.5869E-02  0.1754E+00  0.1731E+00
     27.177  0.4154E-02  0.5945E-02  0.1761E+00  0.1741E+00
     27.344  0.3272E-02  0.5830E-02  0.1767E+00  0.1751E+00
     27.511  0.2849E-02  0.4723E-02  0.1772E+00  0.1759E+00
     27.678  0.3571E-02  0.2806E-02  0.1778E+00  0.1763E+00
     27.845  0.3302E-02  0.3361E-02  0.1783E+00  0.1769E+00
     28.012  0.3913E-02  0.4097E-02  0.1790E+00  0.1776E+00
     28.179  0.4292E-02  0.2557E-02  0.1797E+00  0.1780E+00
     28.346  0.3985E-02  0.2483E-02  0.1803E+00  0.1784E+00
     28.513  0.3539E-02  0.4574E-02  0.1809E+00  0.1792E+00
     28.680  0.2772E-02  0.5604E-02  0.1814E+00  0.1801E+00
     28.846  0.2891E-02  0.3152E-02  0.1819E+00  0.1807E+00
     29.013  0.2097E-02  0.2329E-02  0.1822E+00  0.1810E+00
     29.180  0.2184E-02  0.3249E-02  0.1826E+00  0.1816E+00
     29.347  0.2257E-02  0.3186E-02  0.1830E+00  0.1821E+00
     29.514  0.3255E-02  0.2320E-02  0.1835E+00  0.1825E+00
     29.681  0.3957E-02  0.2368E-02  0.1842E+00  0.1829E+00
     29.848  0.3174E-02  0.2423E-02  0.1847E+00  0.1833E+00
     30.015  0.3130E-02  0.3763E-02  0.1852E+00  0.1839E+00
     30.182  0.4091E-02  0.4224E-02  0.1859E+00  0.1846E+00
     30.349  0.4557E-02  0.2786E-02  0.1867E+00  0.1851E+00
     30.516  0.5528E-02  0.3668E-02  0.1876E+00  0.1857E+00
     30.683  0.5781E-02  0.5566E-02  0.1886E+00  0.1866E+00
     30.849  0.6733E-02  0.5214E-02  0.1897E+00  0.1875E+00
     31.016  0.6244E-02  0.5913E-02  0.1907E+00  0.1885E+00
     31.183  0.5831E-02  0.6638E-02  0.1917E+00  0.1896E+00
     31.350  0.4868E-02  0.5656E-02  0.1925E+00  0.1906E+00
     31.517  0.4337E-02  0.6137E-02  0.1932E+00  0.1916E+00
     31.684  0.3752E-02  0.5448E-02  0.1939E+00  0.1925E+00
     31.851  0.3050E-02  0.3696E-02  0.1944E+00  0.1931E+00
     32.018  0.3977E-02  0.4771E-02  0.1950E+00  0.1939E+00
     32.185  0.3150E-02  0.4836E-02  0.1956E+00  0.1947E+00
     32.352  0.1647E-02  0.2829E-02  0.1958E+00  0.1952E+00
     32.519  0.1148E-02  0.2264E-02  0.1960E+00  0.1956E+00
     32.686  0.9864E-03  0.1515E-02  0.1962E+00  0.1958E+00
     32.853  0.1915E-02  0.1438E-02  0.1965E+00  0.1961E+00
     33.019  0.1366E-02  0.2452E-02  0.1967E+00  0.1965E+00
     33.186  0.7638E-03  0.1263E-02  0.1969E+00  0.1967E+00
     33.353  0.1166E-02  0.6761E-03  0.1971E+00  0.1968E+00
     33.520  0.1420E-02  0.1590E-02  0.1973E+00  0.1971E+00
     33.687  0.1390E-02  0.2048E-02  0.1975E+00  0.1974E+00
     33.854  0.7738E-03  0.1149E-02  0.1977E+00  0.1976E+00
     34.021  0.7460E-03  0.5649E-03  0.1978E+00  0.1977E+00
     34.188  0.8416E-03  0.7343E-03  0.1979E+00  0.1978E+00
     34.355  0.3242E-03  0.6792E-03  0.1980E+00  0.1979E+00
     34.522  0.6193E-04  0.3394E-03  0.1980E+00  0.1980E+00
     34.689  0.5306E-04  0.6274E-04  0.1980E+00  0.1980E+00
     34.856  0.7950E-03  0.4680E-03  0.1981E+00  0.1981E+00
     35.022  0.1018E-02  0.9761E-03  0.1983E+00  0.1982E+00
     35.189  0.2809E-03  0.5835E-03  0.1983E+00  0.1983E+00
     35.356  0.3168E-06  0.1812E-03  0.1983E+00  0.1984E+00
     35.523  0.8732E-03  0.8058E-03  0.1985E+00  0.1985E+00
     35.690  0.1213E-02  0.1108E-02  0.1987E+00  0.1987E+00
     35.857  0.8020E-03  0.8715E-03  0.1988E+00  0.1988E+00
     36.024  0.5083E-03  0.5481E-03  0.1989E+00  0.1989E+00
     36.191  0.1442E-03  0.1429E-04  0.1989E+00  0.1989E+00
     36.358  0.5068E-03  0.3429E-03  0.1990E+00  0.1990E+00
     36.525  0.2936E-03  0.5585E-03  0.1991E+00  0.1991E+00
     36.692  0.2418E-03  0.3150E-03  0.1991E+00  0.1991E+00
     36.859  0.9909E-04  0.4193E-04  0.1991E+00  0.1991E+00
     37.025  0.8691E-04  0.5760E-04  0.1991E+00  0.1991E+00
     37.192  0.5202E-03  0.5018E-03  0.1992E+00  0.1992E+00
     37.359  0.2808E-03  0.3174E-03  0.1993E+00  0.1993E+00
     37.526 -0.5077E-04 -0.4716E-04  0.1993E+00  0.1993E+00
     37.693  0.5853E-04  0.1498E-03  0.1993E+00  0.1993E+00
     37.860  0.8221E-03  0.8563E-03  0.1994E+00  0.1994E+00
     38.027  0.7978E-03  0.7161E-03  0.1995E+00  0.1995E+00
     38.194  0.2149E-03  0.2784E-03  0.1996E+00  0.1996E+00
     38.361  0.2435E-03  0.1687E-03  0.1996E+00  0.1996E+00
     38.528  0.1991E-03  0.1413E-03  0.1997E+00  0.1996E+00
     38.695  0.1108E-03  0.1333E-03  0.1997E+00  0.1997E+00
     38.862 -0.5842E-05 -0.1473E-05  0.1997E+00  0.1997E+00
     39.029 -0.1366E-04 -0.3874E-05  0.1997E+00  0.1997E+00
     39.195  0.1372E-03  0.1907E-03  0.1997E+00  0.1997E+00
     39.362  0.2638E-03  0.2293E-03  0.1997E+00  0.1997E+00
     39.529  0.4788E-04  0.6559E-05  0.1997E+00  0.1997E+00
     39.696 -0.2202E-04  0.6957E-04  0.1997E+00  0.1998E+00
     39.863  0.1299E-03  0.2719E-03  0.1998E+00  0.1998E+00
     40.030  0.2635E-03  0.9661E-04  0.1998E+00  0.1998E+00
     40.197  0.4380E-04 -0.7634E-05  0.1998E+00  0.1998E+00
     40.364  0.8193E-04  0.1895E-03  0.1998E+00  0.1998E+00
     40.531  0.2596E-03  0.2528E-03  0.1999E+00  0.1999E+00
     40.698  0.1591E-03  0.2612E-03  0.1999E+00  0.1999E+00
     40.865  0.2593E-03  0.1598E-03  0.1999E+00  0.2000E+00
     41.032  0.1086E-03 -0.4970E-05  0.2000E+00  0.2000E+00
     41.198 -0.1180E-04 -0.5544E-05  0.2000E+00  0.2000E+00
     41.365 -0.3145E-05 -0.2349E-06  0.2000E+00  0.2000E+00
     41.532 -0.8905E-07 -0.1947E-08  0.2000E+00  0.2000E+00
     41.699 -0.5200E-09 -0.3642E-11  0.2000E+00  0.2000E+00
     41.866 -0.6953E-12 -0.2200E-13  0.2000E+00  0.2000E+00
     42.033 -0.6876E-12 -0.2743E-10  0.2000E+00  0.2000E+00
     42.200 -0.4755E-09 -0.8620E-08  0.2000E+00  0.2000E+00
     42.367 -0.7505E-07 -0.5937E-06  0.2000E+00  0.2000E+00
     42.534 -0.2417E-05 -0.6914E-05  0.2000E+00  0.2000E+00
     42.701 -0.7192E-05  0.1987E-04  0.2000E+00  0.2000E+00
     42.868  0.8272E-04  0.1636E-03  0.2000E+00  0.2000E+00
     43.035  0.1791E-03  0.1144E-03  0.2000E+00  0.2000E+00
     43.201  0.4125E-04 -0.2396E-05  0.2000E+00  0.2000E+00
     43.368 -0.8221E-05 -0.3804E-05  0.2000E+00  0.2000E+00
     43.535 -0.1099E-05 -0.1662E-06  0.2000E+00  0.2000E+00
     43.702 -0.2148E-07 -0.1417E-08  0.2000E+00  0.2000E+00
     43.869 -0.8980E-10 -0.2726E-11  0.2000E+00  0.2000E+00
     44.036 -0.8687E-13 -0.1239E-14  0.2000E+00  0.2000E+00
     44.203 -0.2002E-16 -0.1577E-18  0.2000E+00  0.2000E+00
     44.370  0.0000E+00  0.0000E+00  0.2000E+00  0.2000E+00
     44.537  0.0000E+00  0.0000E+00  0.2000E+00  0.2000E+00
     44.704  0.0000E+00  0.0000E+00  0.2000E+00  0.2000E+00
     44.871  0.0000E+00  0.0000E+00  0.2000E+00  0.2000E+00
     45.038  0.0000E+00  0.0000E+00  0.2000E+00  0.2000E+00
     45.205  0.0000E+00  0.0000E+00  0.2000E+00  0.2000E+00
     45.20451877     -4.87116684  301      5.84701554      1.00000000
     -4.871  0.0000E+00  0.0000E+00  0.0000E+00  0.0000E+00  0.0000E+00  0.0000E+00  0.0000E+00  0.0000E+00  0.0000E+00  0.0000E+00  0.0000E+00  0.0000E+00  0.0000E+00  0.0000E+00  0.0000E+00  0.0000E+00  0.0000E+00  0.0000E+00
     -4.704  0.0000E+00  0.0000E+00  0.0000E+00  0.0000E+00  0.0000E+00  0.0000E+00  0.0000E+00  0.0000E+00  0.0000E+00  0.0000E+00  0.0000E+00  0.0000E+00  0.0000E+00  0.0000E+00  0.0000E+00  0.0000E+00  0.0000E+00  0.0000E+00
     -4.537  0.0000E+00  0.0000E+00  0.0000E+00  0.0000E+00  0.0000E+00  0.0000E+00  0.0000E+00  0.0000E+00  0.0000E+00  0.0000E+00  0.0000E+00  0.0000E+00  0.0000E+00  0.0000E+00  0.0000E+00  0.0000E+00  0.0000E+00  0.0000E+00
     -4.370  0.0000E+00  0.0000E+00  0.0000E+00  0.0000E+00  0.0000E+00  0.0000E+00  0.0000E+00  0.0000E+00  0.0000E+00  0.0000E+00  0.0000E+00  0.0000E+00  0.0000E+00  0.0000E+00  0.0000E+00  0.0000E+00  0.0000E+00  0.0000E+00
     -4.203 -0.1202E-30  0.0000E+00 -0.1077E-35  0.0000E+00 -0.1077E-35  0.0000E+00 -0.1077E-35  0.0000E+00 -0.1853E-43  0.0000E+00 -0.1853E-43  0.0000E+00 -0.1198E-37  0.0000E+00 -0.1853E-43  0.0000E+00 -0.1198E-37  0.0000E+00
     -4.037 -0.3644E-25 -0.1944E-30 -0.7111E-30 -0.1740E-35 -0.7111E-30 -0.1740E-35 -0.7111E-30 -0.1740E-35 -0.3196E-34 -0.1278E-42 -0.3196E-34 -0.1278E-42 -0.7898E-32 -0.1358E-37 -0.3196E-34 -0.1278E-42 -0.7898E-32 -0.1358E-37
     -3.870 -0.2716E-20 -0.5600E-25 -0.1152E-24 -0.1095E-29 -0.1152E-24 -0.1095E-29 -0.1152E-24 -0.1095E-29 -0.1120E-28 -0.3461E-34 -0.1120E-28 -0.3461E-34 -0.1278E-26 -0.8539E-32 -0.1120E-28 -0.3461E-34 -0.1278E-26 -0.8539E-32
     -3.703 -0.4831E-16 -0.3968E-20 -0.4585E-20 -0.1692E-24 -0.4585E-20 -0.1692E-24 -0.4585E-20 -0.1692E-24 -0.9629E-24 -0.1161E-28 -0.9629E-24 -0.1161E-28 -0.5067E-22 -0.1317E-26 -0.9629E-24 -0.1161E-28 -0.5067E-22 -0.1317E-26
     -3.536 -0.2166E-12 -0.6705E-16 -0.4318E-16 -0.6420E-20 -0.4318E-16 -0.6420E-20 -0.4318E-16 -0.6420E-20 -0.1964E-19 -0.9553E-24 -0.1964E-19 -0.9553E-24 -0.4735E-18 -0.4980E-22 -0.1964E-19 -0.9553E-24 -0.4735E-18 -0.4980E-22
     -3.369 -0.2414E-09 -0.2855E-12 -0.1024E-12 -0.5761E-16 -0.1024E-12 -0.5761E-16 -0.1024E-12 -0.5761E-16 -0.9985E-16 -0.1867E-19 -0.9985E-16 -0.1867E-19 -0.1104E-14 -0.4434E-18 -0.9985E-16 -0.1867E-19 -0.1104E-14 -0.4434E-18
     -3.202 -0.6811E-07 -0.3023E-09 -0.5963E-10 -0.1302E-12 -0.5963E-10 -0.1302E-12 -0.5963E-10 -0.1302E-12 -0.1228E-12 -0.9074E-16 -0.1228E-12 -0.9074E-16 -0.6209E-12 -0.9850E-15 -0.1228E-12 -0.9074E-16 -0.6209E-12 -0.9850E-15
     -3.035 -0.4983E-05 -0.8108E-07 -0.8570E-08 -0.7224E-10 -0.8570E-08 -0.7224E-10 -0.8570E-08 -0.7224E-10 -0.3616E-10 -0.1068E-12 -0.3616E-10 -0.1068E-12 -0.8294E-10 -0.5272E-12 -0.3616E-10 -0.1068E-12 -0.8294E-10 -0.5272E-12
     -2.868 -0.9182E-04 -0.5638E-05 -0.2982E-06 -0.9889E-08 -0.2982E-06 -0.9889E-08 -0.2982E-06 -0.9889E-08 -0.2476E-08 -0.3005E-10 -0.2476E-08 -0.3005E-10 -0.2509E-08 -0.6691E-10 -0.2476E-08 -0.3005E-10 -0.2509E-08 -0.6691E-10
     -2.701 -0.2175E-03 -0.9833E-04 -0.2007E-05 -0.3270E-06 -0.2007E-05 -0.3270E-06 -0.2007E-05 -0.3270E-06 -0.3480E-07 -0.1963E-08 -0.3480E-07 -0.1963E-08 -0.1520E-07 -0.1912E-08 -0.3480E-07 -0.1963E-08 -0.1520E-07 -0.1912E-08
     -2.534  0.2361E-02 -0.1997E-03  0.4901E-05 -0.2046E-05  0.4901E-05 -0.2046E-05  0.4901E-05 -0.2046E-05 -0.2742E-07 -0.2605E-07 -0.2742E-07 -0.2605E-07 -0.4311E-07 -0.1065E-07 -0.2742E-07 -0.2605E-07 -0.4311E-07 -0.1065E-07
     -2.367  0.8331E-02  0.2537E-02  0.4144E-04  0.5690E-05  0.4144E-04  0.5690E-05  0.4144E-04  0.5690E-05  0.4265E-06 -0.1249E-07  0.4265E-06 -0.1249E-07  0.7735E-07 -0.2763E-07  0.4265E-06 -0.1249E-07  0.7735E-07 -0.2763E-07
     -2.200  0.1294E-01  0.8447E-02  0.1427E-03  0.4308E-04  0.1427E-03  0.4308E-04  0.1427E-03  0.4308E-04  0.2906E-05  0.3326E-06  0.2906E-05  0.3326E-06  0.3422E-05  0.7392E-07  0.2906E-05  0.3326E-06  0.3422E-05  0.7392E-07
     -2.034  0.1871E-01  0.1295E-01  0.2944E-03  0.1461E-03  0.2944E-03  0.1461E-03  0.2944E-03  0.1461E-03  0.9866E-05  0.2127E-05  0.9866E-05  0.2127E-05  0.6928E-05  0.2436E-05  0.9866E-05  0.2127E-05  0.6928E-05  0.2436E-05
     -1.867  0.1604E-01  0.1862E-01  0.3431E-03  0.2963E-03  0.3431E-03  0.2963E-03  0.3431E-03  0.2963E-03  0.1973E-04  0.6985E-05  0.1973E-04  0.6985E-05  0.9468E-05  0.4770E-05  0.1973E-04  0.6985E-05  0.9468E-05  0.4770E-05
     -1.700  0.2364E-01  0.1567E-01  0.6793E-03  0.3388E-03  0.6793E-03  0.3388E-03  0.6793E-03  0.3388E-03  0.3784E-04  0.1352E-04  0.3784E-04  0.1352E-04  0.4091E-04  0.6112E-05  0.3784E-04  0.1352E-04  0.4091E-04  0.6112E-05
     -1.533  0.2503E-01  0.2330E-01  0.8356E-03  0.6757E-03  0.8356E-03  0.6757E-03  0.8356E-03  0.6757E-03  0.6017E-04  0.2582E-04  0.6017E-04  0.2582E-04  0.5903E-04  0.2661E-04  0.6017E-04  0.2582E-04  0.5903E-04  0.2661E-04
     -1.366  0.2615E-01  0.2446E-01  0.1046E-02  0.8199E-03  0.1046E-02  0.8199E-03  0.1046E-02  0.8199E-03  0.1276E-03  0.3828E-04  0.1276E-03  0.3828E-04  0.6142E-04  0.3804E-04  0.1276E-03  0.3828E-04  0.6142E-04  0.3804E-04
     -1.199  0.2313E-01  0.2561E-01  0.1059E-02  0.1038E-02  0.1059E-02  0.1038E-02  0.1059E-02  0.1038E-02  0.1231E-03  0.8285E-04  0.1231E-03  0.8285E-04  0.9786E-04  0.3826E-04  0.1231E-03  0.8285E-04  0.9786E-04  0.3826E-04
     -1.032  0.3220E-01  0.2250E-01  0.1760E-02  0.1026E-02  0.1760E-02  0.1026E-02  0.1760E-02  0.1026E-02  0.2228E-03  0.7980E-04  0.2228E-03  0.7980E-04  0.2502E-03  0.5450E-04  0.2228E-03  0.7980E-04  0.2502E-03  0.5450E-04
     -0.865  0.3717E-01  0.2954E-01  0.2204E-02  0.1626E-02  0.2204E-02  0.1626E-02  0.2204E-02  0.1626E-02  0.3776E-03  0.1261E-03  0.3776E-03  0.1261E-03  0.3290E-03  0.1409E-03  0.3776E-03  0.1261E-03  0.3290E-03  0.1409E-03
     -0.698  0.2989E-01  0.3614E-01  0.1943E-02  0.2158E-02  0.1943E-02  0.2158E-02  0.1943E-02  0.2158E-02  0.4229E-03  0.2217E-03  0.4229E-03  0.2217E-03  0.2496E-03  0.1917E-03  0.4229E-03  0.2217E-03  0.2496E-03  0.1917E-03
     -0.531  0.2847E-01  0.3118E-01  0.2110E-02  0.2050E-02  0.2110E-02  0.2050E-02  0.2110E-02  0.2050E-02  0.5960E-03  0.2629E-03  0.5960E-03  0.2629E-03  0.3849E-03  0.1634E-03  0.5960E-03  0.2629E-03  0.3849E-03  0.1634E-03
     -0.364  0.4185E-01  0.2338E-01  0.3419E-02  0.1715E-02  0.3419E-02  0.1715E-02  0.3419E-02  0.1715E-02  0.8713E-03  0.2822E-03  0.8713E-03  0.2822E-03  0.9422E-03  0.1358E-03  0.8713E-03  0.2822E-03  0.9422E-03  0.1358E-03
     -0.197  0.4368E-01  0.3732E-01  0.3904E-02  0.3071E-02  0.3904E-02  0.3071E-02  0.3904E-02  0.3071E-02  0.1128E-02  0.4800E-03  0.1128E-02  0.4800E-03  0.1148E-02  0.4376E-03  0.1128E-02  0.4800E-03  0.1148E-02  0.4376E-03
     -0.031  0.3941E-01  0.4150E-01  0.3701E-02  0.3693E-02  0.3701E-02  0.3693E-02  0.3701E-02  0.3693E-02  0.1606E-02  0.5666E-03  0.1606E-02  0.5666E-03  0.1239E-02  0.5848E-03  0.1606E-02  0.5666E-03  0.1239E-02  0.5848E-03
      0.136  0.3877E-01  0.3831E-01  0.3929E-02  0.3672E-02  0.3929E-02  0.3672E-02  0.3929E-02  0.3672E-02  0.2229E-02  0.6932E-03  0.2229E-02  0.6932E-03  0.1409E-02  0.5990E-03  0.2229E-02  0.6932E-03  0.1409E-02  0.5990E-03
      0.303  0.4500E-01  0.3201E-01  0.5069E-02  0.3280E-02  0.5069E-02  0.3280E-02  0.5069E-02  0.3280E-02  0.2768E-02  0.9091E-03  0.2768E-02  0.9091E-03  0.2512E-02  0.5673E-03  0.2768E-02  0.9091E-03  0.2512E-02  0.5673E-03
      0.470  0.5342E-01  0.4025E-01  0.6473E-02  0.4443E-02  0.6473E-02  0.4443E-02  0.6473E-02  0.4443E-02  0.4005E-02  0.1363E-02  0.4005E-02  0.1363E-02  0.4492E-02  0.7647E-03  0.4005E-02  0.1363E-02  0.4492E-02  0.7647E-03
      0.637  0.5630E-01  0.3809E-01  0.7162E-02  0.4639E-02  0.7162E-02  0.4639E-02  0.7162E-02  0.4639E-02  0.6013E-02  0.1148E-02  0.6013E-02  0.1148E-02  0.4929E-02  0.1179E-02  0.6013E-02  0.1148E-02  0.4929E-02  0.1179E-02
      0.804  0.5723E-01  0.4548E-01  0.7022E-02  0.5937E-02  0.7022E-02  0.5937E-02  0.7022E-02  0.5937E-02  0.1102E-01  0.1797E-02  0.1102E-01  0.1797E-02  0.7168E-02  0.1952E-02  0.1102E-01  0.1797E-02  0.7168E-02  0.1952E-02
      0.971  0.7450E-01  0.4966E-01  0.8769E-02  0.6754E-02  0.8769E-02  0.6754E-02  0.8769E-02  0.6754E-02  0.2891E-01  0.2651E-02  0.2891E-01  0.2651E-02  0.2813E-01  0.2057E-02  0.2891E-01  0.2651E-02  0.2813E-01  0.2057E-02
      1.138  0.1050E+00  0.4326E-01  0.1303E-01  0.6189E-02  0.1303E-01  0.6189E-02  0.1303E-01  0.6189E-02  0.5190E-01  0.2916E-02  0.5190E-01  0.2916E-02  0.7292E-01  0.1949E-02  0.5190E-01  0.2916E-02  0.7292E-01  0.1949E-02
      1.305  0.8516E-01  0.3633E-01  0.1158E-01  0.5406E-02  0.1158E-01  0.5406E-02  0.1158E-01  0.5406E-02  0.5523E-01  0.3337E-02  0.5523E-01  0.3337E-02  0.1052E+00  0.2262E-02  0.5523E-01  0.3337E-02  0.1052E+00  0.2262E-02
      1.472  0.8142E-01  0.5316E-01  0.1541E-01  0.8755E-02  0.1541E-01  0.8755E-02  0.1541E-01  0.8755E-02  0.6052E-01  0.5159E-02  0.6052E-01  0.5159E-02  0.1498E+00  0.4310E-02  0.6052E-01  0.5159E-02  0.1498E+00  0.4310E-02
      1.639  0.7967E-01  0.5607E-01  0.2062E-01  0.9755E-02  0.2062E-01  0.9755E-02  0.2062E-01  0.9755E-02  0.6688E-01  0.6067E-02  0.6688E-01  0.6067E-02  0.2216E+00  0.5985E-02  0.6688E-01  0.6067E-02  0.2216E+00  0.5985E-02
      1.806  0.6236E-01  0.5267E-01  0.2095E-01  0.9277E-02  0.2095E-01  0.9277E-02  0.2095E-01  0.9277E-02  0.6952E-01  0.8031E-02  0.6952E-01  0.8031E-02  0.2263E+00  0.6897E-02  0.6952E-01  0.8031E-02  0.2263E+00  0.6897E-02
      1.973  0.3990E-01  0.5817E-01  0.1448E-01  0.1029E-01  0.1448E-01  0.1029E-01  0.1448E-01  0.1029E-01  0.7350E-01  0.1275E-01  0.7350E-01  0.1275E-01  0.1508E+00  0.8418E-02  0.7350E-01  0.1275E-01  0.1508E+00  0.8418E-02
      2.139  0.1918E-01  0.6200E-01  0.9231E-02  0.1009E-01  0.9231E-02  0.1009E-01  0.9231E-02  0.1009E-01  0.6209E-01  0.2009E-01  0.6209E-01  0.2009E-01  0.1012E+00  0.1455E-01  0.6209E-01  0.2009E-01  0.1012E+00  0.1455E-01
      2.306  0.9931E-02  0.7401E-01  0.8879E-02  0.1254E-01  0.8879E-02  0.1254E-01  0.8879E-02  0.1254E-01  0.5467E-01  0.3118E-01  0.5467E-01  0.3118E-01  0.9315E-01  0.2593E-01  0.5467E-01  0.3118E-01  0.9315E-01  0.2593E-01
      2.473  0.2975E-02  0.8536E-01  0.1592E-01  0.1522E-01  0.1592E-01  0.1522E-01  0.1592E-01  0.1522E-01  0.1961E+00  0.4121E-01  0.1961E+00  0.4121E-01  0.1191E+00  0.3370E-01  0.1961E+00  0.4121E-01  0.1191E+00  0.3370E-01
      2.640  0.3299E-02  0.6445E-01  0.2222E-01  0.1182E-01  0.2222E-01  0.1182E-01  0.2222E-01  0.1182E-01  0.3402E+00  0.3916E-01  0.3402E+00  0.3916E-01  0.1600E+00  0.2905E-01  0.3402E+00  0.3916E-01  0.1600E+00  0.2905E-01
      2.807  0.5917E-02  0.6046E-01  0.1623E-01  0.1388E-01  0.1623E-01  0.1388E-01  0.1623E-01  0.1388E-01  0.2693E+00  0.4127E-01  0.2693E+00  0.4127E-01  0.1281E+00  0.4005E-01  0.2693E+00  0.4127E-01  0.1281E+00  0.4005E-01
      2.974  0.9213E-02  0.5855E-01  0.1780E-01  0.1647E-01  0.1780E-01  0.1647E-01  0.1780E-01  0.1647E-01  0.2231E+00  0.4258E-01  0.2231E+00  0.4258E-01  0.1027E+00  0.7534E-01  0.2231E+00  0.4258E-01  0.1027E+00  0.7534E-01
      3.141  0.1289E-01  0.5049E-01  0.2602E-01  0.1869E-01  0.2602E-01  0.1869E-01  0.2602E-01  0.1869E-01  0.2458E+00  0.4655E-01  0.2458E+00  0.4655E-01  0.1060E+00  0.1213E+00  0.2458E+00  0.4655E-01  0.1060E+00  0.1213E+00
      3.308  0.1890E-01  0.4219E-01  0.3426E-01  0.1956E-01  0.3426E-01  0.1956E-01  0.3426E-01  0.1956E-01  0.3108E+00  0.4861E-01  0.3108E+00  0.4861E-01  0.1302E+00  0.1527E+00  0.3108E+00  0.4861E-01  0.1302E+00  0.1527E+00
      3.475  0.1849E-01  0.2913E-01  0.3060E-01  0.1575E-01  0.3060E-01  0.1575E-01  0.3060E-01  0.1575E-01  0.2996E+00  0.5184E-01  0.2996E+00  0.5184E-01  0.1263E+00  0.1248E+00  0.2996E+00  0.5184E-01  0.1263E+00  0.1248E+00