    2    2  100    2
  0.1173411E+02  0.2863035E-09  0.2863035E-09  0.2863035E-09  0.5000000E-15
  1.000000000000000E-004
  CAR 
 unknown system                          
     16    120     20
 
  0.0000000E+00  0.0000000E+00  0.0000000E+00  0.2962963E-03
    1       -2.594999     -2.434121   1.000000   1.000000
    2        0.989722      2.803355   1.000000   1.000000
    3        0.989722      2.803495   1.000000   1.000000
    4        3.543741      5.443084   1.000000   1.007499
    5        3.543742      5.443217   1.000000   1.007515
    6        3.543742      5.443227   1.000000   1.007516
    7        4.757989      7.503382   1.000000  -0.000000
    8        4.757990      7.503545   1.000000  -0.000000
    9        5.971209      8.144387   0.070799  -0.000000
   10        5.971210      8.144511   0.070796  -0.000000
   11        5.971210      8.144523   0.070796  -0.000000
   12       15.805385     16.069792   0.000000   0.000000
   13       15.805385     16.069792   0.000000   0.000000
   14       15.805385     16.069795   0.000000   0.000000
   15       21.524532     22.575586   0.000000   0.000000
   16       21.524533     22.575599   0.000000   0.000000
   17       26.669500     27.768823   0.000000   0.000000
   18       30.898993     30.641050   0.000000   0.000000
   19       30.898993     30.641050   0.000000   0.000000
   20       30.898993     30.641050   0.000000   0.000000
 
  0.6666667E-01  0.1540744E-32  0.0000000E+00  0.1777778E-02
    1       -2.502426     -2.341147   1.000000   1.000000
    2        1.029233      2.836698   1.000000   1.000000
    3        1.030927      2.850309   1.000000   1.000000
    4        3.543004      5.438905   1.000000   1.006997
    5        3.543005      5.439048   1.000000   1.007014
    6        3.569118      5.471183   1.000000   1.011579
    7        4.716645      7.449501   1.000000  -0.000000
    8        4.774407      7.524232   1.000000  -0.000000
    9        5.892737      8.040775   0.312030  -0.000000
   10        5.892738      8.040910   0.312023  -0.000000
   11        5.943581      8.113458   0.139480  -0.000000
   12       15.134416     15.515546   0.000000   0.000000
   13       15.980976     16.271239   0.000000   0.000000
   14       15.980977     16.271240   0.000000   0.000000
   15       21.551139     22.594027   0.000000   0.000000
   16       22.031072     22.983766   0.000000   0.000000
   17       26.969544     28.054038   0.000000   0.000000
   18       30.265496     30.090060   0.000000   0.000000
   19       30.818251     30.600181   0.000000   0.000000
   20       30.818251     30.600182   0.000000   0.000000
 
  0.1333333E+00  0.0000000E+00  0.0000000E+00  0.1777778E-02
    1       -2.228375     -2.065314   1.000000   1.000000
    2        1.146359      2.924749   1.000000   1.000000
    3        1.147100      2.989709   1.000000   1.000000
    4        3.543382      5.429646   1.000000   1.005978
    5        3.543383      5.429789   1.000000   1.005993
    6        3.644346      5.554103   1.000000   1.029199
    7        4.594239      7.290052   1.000000  -0.000000
    8        4.822406      7.583679   1.000000  -0.000000
    9        5.676934      7.763030   1.001843  -0.000000
   10        5.676935      7.763162   1.001842  -0.000000
   11        5.862069      8.021880   0.436502  -0.000000
   12       13.661112     14.245230   0.000000   0.000000
   13       16.487311     16.841596   0.000000   0.000000
   14       16.487312     16.841599   0.000000   0.000000
   15       21.632549     22.650956   0.000000   0.000000
   16       22.912337     23.733622   0.000000   0.000000
   17       27.978051     28.951206   0.000000   0.000000
   18       28.999323     29.006157   0.000000   0.000000
   19       30.459351     30.385014   0.000000   0.000000
   20       30.459351     30.385017   0.000000   0.000000
 
  0.2000000E+00 -0.6162976E-32  0.0000000E+00  0.1777778E-02
    1       -1.784636     -1.616274   1.000000   1.000000
    2        1.315083      3.030871   1.000000   1.000000
    3        1.336936      3.217386   1.000000   1.000000
    4        3.552068      5.424383   1.000000   1.005453
    5        3.552069      5.424524   1.000000   1.005467
    6        3.766412      5.688723   1.000000   0.987831
    7        4.395398      7.031827   1.000000  -0.000000
    8        4.899492      7.383368   1.000000  -0.000000
    9        5.370326      7.383499   1.001918  -0.000000
   10        5.370327      7.674368   1.001918  -0.000000
   11        5.730583      7.874285   0.911849  -0.000000
   12       11.970827     12.767002   0.000000   0.000000
   13       17.275023     17.705567   0.000000   0.000000
   14       17.275023     17.705571   0.000000   0.000000
   15       21.773500     22.751144   0.000000   0.000000
   16       23.552786     24.294254   0.000000   0.000000
   17       27.673735     27.745473   0.000000   0.000000
   18       29.618978     29.784541   0.000000   0.000000
   19       29.618979     29.784546   0.000000   0.000000
   20       29.753730     30.691167   0.000000   0.000000
 
  0.2666667E+00  0.0000000E+00  0.0000000E+00  0.1777778E-02
    1       -1.193616     -1.011213   1.000000   1.000000
    2        1.494501      3.090279   1.000000   1.000000
    3        1.593895      3.526090   1.000000   1.000000
    4        3.579793      5.436654   1.000000   1.006738
    5        3.579794      5.436793   1.000000   1.006754
    6        3.930690      5.870117   1.000000   0.402970
    7        4.128244      6.686552   1.000000  -0.000000
    8        5.006493      6.971246   1.000000  -0.000000
    9        5.024108      6.971376   1.000000  -0.000000
   10        5.024109      7.677930   1.000000  -0.000000
   11        5.555442      7.787221   1.029483  -0.000000
   12       10.300819     11.344679  -0.000000   0.000000
   13       18.287799     18.788089   0.000000   0.000000
   14       18.287800     18.788094   0.000000   0.000000
   15       21.981778     22.902529   0.000000   0.000000
   16       23.973827     24.648031   0.000000   0.000000
   17       26.456570     26.646879   0.000000   0.000000
   18       28.345299     28.726054   0.000000   0.000000
   19       28.345300     28.726061   0.000000   0.000000
   20       30.151636     30.571721   0.000000   0.000000
 
  0.3333333E+00  0.0000000E+00  0.0000000E+00  0.1777778E-02
    1       -0.494362     -0.277612   1.000000   1.000000
    2        1.625210      3.012151   1.000000   1.000000
    3        1.907344      3.905419   1.000000   1.000000
    4        3.638705      5.481690   1.000000   1.013429
    5        3.638705      5.481828   1.000000   1.013454
    6        3.804498      6.091370   1.000000  -0.035457
    7        4.130746      6.270923   1.000000  -0.005331
    8        4.680130      6.576080   1.000000  -0.000002
    9        4.680131      6.576210   1.000000  -0.000002
   10        5.155242      7.442361   1.000006  -0.000000
   11        5.344988      7.915848   1.001107  -0.000000
   12        8.764953     10.128203  -0.000000  -0.000000
   13       19.476371     20.031539   0.000000   0.000000
   14       19.476372     20.031542   0.000000   0.000000
   15       22.268173     23.116343   0.000000   0.000000
   16       24.353075     24.954850   0.000000   0.000000
   17       25.392613     25.703362   0.000000   0.000000
   18       26.854188     27.366074   0.000000   0.000000
   19       26.854189     27.366080   0.000000   0.000000
   20       28.653236     29.062515   0.000000   0.000000
 
  0.4000000E+00  0.0000000E+00  0.0000000E+00  0.1777778E-02
    1        0.246273      0.541618   1.000000   1.000000
    2        1.625046      2.704962   1.000000   1.000000
    3        2.264608      4.341616   1.000000   1.000000
    4        3.438733      5.573881   1.000000   1.032950
    5        3.740161      5.574018   1.000000   1.032972
    6        3.740162      5.805384   1.000000   0.671998
    7        4.358568      6.227812   1.000000  -0.010767
    8        4.367110      6.227943   1.000000  -0.010746
    9        4.367111      6.343809   1.000000  -0.001244
   10        5.109047      7.178760   1.000001  -0.000000
   11        5.384398      8.067179   1.002562  -0.000000
   12        7.451785      9.214580  -0.000000  -0.000000
   13       20.801529     21.394034   0.000000   0.000000
   14       20.801530     21.394036   0.000000   0.000000
   15       22.646149     23.406988   0.000000   0.000000
   16       24.489521     24.921186   0.000000   0.000000
   17       24.816451     25.346361   0.000000   0.000000
   18       25.293928     25.873908   0.000000   0.000000
   19       25.293929     25.873912   0.000000   0.000000
   20       27.353741     27.762852   0.000000   0.000000
 
  0.4666667E+00 -0.1232595E-31  0.0000000E+00  0.1777778E-02
    1        0.921622      1.379641   1.000000   1.000000
    2        1.403915      2.138521   1.000000   1.000000
    3        2.650531      4.817570   1.000000   1.000000
    4        3.047997      5.313033   1.000000   1.000524
    5        3.892963      5.724844   1.000000   0.924828
    6        3.892964      5.724978   1.000000   0.924533
    7        4.102153      5.942244   1.000000   0.143285
    8        4.102154      5.942377   1.000000   0.142905
    9        4.604639      6.616992   1.000000  -0.000000
   10        4.858492      6.899419   1.000000  -0.000000
   11        5.776490      8.276677   0.778846  -0.000000
   12        6.444260      8.622791  -0.000101  -0.000000
   13       22.231753     22.842919   0.000000   0.000000
   14       22.231754     22.842919   0.000000   0.000000
   15       23.131274     23.791710   0.000000   0.000000
   16       23.739148     24.289810   0.000000   0.000000
   17       23.739149     24.348017   0.000000   0.000000
   18       23.740265     24.348019   0.000000   0.000000
   19       25.443439     25.912650   0.000000   0.000000
   20       26.282174     26.710178   0.000000   0.000000
 
  0.6666667E-01  0.6666667E-01  0.0000000E+00  0.3555556E-02
    1       -2.410566     -2.248790   1.000000   1.000000
    2        1.067950      2.878355   1.000000   1.000000
    3        1.072270      2.888127   1.000000   1.000000
    4        3.493426      5.382585   1.000000   1.002470
    5        3.539776      5.432206   1.000000   1.006248
    6        3.643073      5.551282   1.000000   1.028592
    7        4.708403      7.437270   1.000000  -0.000000
    8        4.762123      7.508102   1.000000  -0.000000
    9        5.753051      7.871409   0.853077  -0.000000
   10        5.814372      7.937627   0.636106  -0.000000
   11        5.982741      8.157375   0.047811  -0.000000
   12       15.152045     15.573195   0.000000   0.000000
   13       15.448673     15.840616   0.000000   0.000000
   14       16.151179     16.463829   0.000000   0.000000
   15       21.812131     22.801239   0.000000   0.000000
   16       22.346456     23.242949   0.000000   0.000000
   17       27.244640     28.318178   0.000000   0.000000
   18       29.704071     29.630549   0.000000   0.000000
   19       30.622890     30.424124   0.000000   0.000000
   20       30.768422     30.578937   0.000000   0.000000
 
  0.1333333E+00  0.6666667E-01  0.0000000E+00  0.7111111E-02
    1       -2.138740     -1.974824   1.000000   1.000000
    2        1.179675      2.970371   1.000000   1.000000
    3        1.191657      3.021097   1.000000   1.000000
    4        3.453958      5.331573   1.000000   1.000814
    5        3.532850      5.415633   1.000000   1.004662
    6        3.757237      5.675367   1.000000   1.003484
    7        4.607745      7.303176   1.000000  -0.000000
    8        4.801389      7.556266   1.000000  -0.000000
    9        5.499325      7.558932   1.016904  -0.000000
   10        5.599691      7.662931   1.035437  -0.000000
   11        5.953498      8.122638   0.112622  -0.000000
   12       13.779127     14.387108   0.000000   0.000000
   13       15.809803     16.278708   0.000000   0.000000
   14       16.643568     17.012587   0.000000   0.000000
   15       21.980949     22.930511   0.000000   0.000000
   16       23.248971     24.020686   0.000000   0.000000
   17       28.185265     28.493822   0.000000   0.000000
   18       28.428591     29.212027   0.000000   0.000000
   19       30.168173     30.091093   0.000000   0.000000
   20       30.488383     30.417625   0.000000   0.000000
 
  0.2000000E+00  0.6666667E-01  0.0000000E+00  0.7111111E-02
    1       -1.699203     -1.529130   1.000000   1.000000
    2        1.349483      3.077355   1.000000   1.000000
    3        1.375987      3.242343   1.000000   1.000000
    4        3.436552      5.300196   1.000000   1.000382
    5        3.528376      5.398164   1.000000   1.003360
    6        3.903951      5.835199   1.000000   0.549903
    7        4.430073      7.065337   1.000000  -0.000000
    8        4.880007      7.173913   1.000000  -0.000000
    9        5.180306      7.293298   1.000013  -0.000000
   10        5.297602      7.649487   1.000358  -0.000000
   11        5.852981      8.006565   0.474769  -0.000000
   12       12.085897     12.899243   0.000000   0.000000
   13       16.531697     17.078588   0.000000   0.000000
   14       17.413421     17.851280   0.000000   0.000000
   15       22.159504     23.062667   0.000000   0.000000
   16       23.979959     24.671932   0.000000   0.000000
   17       27.034617     27.228378   0.000000   0.000000
   18       29.281327     29.397339   0.000000   0.000000
   19       29.705560     29.868600   0.000000   0.000000
   20       29.891825     30.833324   0.000000   0.000000
 
  0.2666667E+00  0.6666667E-01  0.0000000E+00  0.7111111E-02
    1       -1.115117     -0.929244   1.000000   1.000000
    2        1.530425      3.135686   1.000000   1.000000
    3        1.623492      3.541101   1.000000   1.000000
    4        3.446880      5.295783   1.000000   1.000342
    5        3.528427      5.390338   1.000000   1.002884
    6        4.083189      6.031466   1.000000  -0.015064
    7        4.202371      6.750409   1.000000  -0.000000
    8        4.834283      6.767976   1.000000  -0.000000
    9        4.962624      6.904295   1.000000  -0.000000
   10        4.988665      7.766007   1.000000  -0.000000
   11        5.696524      7.828390   0.976865  -0.000000
   12       10.409151     11.460973  -0.000000   0.000000
   13       17.449121     18.065909   0.000000   0.000000
   14       18.408345     18.910745   0.000000   0.000000
   15       22.409945     23.250719   0.000000   0.000000
   16       24.487251     25.117091   0.000000   0.000000
   17       25.694285     26.018206   0.000000   0.000000
   18       28.072638     28.339169   0.000000   0.000000
   19       28.436999     28.821063   0.000000   0.000000
   20       31.215063     31.621507   0.000000   0.000000
 
  0.3333333E+00  0.6666667E-01  0.0000000E+00  0.7111111E-02
    1       -0.426627     -0.203099   1.000000   1.000000
    2        1.658483      3.053587   1.000000   1.000000
    3        1.926103      3.905214   1.000000   1.000000
    4        3.493521      5.329389   1.000000   1.000774
    5        3.499520      5.393297   1.000000   1.003057
    6        3.981866      6.261009   1.000000  -0.006336
    7        4.291799      6.382049   1.000000  -0.000511
    8        4.495629      6.389380   1.000000  -0.000427
    9        4.640998      6.551528   1.000000  -0.000004
   10        5.139288      7.603853   1.000003  -0.000000
   11        5.497673      7.898106   1.016561  -0.000000
   12        8.861729     10.219018  -0.000000  -0.000000
   13       18.501569     19.170401   0.000000   0.000000
   14       19.581240     20.135532   0.000000   0.000000
   15       22.754278     23.516467   0.000000   0.000000
   16       24.430133     24.885260   0.000000   0.000000
   17       24.956126     25.522377   0.000000   0.000000
   18       26.793481     27.144539   0.000000   0.000000
   19       26.937142     27.452178   0.000000   0.000000
   20       29.733214     30.156119   0.000000   0.000000
 
  0.4000000E+00  0.6666667E-01  0.0000000E+00  0.7111111E-02
    1        0.298777      0.606101   1.000000   1.000000
    2        1.652829      2.743175   1.000000   1.000000
    3        2.269305      4.317319   1.000000   1.000000
    4        3.321763      5.361868   1.000000   1.001603
    5        3.585528      5.412809   1.000000   1.004427
    6        3.909584      6.043021   1.000000  -0.022929
    7        4.189634      6.060073   1.000000  -0.030643
    8        4.365847      6.264443   1.000000  -0.005972
    9        4.523758      6.517339   1.000000  -0.000011
   10        5.269096      7.347233   1.000171  -0.000000
   11        5.375286      8.054171   1.002127  -0.000000
   12        7.527981      9.269954  -0.000000  -0.000000
   13       19.639543     20.336758   0.000000   0.000000
   14       20.893811     21.484155   0.000000   0.000000
   15       23.216399     23.789622   0.000000   0.000000
   16       23.216578     23.886597   0.000000   0.000000
   17       25.371719     25.952481   0.000000   0.000000
   18       25.522321     26.024807   0.000000   0.000000
   19       25.614157     26.029837   0.000000   0.000000
   20       28.384762     28.814621   0.000000   0.000000
 
  0.4666667E+00  0.6666667E-01  0.0000000E+00  0.7111111E-02
    1        0.957280      1.432218   1.000000   1.000000
    2        1.429886      2.180561   1.000000   1.000000
    3        2.635445      4.750028   1.000000   1.000000
    4        3.000737      5.144400   1.000000   1.000004
    5        3.730389      5.556177   1.000000   1.029637
    6        3.932069      5.765856   1.000000   0.814071
    7        3.994395      5.943206   1.000000   0.140543
    8        4.151458      6.051074   1.000000  -0.027107
    9        4.770720      6.791292   1.000000  -0.000000
   10        5.022888      7.072053   1.000000  -0.000000
   11        5.787506      8.274237   0.739873  -0.000000
   12        6.488668      8.643074  -0.000028  -0.000000
   13       20.822177     21.517991   0.000000   0.000000
   14       22.018800     22.675162   0.000000   0.000000
   15       22.315004     22.923963   0.000000   0.000000
   16       23.817317     24.398854   0.000000   0.000000
   17       23.826678     24.425004   0.000000   0.000000
   18       24.618796     25.100303   0.000000   0.000000
   19       26.264636     26.728584   0.000000   0.000000
   20       27.218934     27.658686   0.000000   0.000000
 
  0.1333333E+00  0.1333333E+00  0.0000000E+00  0.3555556E-02
    1       -1.874171     -1.706785   1.000000   1.000000
    2        1.275396      3.103598   1.000000   1.000000
    3        1.319870      3.104331   1.000000   1.000000
    4        3.353051      5.214036   1.000000   1.000036
    5        3.506721      5.378975   1.000000   1.002295
    6        3.930249      5.864385   1.000000   0.426810
    7        4.608434      7.196439   1.000000  -0.000000
    8        4.775646      7.289345   1.000000  -0.000000
    9        5.192356      7.401914   1.000019  -0.000000
   10        5.391021      7.523937   1.002923  -0.000000
   11        6.015483      8.193892  -0.000100  -0.000000
   12       13.761866     14.433460   0.000000   0.000000
   13       14.736866     15.388670   0.000000   0.000000
   14       17.099233     17.506963   0.000000   0.000000
   15       22.323186     23.206808   0.000000   0.000000
   16       24.249199     24.902235   0.000000   0.000000
   17       27.114014     27.341900   0.000000   0.000000
   18       28.917984     29.605426   0.000000   0.000000
   19       29.650114     29.927949   0.000000   0.000000
   20       30.462517     30.428084   0.000000   0.000000
 
  0.2000000E+00  0.1333333E+00  0.0000000E+00  0.7111111E-02
    1       -1.448270     -1.271649   1.000000   1.000000
    2        1.420597      3.201623   1.000000   1.000000
    3        1.514687      3.316320   1.000000   1.000000
    4        3.280031      5.123345   1.000000   1.000002
    5        3.475702      5.332131   1.000000   1.000825
    6        4.127707      6.080124   1.000000  -0.034873
    7        4.509912      6.788758   1.000000  -0.000000
    8        4.830554      7.067002   1.000000  -0.000000
    9        4.842910      7.141429   1.000000  -0.000000
   10        5.106028      7.588138   1.000001  -0.000000
   11        5.995756      8.169726   0.025790  -0.000000
   12       12.345958     13.191553   0.000000   0.000000
   13       15.089499     15.821842   0.000000   0.000000
   14       17.820712     18.278947   0.000000   0.000000
   15       22.543694     23.372354   0.000000   0.000000
   16       25.247798     25.816403   0.000000   0.000000
   17       25.625467     25.983020   0.000000   0.000000
   18       28.837433     28.893896   0.000000   0.000000
   19       29.942407     30.090842   0.000000   0.000000
   20       30.373028     31.323755   0.000000   0.000000
 
  0.2666667E+00  0.1333333E+00  0.0000000E+00  0.7111111E-02
    1       -0.887083     -0.688254   1.000000   1.000000
    2        1.582620      3.245620   1.000000   1.000000
    3        1.756594      3.595855   1.000000   1.000000
    4        3.243603      5.070216   1.000000   1.000000
    5        3.441013      5.285214   1.000000   1.000261
    6        4.345955      6.319041   1.000000  -0.002114
    7        4.358686      6.380764   1.000000  -0.000527
    8        4.486327      6.746847   1.000000  -0.000000
    9        4.807266      6.903958   1.000000  -0.000000
   10        4.938463      7.707159   1.000000  -0.000000
   11        5.902313      8.060640   0.275638  -0.000000
   12       10.682452     11.743889  -0.000000   0.000000
   13       15.881545     16.664286   0.000000   0.000000
   14       18.765827     19.274801   0.000000   0.000000
   15       22.786385     23.549017   0.000000   0.000000
   16       24.157171     24.630370   0.000000   0.000000
   17       25.988484     26.510658   0.000000   0.000000
   18       27.777800     27.939097   0.000000   0.000000
   19       28.708600     29.101958   0.000000   0.000000
   20       32.480017     33.345662   0.000000   0.000000
 
  0.3333333E+00  0.1333333E+00  0.0000000E+00  0.7111111E-02
    1       -0.234933      0.013740   1.000000   1.000000
    2        1.696971      3.145410   1.000000   1.000000
    3        2.034618      3.927063   1.000000   1.000000
    4        3.251966      5.064727   1.000000   1.000000
    5        3.374146      5.233425   1.000000   1.000064
    6        4.150228      6.004172   1.000000   0.013680
    7        4.227786      6.506713   1.000000  -0.000016
    8        4.549990      6.577884   1.000000  -0.000002
    9        4.581451      6.638441   1.000000  -0.000000
   10        5.092179      7.846707   1.000001  -0.000000
   11        5.749429      7.884812   0.863397  -0.000000
   12        9.113549     10.447704  -0.000000  -0.000000
   13       16.822471     17.631890   0.000000   0.000000
   14       19.893750     20.446179   0.000000   0.000000
   15       22.754201     23.331883   0.000000   0.000000
   16       23.100178     23.782887   0.000000   0.000000
   17       26.637883     26.911050   0.000000   0.000000
   18       26.665795     27.121731   0.000000   0.000000
   19       27.180739     27.705723   0.000000   0.000000
   20       31.635767     32.047442   0.000000   0.000000
 
  0.4000000E+00  0.1333333E+00  0.0000000E+00  0.7111111E-02
    1        0.437827      0.789737   1.000000   1.000000
    2        1.679636      2.827667   1.000000   1.000000
    3        2.341467      4.288191   1.000000   1.000000
    4        3.219381      5.116741   1.000000   1.000002
    5        3.312896      5.140530   1.000000   1.000004
    6        3.854977      5.680450   1.000000   0.997975
    7        4.182382      6.365314   1.000000  -0.000762
    8        4.371270      6.412295   1.000000  -0.000238
    9        4.828489      6.850806   1.000000  -0.000000
   10        5.347503      7.660300   1.001171  -0.000000
   11        5.552019      8.014859   1.028751  -0.000000
   12        7.730884      9.413746  -0.000000  -0.000000
   13       17.861733     18.671583   0.000000   0.000000
   14       21.169279     21.753800   0.000000   0.000000
   15       21.424196     22.090824   0.000000   0.000000
   16       23.516328     24.108483   0.000000   0.000000
   17       25.600582     25.963758   0.000000   0.000000
   18       25.641273     26.183741   0.000000   0.000000
   19       27.346926     27.797004   0.000000   0.000000
   20       30.353792     30.762772   0.000000   0.000000
 
  0.4666667E+00  0.1333333E+00  0.0000000E+00  0.7111111E-02
    1        1.035251      1.575000   1.000000   1.000000
    2        1.464524      2.284384   1.000000   1.000000
    3        2.661227      4.645570   1.000000   1.000000
    4        2.967241      4.947396   1.000000   1.000000
    5        3.432391      5.234195   1.000000   1.000065
    6        3.613536      5.422040   1.000000   1.005231
    7        4.212327      6.296571   1.000000  -0.003315
    8        4.270775      6.297192   1.000000  -0.003275
    9        5.079302      7.129549   1.000000  -0.000000
   10        5.324313      7.403651   1.000687  -0.000000
   11        5.819507      8.264165   0.615187  -0.000000
   12        6.611792      8.695909  -0.000000  -0.000000
   13       18.978662     19.763394   0.000000   0.000000
   14       20.166296     20.902602   0.000000   0.000000
   15       22.562912     23.165678   0.000000   0.000000
   16       24.048807     24.561632   0.000000   0.000000
   17       24.064202     24.653080   0.000000   0.000000
   18       24.768712     25.174586   0.000000   0.000000
   19       28.190508     28.616183   0.000000   0.000000
   20       29.194707     29.607304   0.000000   0.000000
 
  0.2000000E+00  0.2000000E+00  0.0000000E+00  0.3555556E-02
    1       -1.048877     -0.855875   1.000000   1.000000
    2        1.517507      3.313255   1.000000   1.000000
    3        1.731477      3.479881   1.000000   1.000000
    4        3.150808      4.972646   1.000000   1.000000
    5        3.426036      5.252150   1.000000   1.000108
    6        4.372499      6.349145   1.000000  -0.001104
    7        4.475239      6.370483   1.000000  -0.000675
    8        4.564139      6.801037   1.000000  -0.000000
    9        4.800610      7.174043   1.000000  -0.000000
   10        4.858316      7.555283   1.000000  -0.000000
   11        6.064003      8.248037  -0.031845  -0.000000
   12       12.190007     13.072234   0.000000   0.000000
   13       14.100043     15.008014   0.000000   0.000000
   14       18.475508     18.963004   0.000000   0.000000
   15       22.763082     23.529897   0.000000   0.000000
   16       24.053743     24.532155   0.000000   0.000000
   17       26.695587     27.150819   0.000000   0.000000
   18       28.217473     28.279774   0.000000   0.000000
   19       30.121694     30.253500   0.000000   0.000000
   20       31.391385     32.334881   0.000000   0.000000
 
  0.2666667E+00  0.2000000E+00  0.0000000E+00  0.7111111E-02
    1       -0.533541     -0.303465   1.000000   1.000000
    2        1.613457      3.320237   1.000000   1.000000
    3        1.997938      3.742933   1.000000   1.000000
    4        3.062796      4.865011   1.000000   1.000000
    5        3.396036      5.178469   1.000000   1.000012
    6        4.114630      5.965524   1.000000   0.083359
    7        4.518860      6.591521   1.000000  -0.000001
    8        4.624493      6.631184   1.000000  -0.000000
    9        4.628566      7.072650   1.000000  -0.000000
   10        4.870425      7.631868   1.000000  -0.000000
   11        6.050865      8.231447  -0.027011  -0.000000
   12       10.925473     11.971754  -0.000000   0.000000
   13       14.405977     15.363388   0.000000   0.000000
   14       19.348342     19.868568   0.000000   0.000000
   15       22.509719     23.090539   0.000000   0.000000
   16       22.977655     23.672363   0.000000   0.000000
   17       27.373042     27.480862   0.000000   0.000000
   18       27.839604     28.240129   0.000000   0.000000
   19       29.149540     29.556373   0.000000   0.000000
   20       31.417333     31.979442   0.000000   0.000000
 
  0.3333333E+00  0.2000000E+00  0.0000000E+00  0.7111111E-02
    1        0.044449      0.352034   1.000000   1.000000
    2        1.662251      3.185304   1.000000   1.000000
    3        2.287048      4.048610   1.000000   1.000000
    4        3.025695      4.812066   1.000000   1.000000
    5        3.367486      5.113147   1.000000   1.000001
    6        3.785819      5.601882   1.000000   1.035458
    7        4.456963      6.497934   1.000000  -0.000021
    8        4.462763      6.903966   1.000000  -0.000000
    9        4.889528      6.919622   1.000000  -0.000000
   10        5.017490      7.769357   1.000000  -0.000000
   11        5.964287      8.130301   0.086202  -0.000000
   12        9.408155     10.690569  -0.000000  -0.000000
   13       15.196163     16.153219   0.000000   0.000000
   14       20.407594     20.958899   0.000000   0.000000
   15       21.043543     21.716490   0.000000   0.000000
   16       23.250372     23.859707   0.000000   0.000000
   17       26.432473     26.602205   0.000000   0.000000
   18       27.564567     28.109469   0.000000   0.000000
   19       28.724847     29.107744   0.000000   0.000000
   20       32.078580     32.541261   0.000000   0.000000
 
  0.4000000E+00  0.2000000E+00  0.0000000E+00  0.7111111E-02
    1        0.610028      1.062194   1.000000   1.000000
    2        1.610597      2.872734   1.000000   1.000000
    3        2.578873      4.364457   1.000000   1.000000
    4        3.047286      4.823249   1.000000   1.000000
    5        3.281934      5.030735   1.000000   1.000000
    6        3.506154      5.297809   1.000000   1.000360