 vasp.6.2.0 18Jan21 (build Aug 12 2022 13:00:08) complex                        
  
 executed on             LinuxIFC date 2024.11.04  06:59:18
 running on    4 total cores
 distrk:  each k-point on    4 cores,    1 groups
 distr:  one band on NCORE=   1 cores,    4 groups


--------------------------------------------------------------------------------------------------------


 INCAR:
   ISTART = 0            (Read existing wavefunction, if there)
   ISPIN = 2            (Non-Spin polarised DFT)
   MAGMOM = 5 5          (Set this parameters manually)
   GGA_COMPAT = .FALSE.   (Apply spherical cutoff on gradient field)
   VOSKOWN = 1        (Enhances the magnetic moments and the magnetic energies)
   LMAXMIX = 4        (For d elements increase LMAXMIX to 4, f: LMAXMIX \= 6)
   LREAL = .FALSE.       (Projection operators: automatic)
   ENCUT = 450          (Cut-off energy for plane wave basis set, in eV)
   LORBIT = 11           (Write orbital decomposed charge densities and magnetic moments)
   ADDGRID = .TRUE.        (Increase grid, helps GGA convergence)
   LASPH = .TRUE.        (Give more accurate total energies and band structure calculations)
   PREC = Accurate      (Accurate strictly avoids any aliasing or wrap around errors)
   ISMEAR = 1            (Gaussian smearing, metals:1)
   SIGMA = 0.2          (Smearing value in eV, metals:0.2)
   NELM = 90           (Max electronic SCF steps)
   NELMIN = 6            (Min electronic SCF steps)
   EDIFF = 1E-06        (SCF energy convergence, in eV)
   NSW = 100          (Max ionic steps)
   IBRION = 2            (Algorithm: 0-MD, 1-Quasi-New, 2-CG)
   ISIF = 3            (Stress/relaxation: 2-Ions, 3-Shape/Ions/V, 4-Shape/Ions)
   EDIFFG = -2E-03        (Ionic convergence, eV/AA)
   ISYM = 2              (Symmetry: 0\=none, 2\=GGA, 3\=hybrids)

 POTCAR:    PAW_PBE Fe 06Sep2000                  
 POTCAR:    PAW_PBE Fe 06Sep2000                  
   VRHFIN =Fe:  d7 s1                                                                               
   LEXCH  = PE                                                                                      
   EATOM  =   594.3153 eV,   43.6809 Ry                                                             
                                                                                                    
   TITEL  = PAW_PBE Fe 06Sep2000                                                                    
   LULTRA =        F    use ultrasoft PP ?                                                          
   IUNSCR =        1    unscreen: 0-lin 1-nonlin 2-no                                               
   RPACOR =    2.000    partial core radius                                                         
   POMASS =   55.847; ZVAL   =    8.000    mass and valenz                                          
   RCORE  =    2.300    outmost cutoff radius                                                       
   RWIGS  =    2.460; RWIGS  =    1.302    wigner-seitz radius (au A)                               
   ENMAX  =  267.882; ENMIN  =  200.911 eV                                                          
   RCLOC  =    1.701    cutoff for local pot                                                        
   LCOR   =        T    correct aug charges                                                         
   LPAW   =        T    paw PP                                                                      
   EAUG   =  511.368                                                                                
   DEXC   =    0.000                                                                                
   RMAX   =    2.356    core radius for proj-oper                                                   
   RAUG   =    1.300    factor for augmentation sphere                                              
   RDEP   =    2.442    radius for radial grids                                                     
   RDEPT  =    1.890    core radius for aug-charge                                                  
                                                                                                    
   Atomic configuration                                                                             
    9 entries                                                                                       
     n  l   j            E        occ.                                                              
     1  0  0.50     -6993.8440   2.0000                                                             
     2  0  0.50      -814.6047   2.0000                                                             
     2  1  1.50      -693.3689   6.0000                                                             
     3  0  0.50       -89.4732   2.0000                                                             
     3  1  1.50       -55.6373   6.0000                                                             
     3  2  2.50        -3.8151   7.0000                                                             
     4  0  0.50        -4.2551   1.0000                                                             
     4  1  1.50        -3.4015   0.0000                                                             
     4  3  2.50        -1.3606   0.0000                                                             
   Description                                                                                      
     l       E           TYP  RCUT    TYP  RCUT                                                     
     2     -3.8151135     23  2.300                                                                 
     2     -5.1756961     23  2.300                                                                 
     0     -4.2550963     23  2.300                                                                 
     0      7.2035603     23  2.300                                                                 
     1     -2.7211652     23  2.300                                                                 
     1     18.4316424     23  2.300                                                                 
  local pseudopotential read in
  partial core-charges read in
  partial kinetic energy density read in
  atomic valenz-charges read in
  non local Contribution for L=           2  read in
    real space projection operators read in
  non local Contribution for L=           2  read in
    real space projection operators read in
  non local Contribution for L=           0  read in
    real space projection operators read in
  non local Contribution for L=           0  read in
    real space projection operators read in
  non local Contribution for L=           1  read in
    real space projection operators read in
  non local Contribution for L=           1  read in
    real space projection operators read in
    PAW grid and wavefunctions read in
 
   number of l-projection  operators is LMAX  =           6
   number of lm-projection operators is LMMAX =          18
 
  PAW_PBE Fe 06Sep2000                  :
 energy of atom  1       EATOM= -594.3153
 kinetic energy error for atom=    0.0034 (will be added to EATOM!!)
 
 
 POSCAR: Fe2
  positions in direct lattice
  No initial velocities read in
 exchange correlation table for  LEXCH =        8
   RHO(1)=    0.500       N(1)  =     2000
   RHO(2)=  100.500       N(2)  =     4000
 


--------------------------------------------------------------------------------------------------------


 ion  position               nearest neighbor table
   1  0.000  0.000  0.000-   2 2.48   2 2.48   2 2.48   2 2.48   2 2.48   2 2.48   2 2.48   2 2.48

   2  0.500  0.500  0.500-   1 2.48   1 2.48   1 2.48   1 2.48   1 2.48   1 2.48   1 2.48   1 2.48

 
  LATTYP: Found a simple cubic cell.
 ALAT       =     2.8630354989
  
  Lattice vectors:
  
 A1 = (   2.8630354989,   0.0000000000,   0.0000000000)
 A2 = (   0.0000000000,   2.8630354989,   0.0000000000)
 A3 = (   0.0000000000,   0.0000000000,   2.8630354989)


Analysis of symmetry for initial positions (statically):
=====================================================================
 Subroutine PRICEL returns following result:
 
  LATTYP: Found a body centered cubic cell.
 ALAT       =     2.8630354989
  
  Lattice vectors:
  
 A1 = (   1.4315177495,   1.4315177495,  -1.4315177495)
 A2 = (  -1.4315177495,   1.4315177495,   1.4315177495)
 A3 = (   1.4315177495,  -1.4315177495,   1.4315177495)
 
   2 primitive cells build up your supercell.
 

 Routine SETGRP: Setting up the symmetry group for a 
 simple cubic supercell.


 Subroutine GETGRP returns: Found 48 space group operations
 (whereof 48 operations were pure point group operations)
 out of a pool of 48 trial point group operations.


The static configuration has the point symmetry O_h .


Analysis of symmetry for dynamics (positions and initial velocities):
=====================================================================
 Subroutine PRICEL returns following result:
 
  LATTYP: Found a body centered cubic cell.
 ALAT       =     2.8630354989
  
  Lattice vectors:
  
 A1 = (   1.4315177495,   1.4315177495,  -1.4315177495)
 A2 = (  -1.4315177495,   1.4315177495,   1.4315177495)
 A3 = (   1.4315177495,  -1.4315177495,   1.4315177495)
 
   2 primitive cells build up your supercell.
 

 Routine SETGRP: Setting up the symmetry group for a 
 simple cubic supercell.


 Subroutine GETGRP returns: Found 48 space group operations
 (whereof 48 operations were pure point group operations)
 out of a pool of 48 trial point group operations.


The dynamic configuration has the point symmetry O_h .


Analysis of structural, dynamic, and magnetic symmetry:
=====================================================================
 Subroutine PRICEL returns following result:
 
  LATTYP: Found a body centered cubic cell.
 ALAT       =     2.8630354989
  
  Lattice vectors:
  
 A1 = (   1.4315177495,   1.4315177495,  -1.4315177495)
 A2 = (  -1.4315177495,   1.4315177495,   1.4315177495)
 A3 = (   1.4315177495,  -1.4315177495,   1.4315177495)
 
   2 primitive cells build up your supercell.
 

 Routine SETGRP: Setting up the symmetry group for a 
 simple cubic supercell.


 Subroutine GETGRP returns: Found 48 space group operations
 (whereof 48 operations were pure point group operations)
 out of a pool of 48 trial point group operations.


The overall configuration has the point symmetry O_h .


 Subroutine INISYM returns: Found 48 space group operations
 (whereof 48 operations are pure point group operations),
 and found     2 'primitive' translations


----------------------------------------------------------------------------------------

                                     Primitive cell                                     

  volume of cell :      11.7341

  direct lattice vectors                    reciprocal lattice vectors
     1.431517749  1.431517749 -1.431517749     0.349279637  0.349279637  0.000000000
    -1.431517749  1.431517749  1.431517749     0.000000000  0.349279637  0.349279637
     1.431517749 -1.431517749  1.431517749     0.349279637 -0.000000000  0.349279637

  length of vectors
     2.479461474  2.479461474  2.479461474     0.493956000  0.493956000  0.493956000

  position of ions in fractional coordinates (direct lattice)
     0.000000000  0.000000000  0.000000000

  ion indices of the primitive-cell ions
   primitive index   ion index
                 1           1

----------------------------------------------------------------------------------------

 
 
 KPOINTS: Automatic                               

Automatic generation of k-mesh.
 Grid dimensions read from file:
 generate k-points for:   15   15   15

 Generating k-lattice:

  Cartesian coordinates                     Fractional coordinates (reciprocal lattice)
     0.023285309 -0.000000000  0.000000000     0.066666667  0.000000000  0.000000000
     0.000000000  0.023285309  0.000000000     0.000000000  0.066666667  0.000000000
    -0.000000000 -0.000000000  0.023285309     0.000000000  0.000000000  0.066666667

  Length of vectors
     0.023285309  0.023285309  0.023285309

  Shift w.r.t. Gamma in fractional coordinates (k-lattice)
     0.000000000  0.000000000  0.000000000

 
 Subroutine IBZKPT returns following result:
 ===========================================
 
 Found    120 irreducible k-points:
 
 Following reciprocal coordinates:
            Coordinates               Weight
  0.000000  0.000000  0.000000      1.000000
  0.066667  0.000000  0.000000      6.000000
  0.133333  0.000000  0.000000      6.000000
  0.200000 -0.000000  0.000000      6.000000
  0.266667  0.000000  0.000000      6.000000
  0.333333  0.000000  0.000000      6.000000
  0.400000  0.000000  0.000000      6.000000
  0.466667 -0.000000  0.000000      6.000000
  0.066667  0.066667  0.000000     12.000000
  0.133333  0.066667  0.000000     24.000000
  0.200000  0.066667  0.000000     24.000000
  0.266667  0.066667  0.000000     24.000000
  0.333333  0.066667  0.000000     24.000000
  0.400000  0.066667  0.000000     24.000000
  0.466667  0.066667  0.000000     24.000000
  0.133333  0.133333  0.000000     12.000000
  0.200000  0.133333  0.000000     24.000000
  0.266667  0.133333  0.000000     24.000000
  0.333333  0.133333  0.000000     24.000000
  0.400000  0.133333  0.000000     24.000000
  0.466667  0.133333  0.000000     24.000000
  0.200000  0.200000  0.000000     12.000000
  0.266667  0.200000  0.000000     24.000000
  0.333333  0.200000  0.000000     24.000000
  0.400000  0.200000  0.000000     24.000000
  0.466667  0.200000  0.000000     24.000000
  0.266667  0.266667  0.000000     12.000000
  0.333333  0.266667  0.000000     24.000000
  0.400000  0.266667  0.000000     24.000000
  0.466667  0.266667  0.000000     24.000000
  0.333333  0.333333  0.000000     12.000000
  0.400000  0.333333  0.000000     24.000000
  0.466667  0.333333  0.000000     24.000000
  0.400000  0.400000  0.000000     12.000000
  0.466667  0.400000  0.000000     24.000000
  0.466667  0.466667  0.000000     12.000000
  0.066667  0.066667  0.066667      8.000000
  0.133333  0.066667  0.066667     24.000000
  0.200000  0.066667  0.066667     24.000000
  0.266667  0.066667  0.066667     24.000000
  0.333333  0.066667  0.066667     24.000000
  0.400000  0.066667  0.066667     24.000000
  0.466667  0.066667  0.066667     24.000000
  0.133333  0.133333  0.066667     24.000000
  0.200000  0.133333  0.066667     48.000000
  0.266667  0.133333  0.066667     48.000000
  0.333333  0.133333  0.066667     48.000000
  0.400000  0.133333  0.066667     48.000000
  0.466667  0.133333  0.066667     48.000000
  0.200000  0.200000  0.066667     24.000000
  0.266667  0.200000  0.066667     48.000000
  0.333333  0.200000  0.066667     48.000000
  0.400000  0.200000  0.066667     48.000000
  0.466667  0.200000  0.066667     48.000000
  0.266667  0.266667  0.066667     24.000000
  0.333333  0.266667  0.066667     48.000000
  0.400000  0.266667  0.066667     48.000000
  0.466667  0.266667  0.066667     48.000000
  0.333333  0.333333  0.066667     24.000000
  0.400000  0.333333  0.066667     48.000000
  0.466667  0.333333  0.066667     48.000000
  0.400000  0.400000  0.066667     24.000000
  0.466667  0.400000  0.066667     48.000000
  0.466667  0.466667  0.066667     24.000000
  0.133333  0.133333  0.133333      8.000000
  0.200000  0.133333  0.133333     24.000000
  0.266667  0.133333  0.133333     24.000000
  0.333333  0.133333  0.133333     24.000000
  0.400000  0.133333  0.133333     24.000000
  0.466667  0.133333  0.133333     24.000000
  0.200000  0.200000  0.133333     24.000000
  0.266667  0.200000  0.133333     48.000000
  0.333333  0.200000  0.133333     48.000000
  0.400000  0.200000  0.133333     48.000000
  0.466667  0.200000  0.133333     48.000000
  0.266667  0.266667  0.133333     24.000000
  0.333333  0.266667  0.133333     48.000000
  0.400000  0.266667  0.133333     48.000000
  0.466667  0.266667  0.133333     48.000000
  0.333333  0.333333  0.133333     24.000000
  0.400000  0.333333  0.133333     48.000000
  0.466667  0.333333  0.133333     48.000000
  0.400000  0.400000  0.133333     24.000000
  0.466667  0.400000  0.133333     48.000000
  0.466667  0.466667  0.133333     24.000000
  0.200000  0.200000  0.200000      8.000000
  0.266667  0.200000  0.200000     24.000000
  0.333333  0.200000  0.200000     24.000000
  0.400000  0.200000  0.200000     24.000000
  0.466667  0.200000  0.200000     24.000000
  0.266667  0.266667  0.200000     24.000000
  0.333333  0.266667  0.200000     48.000000
  0.400000  0.266667  0.200000     48.000000
  0.466667  0.266667  0.200000     48.000000
  0.333333  0.333333  0.200000     24.000000
  0.400000  0.333333  0.200000     48.000000
  0.466667  0.333333  0.200000     48.000000
  0.400000  0.400000  0.200000     24.000000
  0.466667  0.400000  0.200000     48.000000
  0.466667  0.466667  0.200000     24.000000
  0.266667  0.266667  0.266667      8.000000
  0.333333  0.266667  0.266667     24.000000
  0.400000  0.266667  0.266667     24.000000
  0.466667  0.266667  0.266667     24.000000
  0.333333  0.333333  0.266667     24.000000
  0.400000  0.333333  0.266667     48.000000
  0.466667  0.333333  0.266667     48.000000
  0.400000  0.400000  0.266667     24.000000
  0.466667  0.400000  0.266667     48.000000
  0.466667  0.466667  0.266667     24.000000
  0.333333  0.333333  0.333333      8.000000
  0.400000  0.333333  0.333333     24.000000
  0.466667  0.333333  0.333333     24.000000
  0.400000  0.400000  0.333333     24.000000
  0.466667  0.400000  0.333333     48.000000
  0.466667  0.466667  0.333333     24.000000
  0.400000  0.400000  0.400000      8.000000
  0.466667  0.400000  0.400000     24.000000
  0.466667  0.466667  0.400000     24.000000
  0.466667  0.466667  0.466667      8.000000
 
 Following cartesian coordinates:
            Coordinates               Weight
  0.000000  0.000000  0.000000      1.000000
  0.023285 -0.000000  0.000000      6.000000
  0.046571 -0.000000  0.000000      6.000000
  0.069856 -0.000000  0.000000      6.000000
  0.093141 -0.000000  0.000000      6.000000
  0.116427 -0.000000  0.000000      6.000000
  0.139712 -0.000000  0.000000      6.000000
  0.162997 -0.000000  0.000000      6.000000
  0.023285  0.023285  0.000000     12.000000
  0.046571  0.023285  0.000000     24.000000
  0.069856  0.023285  0.000000     24.000000
  0.093141  0.023285  0.000000     24.000000
  0.116427  0.023285  0.000000     24.000000
  0.139712  0.023285  0.000000     24.000000
  0.162997  0.023285  0.000000     24.000000
  0.046571  0.046571  0.000000     12.000000
  0.069856  0.046571  0.000000     24.000000
  0.093141  0.046571  0.000000     24.000000
  0.116427  0.046571  0.000000     24.000000
  0.139712  0.046571  0.000000     24.000000
  0.162997  0.046571  0.000000     24.000000
  0.069856  0.069856  0.000000     12.000000
  0.093141  0.069856  0.000000     24.000000
  0.116427  0.069856  0.000000     24.000000
  0.139712  0.069856  0.000000     24.000000
  0.162997  0.069856  0.000000     24.000000
  0.093141  0.093141  0.000000     12.000000
  0.116427  0.093141  0.000000     24.000000
  0.139712  0.093141  0.000000     24.000000
  0.162997  0.093141  0.000000     24.000000
  0.116427  0.116427  0.000000     12.000000
  0.139712  0.116427  0.000000     24.000000
  0.162997  0.116427  0.000000     24.000000
  0.139712  0.139712  0.000000     12.000000
  0.162997  0.139712  0.000000     24.000000
  0.162997  0.162997  0.000000     12.000000
  0.023285  0.023285  0.023285      8.000000
  0.046571  0.023285  0.023285     24.000000
  0.069856  0.023285  0.023285     24.000000
  0.093141  0.023285  0.023285     24.000000
  0.116427  0.023285  0.023285     24.000000
  0.139712  0.023285  0.023285     24.000000
  0.162997  0.023285  0.023285     24.000000
  0.046571  0.046571  0.023285     24.000000
  0.069856  0.046571  0.023285     48.000000
  0.093141  0.046571  0.023285     48.000000
  0.116427  0.046571  0.023285     48.000000
  0.139712  0.046571  0.023285     48.000000
  0.162997  0.046571  0.023285     48.000000
  0.069856  0.069856  0.023285     24.000000
  0.093141  0.069856  0.023285     48.000000
  0.116427  0.069856  0.023285     48.000000
  0.139712  0.069856  0.023285     48.000000
  0.162997  0.069856  0.023285     48.000000
  0.093141  0.093141  0.023285     24.000000
  0.116427  0.093141  0.023285     48.000000
  0.139712  0.093141  0.023285     48.000000
  0.162997  0.093141  0.023285     48.000000
  0.116427  0.116427  0.023285     24.000000
  0.139712  0.116427  0.023285     48.000000
  0.162997  0.116427  0.023285     48.000000
  0.139712  0.139712  0.023285     24.000000
  0.162997  0.139712  0.023285     48.000000
  0.162997  0.162997  0.023285     24.000000
  0.046571  0.046571  0.046571      8.000000
  0.069856  0.046571  0.046571     24.000000
  0.093141  0.046571  0.046571     24.000000
  0.116427  0.046571  0.046571     24.000000
  0.139712  0.046571  0.046571     24.000000
  0.162997  0.046571  0.046571     24.000000
  0.069856  0.069856  0.046571     24.000000
  0.093141  0.069856  0.046571     48.000000
  0.116427  0.069856  0.046571     48.000000
  0.139712  0.069856  0.046571     48.000000
  0.162997  0.069856  0.046571     48.000000
  0.093141  0.093141  0.046571     24.000000
  0.116427  0.093141  0.046571     48.000000
  0.139712  0.093141  0.046571     48.000000
  0.162997  0.093141  0.046571     48.000000
  0.116427  0.116427  0.046571     24.000000
  0.139712  0.116427  0.046571     48.000000
  0.162997  0.116427  0.046571     48.000000
  0.139712  0.139712  0.046571     24.000000
  0.162997  0.139712  0.046571     48.000000
  0.162997  0.162997  0.046571     24.000000
  0.069856  0.069856  0.069856      8.000000
  0.093141  0.069856  0.069856     24.000000
  0.116427  0.069856  0.069856     24.000000
  0.139712  0.069856  0.069856     24.000000
  0.162997  0.069856  0.069856     24.000000
  0.093141  0.093141  0.069856     24.000000
  0.116427  0.093141  0.069856     48.000000
  0.139712  0.093141  0.069856     48.000000
  0.162997  0.093141  0.069856     48.000000
  0.116427  0.116427  0.069856     24.000000
  0.139712  0.116427  0.069856     48.000000
  0.162997  0.116427  0.069856     48.000000
  0.139712  0.139712  0.069856     24.000000
  0.162997  0.139712  0.069856     48.000000
  0.162997  0.162997  0.069856     24.000000
  0.093141  0.093141  0.093141      8.000000
  0.116427  0.093141  0.093141     24.000000
  0.139712  0.093141  0.093141     24.000000
  0.162997  0.093141  0.093141     24.000000
  0.116427  0.116427  0.093141     24.000000
  0.139712  0.116427  0.093141     48.000000
  0.162997  0.116427  0.093141     48.000000
  0.139712  0.139712  0.093141     24.000000
  0.162997  0.139712  0.093141     48.000000
  0.162997  0.162997  0.093141     24.000000
  0.116427  0.116427  0.116427      8.000000
  0.139712  0.116427  0.116427     24.000000
  0.162997  0.116427  0.116427     24.000000
  0.139712  0.139712  0.116427     24.000000
  0.162997  0.139712  0.116427     48.000000
  0.162997  0.162997  0.116427     24.000000
  0.139712  0.139712  0.139712      8.000000
  0.162997  0.139712  0.139712     24.000000
  0.162997  0.162997  0.139712     24.000000
  0.162997  0.162997  0.162997      8.000000
 


--------------------------------------------------------------------------------------------------------




 Dimension of arrays:
   k-points           NKPTS =    120   k-points in BZ     NKDIM =    120   number of bands    NBANDS=     20
   number of dos      NEDOS =    301   number of ions     NIONS =      2
   non local maximal  LDIM  =      6   non local SUM 2l+1 LMDIM =     18
   total plane-waves  NPLWV =   8000
   max r-space proj   IRMAX =      1   max aug-charges    IRDMAX=  97333
   dimension x,y,z NGX =    20 NGY =   20 NGZ =   20
   dimension x,y,z NGXF=    40 NGYF=   40 NGZF=   40
   support grid    NGXF=    80 NGYF=   80 NGZF=   80
   ions per type =               2
   NGX,Y,Z   is equivalent  to a cutoff of  11.61, 11.61, 11.61 a.u.
   NGXF,Y,Z  is equivalent  to a cutoff of  23.23, 23.23, 23.23 a.u.

 SYSTEM =  unknown system                          
 POSCAR =  Fe2                                     

 Startparameter for this run:
   NWRITE =      2    write-flag & timer
   PREC   = accura    normal or accurate (medium, high low for compatibility)
   ISTART =      0    job   : 0-new  1-cont  2-samecut
   ICHARG =      2    charge: 1-file 2-atom 10-const
   ISPIN  =      2    spin polarized calculation?
   LNONCOLLINEAR =      F non collinear calculations
   LSORBIT =      F    spin-orbit coupling
   INIWAV =      1    electr: 0-lowe 1-rand  2-diag
   LASPH  =      T    aspherical Exc in radial PAW
   METAGGA=      F    non-selfconsistent MetaGGA calc.

 Electronic Relaxation 1
   ENCUT  =  450.0 eV  33.07 Ry    5.75 a.u.   4.95  4.95  4.95*2*pi/ulx,y,z
   ENINI  =  450.0     initial cutoff
   ENAUG  =  511.4 eV  augmentation charge cutoff
   NELM   =     90;   NELMIN=  6; NELMDL= -5     # of ELM steps 
   EDIFF  = 0.1E-05   stopping-criterion for ELM
   LREAL  =      F    real-space projection
   NLSPLINE    = F    spline interpolate recip. space projectors
   LCOMPAT=      F    compatible to vasp.4.4
   GGA_COMPAT  = F    GGA compatible to vasp.4.4-vasp.4.6
   LMAXPAW     = -100 max onsite density
   LMAXMIX     =    4 max onsite mixed and CHGCAR
   VOSKOWN=      1    Vosko Wilk Nusair interpolation
   ROPT   =    0.00000
 Ionic relaxation
   EDIFFG = -.2E-02   stopping-criterion for IOM
   NSW    =    100    number of steps for IOM
   NBLOCK =      1;   KBLOCK =    100    inner block; outer block 
   IBRION =      2    ionic relax: 0-MD 1-quasi-New 2-CG
   NFREE  =      1    steps in history (QN), initial steepest desc. (CG)
   ISIF   =      3    stress and relaxation
   IWAVPR =     11    prediction:  0-non 1-charg 2-wave 3-comb
   ISYM   =      2    0-nonsym 1-usesym 2-fastsym
   LCORR  =      T    Harris-Foulkes like correction to forces

   POTIM  = 0.5000    time-step for ionic-motion
   TEIN   =    0.0    initial temperature
   TEBEG  =    0.0;   TEEND  =   0.0 temperature during run
   SMASS  =  -3.00    Nose mass-parameter (am)
   estimated Nose-frequenzy (Omega)   =  0.10E-29 period in steps = 0.13E+47 mass=  -0.187E-27a.u.
   SCALEE = 1.0000    scale energy and forces
   NPACO  =    256;   APACO  = 16.0  distance and # of slots for P.C.
   PSTRESS=    0.0 pullay stress

  Mass of Ions in am
   POMASS =  55.85
  Ionic Valenz
   ZVAL   =   8.00
  Atomic Wigner-Seitz radii
   RWIGS  =  -1.00
  virtual crystal weights 
   VCA    =   1.00
   NELECT =      16.0000    total number of electrons
   NUPDOWN=      -1.0000    fix difference up-down

 DOS related values:
   EMIN   =  10.00;   EMAX   =-10.00  energy-range for DOS
   EFERMI =   0.00
   ISMEAR =     1;   SIGMA  =   0.20  broadening in eV -4-tet -1-fermi 0-gaus

 Electronic relaxation 2 (details)
   IALGO  =     38    algorithm
   LDIAG  =      T    sub-space diagonalisation (order eigenvalues)
   LSUBROT=      F    optimize rotation matrix (better conditioning)
   TURBO    =      0    0=normal 1=particle mesh
   IRESTART =      0    0=no restart 2=restart with 2 vectors
   NREBOOT  =      0    no. of reboots
   NMIN     =      0    reboot dimension
   EREF     =   0.00    reference energy to select bands
   IMIX   =      4    mixing-type and parameters
     AMIX     =   0.40;   BMIX     =  1.00
     AMIX_MAG =   1.60;   BMIX_MAG =  1.00
     AMIN     =   0.10
     WC   =   100.;   INIMIX=   1;  MIXPRE=   1;  MAXMIX= -45

 Intra band minimization:
   WEIMIN = 0.0010     energy-eigenvalue tresh-hold
   EBREAK =  0.12E-07  absolut break condition
   DEPER  =   0.30     relativ break condition  

   TIME   =   0.40     timestep for ELM

  volume/ion in A,a.u.               =      11.73        79.19
  Fermi-wavevector in a.u.,A,eV,Ry     =   1.440859  2.722828 28.246703  2.076074
  Thomas-Fermi vector in A             =   2.559556
 
 Write flags
   LWAVE        =      T    write WAVECAR
   LDOWNSAMPLE  =      F    k-point downsampling of WAVECAR
   LCHARG       =      T    write CHGCAR
   LVTOT        =      F    write LOCPOT, total local potential
   LVHAR        =      F    write LOCPOT, Hartree potential only
   LELF         =      F    write electronic localiz. function (ELF)
   LORBIT       =     11    0 simple, 1 ext, 2 COOP (PROOUT), +10 PAW based schemes


 Dipole corrections
   LMONO  =      F    monopole corrections only (constant potential shift)
   LDIPOL =      F    correct potential (dipole corrections)
   IDIPOL =      0    1-x, 2-y, 3-z, 4-all directions 
   EPSILON=  1.0000000 bulk dielectric constant

 Exchange correlation treatment:
   GGA     =    --    GGA type
   LEXCH   =     8    internal setting for exchange type
   VOSKOWN=      1    Vosko Wilk Nusair interpolation
   LHFCALC =     F    Hartree Fock is set to
   LHFONE  =     F    Hartree Fock one center treatment
   AEXX    =    0.0000 exact exchange contribution

 Linear response parameters
   LEPSILON=     F    determine dielectric tensor
   LRPA    =     F    only Hartree local field effects (RPA)
   LNABLA  =     F    use nabla operator in PAW spheres
   LVEL    =     F    velocity operator in full k-point grid
   LINTERFAST=   F  fast interpolation
   KINTER  =     0    interpolate to denser k-point grid
   CSHIFT  =0.1000    complex shift for real part using Kramers Kronig
   OMEGAMAX=  -1.0    maximum frequency
   DEG_THRESHOLD= 0.2000000E-02 threshold for treating states as degnerate
   RTIME   =   -0.100 relaxation time in fs
  (WPLASMAI=    0.000 imaginary part of plasma frequency in eV, 0.658/RTIME)
   DFIELD  = 0.0000000 0.0000000 0.0000000 field for delta impulse in time
 
 Orbital magnetization related:
   ORBITALMAG=     F  switch on orbital magnetization
   LCHIMAG   =     F  perturbation theory with respect to B field
   DQ        =  0.001000  dq finite difference perturbation B field
   LLRAUG    =     F  two centre corrections for induced B field



--------------------------------------------------------------------------------------------------------


 conjugate gradient relaxation of ions
 charge density and potential will be updated during run
 spin polarized calculation
 Variant of blocked Davidson
 Davidson routine will perform the subspace rotation
 perform sub-space diagonalisation
    after iterative eigenvector-optimisation
 modified Broyden-mixing scheme, WC =      100.0
 initial mixing is a Kerker type mixing with AMIX =  0.4000 and BMIX =      1.0000
 Hartree-type preconditioning will be used
 using additional bands           12
 reciprocal scheme for non local part
 use partial core corrections
 calculate Harris-corrections to forces 
   (improved forces if not selfconsistent)
 use gradient corrections 
 use of overlap-Matrix (Vanderbilt PP)
 Methfessel and Paxton  Order N= 1 SIGMA  =   0.20


--------------------------------------------------------------------------------------------------------


  energy-cutoff  :      450.00
  volume of cell :       23.47
      direct lattice vectors                 reciprocal lattice vectors
     2.863035499  0.000000000  0.000000000     0.349279637 -0.000000000  0.000000000
     0.000000000  2.863035499  0.000000000     0.000000000  0.349279637  0.000000000
     0.000000000  0.000000000  2.863035499    -0.000000000 -0.000000000  0.349279637

  length of vectors
     2.863035499  2.863035499  2.863035499     0.349279637  0.349279637  0.349279637


 
 k-points in units of 2pi/SCALE and weight: Automatic                               
   0.00000000  0.00000000  0.00000000       0.000
   0.02328531 -0.00000000  0.00000000       0.002
   0.04657062 -0.00000000  0.00000000       0.002
   0.06985593 -0.00000000  0.00000000       0.002
   0.09314124 -0.00000000  0.00000000       0.002
   0.11642655 -0.00000000  0.00000000       0.002
   0.13971185 -0.00000000  0.00000000       0.002
   0.16299716 -0.00000000  0.00000000       0.002
   0.02328531  0.02328531  0.00000000       0.004
   0.04657062  0.02328531  0.00000000       0.007
   0.06985593  0.02328531  0.00000000       0.007
   0.09314124  0.02328531  0.00000000       0.007
   0.11642655  0.02328531  0.00000000       0.007
   0.13971185  0.02328531  0.00000000       0.007
   0.16299716  0.02328531  0.00000000       0.007
   0.04657062  0.04657062  0.00000000       0.004
   0.06985593  0.04657062  0.00000000       0.007
   0.09314124  0.04657062  0.00000000       0.007
   0.11642655  0.04657062  0.00000000       0.007
   0.13971185  0.04657062  0.00000000       0.007
   0.16299716  0.04657062  0.00000000       0.007
   0.06985593  0.06985593  0.00000000       0.004
   0.09314124  0.06985593  0.00000000       0.007
   0.11642655  0.06985593  0.00000000       0.007
   0.13971185  0.06985593  0.00000000       0.007
   0.16299716  0.06985593  0.00000000       0.007
   0.09314124  0.09314124  0.00000000       0.004
   0.11642655  0.09314124  0.00000000       0.007
   0.13971185  0.09314124  0.00000000       0.007
   0.16299716  0.09314124  0.00000000       0.007
   0.11642655  0.11642655  0.00000000       0.004
   0.13971185  0.11642655  0.00000000       0.007
   0.16299716  0.11642655  0.00000000       0.007
   0.13971185  0.13971185  0.00000000       0.004
   0.16299716  0.13971185  0.00000000       0.007
   0.16299716  0.16299716  0.00000000       0.004
   0.02328531  0.02328531  0.02328531       0.002
   0.04657062  0.02328531  0.02328531       0.007
   0.06985593  0.02328531  0.02328531       0.007
   0.09314124  0.02328531  0.02328531       0.007
   0.11642655  0.02328531  0.02328531       0.007
   0.13971185  0.02328531  0.02328531       0.007
   0.16299716  0.02328531  0.02328531       0.007
   0.04657062  0.04657062  0.02328531       0.007
   0.06985593  0.04657062  0.02328531       0.014
   0.09314124  0.04657062  0.02328531       0.014
   0.11642655  0.04657062  0.02328531       0.014
   0.13971185  0.04657062  0.02328531       0.014
   0.16299716  0.04657062  0.02328531       0.014
   0.06985593  0.06985593  0.02328531       0.007
   0.09314124  0.06985593  0.02328531       0.014
   0.11642655  0.06985593  0.02328531       0.014
   0.13971185  0.06985593  0.02328531       0.014
   0.16299716  0.06985593  0.02328531       0.014
   0.09314124  0.09314124  0.02328531       0.007
   0.11642655  0.09314124  0.02328531       0.014
   0.13971185  0.09314124  0.02328531       0.014
   0.16299716  0.09314124  0.02328531       0.014
   0.11642655  0.11642655  0.02328531       0.007
   0.13971185  0.11642655  0.02328531       0.014
   0.16299716  0.11642655  0.02328531       0.014
   0.13971185  0.13971185  0.02328531       0.007
   0.16299716  0.13971185  0.02328531       0.014
   0.16299716  0.16299716  0.02328531       0.007
   0.04657062  0.04657062  0.04657062       0.002
   0.06985593  0.04657062  0.04657062       0.007
   0.09314124  0.04657062  0.04657062       0.007
   0.11642655  0.04657062  0.04657062       0.007
   0.13971185  0.04657062  0.04657062       0.007
   0.16299716  0.04657062  0.04657062       0.007
   0.06985593  0.06985593  0.04657062       0.007
   0.09314124  0.06985593  0.04657062       0.014
   0.11642655  0.06985593  0.04657062       0.014
   0.13971185  0.06985593  0.04657062       0.014
   0.16299716  0.06985593  0.04657062       0.014
   0.09314124  0.09314124  0.04657062       0.007
   0.11642655  0.09314124  0.04657062       0.014
   0.13971185  0.09314124  0.04657062       0.014
   0.16299716  0.09314124  0.04657062       0.014
   0.11642655  0.11642655  0.04657062       0.007
   0.13971185  0.11642655  0.04657062       0.014
   0.16299716  0.11642655  0.04657062       0.014
   0.13971185  0.13971185  0.04657062       0.007
   0.16299716  0.13971185  0.04657062       0.014
   0.16299716  0.16299716  0.04657062       0.007
   0.06985593  0.06985593  0.06985593       0.002
   0.09314124  0.06985593  0.06985593       0.007
   0.11642655  0.06985593  0.06985593       0.007
   0.13971185  0.06985593  0.06985593       0.007
   0.16299716  0.06985593  0.06985593       0.007
   0.09314124  0.09314124  0.06985593       0.007
   0.11642655  0.09314124  0.06985593       0.014
   0.13971185  0.09314124  0.06985593       0.014
   0.16299716  0.09314124  0.06985593       0.014
   0.11642655  0.11642655  0.06985593       0.007
   0.13971185  0.11642655  0.06985593       0.014
   0.16299716  0.11642655  0.06985593       0.014
   0.13971185  0.13971185  0.06985593       0.007
   0.16299716  0.13971185  0.06985593       0.014
   0.16299716  0.16299716  0.06985593       0.007
   0.09314124  0.09314124  0.09314124       0.002
   0.11642655  0.09314124  0.09314124       0.007
   0.13971185  0.09314124  0.09314124       0.007
   0.16299716  0.09314124  0.09314124       0.007
   0.11642655  0.11642655  0.09314124       0.007
   0.13971185  0.11642655  0.09314124       0.014
   0.16299716  0.11642655  0.09314124       0.014
   0.13971185  0.13971185  0.09314124       0.007
   0.16299716  0.13971185  0.09314124       0.014
   0.16299716  0.16299716  0.09314124       0.007
   0.11642655  0.11642655  0.11642655       0.002
   0.13971185  0.11642655  0.11642655       0.007
   0.16299716  0.11642655  0.11642655       0.007
   0.13971185  0.13971185  0.11642655       0.007
   0.16299716  0.13971185  0.11642655       0.014
   0.16299716  0.16299716  0.11642655       0.007
   0.13971185  0.13971185  0.13971185       0.002
   0.16299716  0.13971185  0.13971185       0.007
   0.16299716  0.16299716  0.13971185       0.007
   0.16299716  0.16299716  0.16299716       0.002
 
 k-points in reciprocal lattice and weights: Automatic                               
   0.00000000  0.00000000  0.00000000       0.000
   0.06666667  0.00000000  0.00000000       0.002
   0.13333333  0.00000000  0.00000000       0.002
   0.20000000 -0.00000000  0.00000000       0.002
   0.26666667  0.00000000  0.00000000       0.002
   0.33333333  0.00000000  0.00000000       0.002
   0.40000000  0.00000000  0.00000000       0.002
   0.46666667 -0.00000000  0.00000000       0.002
   0.06666667  0.06666667  0.00000000       0.004
   0.13333333  0.06666667  0.00000000       0.007
   0.20000000  0.06666667  0.00000000       0.007
   0.26666667  0.06666667  0.00000000       0.007
   0.33333333  0.06666667  0.00000000       0.007
   0.40000000  0.06666667  0.00000000       0.007
   0.46666667  0.06666667  0.00000000       0.007
   0.13333333  0.13333333  0.00000000       0.004
   0.20000000  0.13333333  0.00000000       0.007
   0.26666667  0.13333333  0.00000000       0.007
   0.33333333  0.13333333  0.00000000       0.007
   0.40000000  0.13333333  0.00000000       0.007
   0.46666667  0.13333333  0.00000000       0.007
   0.20000000  0.20000000  0.00000000       0.004
   0.26666667  0.20000000  0.00000000       0.007
   0.33333333  0.20000000  0.00000000       0.007
   0.40000000  0.20000000  0.00000000       0.007
   0.46666667  0.20000000  0.00000000       0.007
   0.26666667  0.26666667  0.00000000       0.004
   0.33333333  0.26666667  0.00000000       0.007
   0.40000000  0.26666667  0.00000000       0.007
   0.46666667  0.26666667  0.00000000       0.007
   0.33333333  0.33333333  0.00000000       0.004
   0.40000000  0.33333333  0.00000000       0.007
   0.46666667  0.33333333  0.00000000       0.007
   0.40000000  0.40000000  0.00000000       0.004
   0.46666667  0.40000000  0.00000000       0.007
   0.46666667  0.46666667  0.00000000       0.004
   0.06666667  0.06666667  0.06666667       0.002
   0.13333333  0.06666667  0.06666667       0.007
   0.20000000  0.06666667  0.06666667       0.007
   0.26666667  0.06666667  0.06666667       0.007
   0.33333333  0.06666667  0.06666667       0.007
   0.40000000  0.06666667  0.06666667       0.007
   0.46666667  0.06666667  0.06666667       0.007
   0.13333333  0.13333333  0.06666667       0.007
   0.20000000  0.13333333  0.06666667       0.014
   0.26666667  0.13333333  0.06666667       0.014
   0.33333333  0.13333333  0.06666667       0.014
   0.40000000  0.13333333  0.06666667       0.014
   0.46666667  0.13333333  0.06666667       0.014
   0.20000000  0.20000000  0.06666667       0.007
   0.26666667  0.20000000  0.06666667       0.014
   0.33333333  0.20000000  0.06666667       0.014
   0.40000000  0.20000000  0.06666667       0.014
   0.46666667  0.20000000  0.06666667       0.014
   0.26666667  0.26666667  0.06666667       0.007
   0.33333333  0.26666667  0.06666667       0.014
   0.40000000  0.26666667  0.06666667       0.014
   0.46666667  0.26666667  0.06666667       0.014
   0.33333333  0.33333333  0.06666667       0.007
   0.40000000  0.33333333  0.06666667       0.014
   0.46666667  0.33333333  0.06666667       0.014
   0.40000000  0.40000000  0.06666667       0.007
   0.46666667  0.40000000  0.06666667       0.014
   0.46666667  0.46666667  0.06666667       0.007
   0.13333333  0.13333333  0.13333333       0.002
   0.20000000  0.13333333  0.13333333       0.007
   0.26666667  0.13333333  0.13333333       0.007
   0.33333333  0.13333333  0.13333333       0.007
   0.40000000  0.13333333  0.13333333       0.007
   0.46666667  0.13333333  0.13333333       0.007
   0.20000000  0.20000000  0.13333333       0.007
   0.26666667  0.20000000  0.13333333       0.014
   0.33333333  0.20000000  0.13333333       0.014
   0.40000000  0.20000000  0.13333333       0.014
   0.46666667  0.20000000  0.13333333       0.014
   0.26666667  0.26666667  0.13333333       0.007
   0.33333333  0.26666667  0.13333333       0.014
   0.40000000  0.26666667  0.13333333       0.014
   0.46666667  0.26666667  0.13333333       0.014
   0.33333333  0.33333333  0.13333333       0.007
   0.40000000  0.33333333  0.13333333       0.014
   0.46666667  0.33333333  0.13333333       0.014
   0.40000000  0.40000000  0.13333333       0.007
   0.46666667  0.40000000  0.13333333       0.014
   0.46666667  0.46666667  0.13333333       0.007
   0.20000000  0.20000000  0.20000000       0.002
   0.26666667  0.20000000  0.20000000       0.007
   0.33333333  0.20000000  0.20000000       0.007
   0.40000000  0.20000000  0.20000000       0.007
   0.46666667  0.20000000  0.20000000       0.007
   0.26666667  0.26666667  0.20000000       0.007
   0.33333333  0.26666667  0.20000000       0.014
   0.40000000  0.26666667  0.20000000       0.014
   0.46666667  0.26666667  0.20000000       0.014
   0.33333333  0.33333333  0.20000000       0.007
   0.40000000  0.33333333  0.20000000       0.014
   0.46666667  0.33333333  0.20000000       0.014
   0.40000000  0.40000000  0.20000000       0.007
   0.46666667  0.40000000  0.20000000       0.014
   0.46666667  0.46666667  0.20000000       0.007
   0.26666667  0.26666667  0.26666667       0.002
   0.33333333  0.26666667  0.26666667       0.007
   0.40000000  0.26666667  0.26666667       0.007
   0.46666667  0.26666667  0.26666667       0.007
   0.33333333  0.33333333  0.26666667       0.007
   0.40000000  0.33333333  0.26666667       0.014
   0.46666667  0.33333333  0.26666667       0.014
   0.40000000  0.40000000  0.26666667       0.007
   0.46666667  0.40000000  0.26666667       0.014
   0.46666667  0.46666667  0.26666667       0.007
   0.33333333  0.33333333  0.33333333       0.002
   0.40000000  0.33333333  0.33333333       0.007
   0.46666667  0.33333333  0.33333333       0.007
   0.40000000  0.40000000  0.33333333       0.007
   0.46666667  0.40000000  0.33333333       0.014
   0.46666667  0.46666667  0.33333333       0.007
   0.40000000  0.40000000  0.40000000       0.002
   0.46666667  0.40000000  0.40000000       0.007
   0.46666667  0.46666667  0.40000000       0.007
   0.46666667  0.46666667  0.46666667       0.002
 
 position of ions in fractional coordinates (direct lattice) 
   0.00000000  0.00000000  0.00000000
   0.50000000  0.50000000  0.50000000
 
 position of ions in cartesian coordinates  (Angst):
   0.00000000  0.00000000  0.00000000
   1.43151775  1.43151775  1.43151775
 


--------------------------------------------------------------------------------------------------------


 k-point   1 :   0.0000 0.0000 0.0000  plane waves:     485
 k-point   2 :   0.0667 0.0000 0.0000  plane waves:     486
 k-point   3 :   0.1333 0.0000 0.0000  plane waves:     482
 k-point   4 :   0.2000-0.0000 0.0000  plane waves:     494
 k-point   5 :   0.2667 0.0000 0.0000  plane waves:     506
 k-point   6 :   0.3333 0.0000 0.0000  plane waves:     506
 k-point   7 :   0.4000 0.0000 0.0000  plane waves:     498
 k-point   8 :   0.4667-0.0000 0.0000  plane waves:     494
 k-point   9 :   0.0667 0.0667 0.0000  plane waves:     487
 k-point  10 :   0.1333 0.0667 0.0000  plane waves:     488
 k-point  11 :   0.2000 0.0667 0.0000  plane waves:     497
 k-point  12 :   0.2667 0.0667 0.0000  plane waves:     501
 k-point  13 :   0.3333 0.0667 0.0000  plane waves:     505
 k-point  14 :   0.4000 0.0667 0.0000  plane waves:     503
 k-point  15 :   0.4667 0.0667 0.0000  plane waves:     493
 k-point  16 :   0.1333 0.1333 0.0000  plane waves:     493
 k-point  17 :   0.2000 0.1333 0.0000  plane waves:     501
 k-point  18 :   0.2667 0.1333 0.0000  plane waves:     507
 k-point  19 :   0.3333 0.1333 0.0000  plane waves:     512
 k-point  20 :   0.4000 0.1333 0.0000  plane waves:     504
 k-point  21 :   0.4667 0.1333 0.0000  plane waves:     507
 k-point  22 :   0.2000 0.2000 0.0000  plane waves:     507
 k-point  23 :   0.2667 0.2000 0.0000  plane waves:     511
 k-point  24 :   0.3333 0.2000 0.0000  plane waves:     509
 k-point  25 :   0.4000 0.2000 0.0000  plane waves:     513
 k-point  26 :   0.4667 0.2000 0.0000  plane waves:     508
 k-point  27 :   0.2667 0.2667 0.0000  plane waves:     507
 k-point  28 :   0.3333 0.2667 0.0000  plane waves:     508
 k-point  29 :   0.4000 0.2667 0.0000  plane waves:     509
 k-point  30 :   0.4667 0.2667 0.0000  plane waves:     513
 k-point  31 :   0.3333 0.3333 0.0000  plane waves:     503
 k-point  32 :   0.4000 0.3333 0.0000  plane waves:     508
 k-point  33 :   0.4667 0.3333 0.0000  plane waves:     512
 k-point  34 :   0.4000 0.4000 0.0000  plane waves:     517
 k-point  35 :   0.4667 0.4000 0.0000  plane waves:     518
 k-point  36 :   0.4667 0.4667 0.0000  plane waves:     519
 k-point  37 :   0.0667 0.0667 0.0667  plane waves:     485
 k-point  38 :   0.1333 0.0667 0.0667  plane waves:     490
 k-point  39 :   0.2000 0.0667 0.0667  plane waves:     500
 k-point  40 :   0.2667 0.0667 0.0667  plane waves:     507
 k-point  41 :   0.3333 0.0667 0.0667  plane waves:     509
 k-point  42 :   0.4000 0.0667 0.0667  plane waves:     506
 k-point  43 :   0.4667 0.0667 0.0667  plane waves:     500
 k-point  44 :   0.1333 0.1333 0.0667  plane waves:     496
 k-point  45 :   0.2000 0.1333 0.0667  plane waves:     502
 k-point  46 :   0.2667 0.1333 0.0667  plane waves:     506
 k-point  47 :   0.3333 0.1333 0.0667  plane waves:     510
 k-point  48 :   0.4000 0.1333 0.0667  plane waves:     506
 k-point  49 :   0.4667 0.1333 0.0667  plane waves:     504
 k-point  50 :   0.2000 0.2000 0.0667  plane waves:     506
 k-point  51 :   0.2667 0.2000 0.0667  plane waves:     508
 k-point  52 :   0.3333 0.2000 0.0667  plane waves:     511
 k-point  53 :   0.4000 0.2000 0.0667  plane waves:     509
 k-point  54 :   0.4667 0.2000 0.0667  plane waves:     508
 k-point  55 :   0.2667 0.2667 0.0667  plane waves:     508
 k-point  56 :   0.3333 0.2667 0.0667  plane waves:     510
 k-point  57 :   0.4000 0.2667 0.0667  plane waves:     512
 k-point  58 :   0.4667 0.2667 0.0667  plane waves:     511
 k-point  59 :   0.3333 0.3333 0.0667  plane waves:     507
 k-point  60 :   0.4000 0.3333 0.0667  plane waves:     510
 k-point  61 :   0.4667 0.3333 0.0667  plane waves:     514
 k-point  62 :   0.4000 0.4000 0.0667  plane waves:     513
 k-point  63 :   0.4667 0.4000 0.0667  plane waves:     517
 k-point  64 :   0.4667 0.4667 0.0667  plane waves:     521
 k-point  65 :   0.1333 0.1333 0.1333  plane waves:     503
 k-point  66 :   0.2000 0.1333 0.1333  plane waves:     503
 k-point  67 :   0.2667 0.1333 0.1333  plane waves:     505
 k-point  68 :   0.3333 0.1333 0.1333  plane waves:     506
 k-point  69 :   0.4000 0.1333 0.1333  plane waves:     504
 k-point  70 :   0.4667 0.1333 0.1333  plane waves:     508
 k-point  71 :   0.2000 0.2000 0.1333  plane waves:     508
 k-point  72 :   0.2667 0.2000 0.1333  plane waves:     509
 k-point  73 :   0.3333 0.2000 0.1333  plane waves:     509
 k-point  74 :   0.4000 0.2000 0.1333  plane waves:     511
 k-point  75 :   0.4667 0.2000 0.1333  plane waves:     506
 k-point  76 :   0.2667 0.2667 0.1333  plane waves:     507
 k-point  77 :   0.3333 0.2667 0.1333  plane waves:     510
 k-point  78 :   0.4000 0.2667 0.1333  plane waves:     514
 k-point  79 :   0.4667 0.2667 0.1333  plane waves:     512
 k-point  80 :   0.3333 0.3333 0.1333  plane waves:     510
 k-point  81 :   0.4000 0.3333 0.1333  plane waves:     513
 k-point  82 :   0.4667 0.3333 0.1333  plane waves:     517
 k-point  83 :   0.4000 0.4000 0.1333  plane waves:     517
 k-point  84 :   0.4667 0.4000 0.1333  plane waves:     518
 k-point  85 :   0.4667 0.4667 0.1333  plane waves:     521
 k-point  86 :   0.2000 0.2000 0.2000  plane waves:     510
 k-point  87 :   0.2667 0.2000 0.2000  plane waves:     509
 k-point  88 :   0.3333 0.2000 0.2000  plane waves:     503
 k-point  89 :   0.4000 0.2000 0.2000  plane waves:     510
 k-point  90 :   0.4667 0.2000 0.2000  plane waves:     508
 k-point  91 :   0.2667 0.2667 0.2000  plane waves:     506
 k-point  92 :   0.3333 0.2667 0.2000  plane waves:     508
 k-point  93 :   0.4000 0.2667 0.2000  plane waves:     511
 k-point  94 :   0.4667 0.2667 0.2000  plane waves:     511
 k-point  95 :   0.3333 0.3333 0.2000  plane waves:     511
 k-point  96 :   0.4000 0.3333 0.2000  plane waves:     511
 k-point  97 :   0.4667 0.3333 0.2000  plane waves:     514
 k-point  98 :   0.4000 0.4000 0.2000  plane waves:     506
 k-point  99 :   0.4667 0.4000 0.2000  plane waves:     513
 k-point 100 :   0.4667 0.4667 0.2000  plane waves:     515
 k-point 101 :   0.2667 0.2667 0.2667  plane waves:     510
 k-point 102 :   0.3333 0.2667 0.2667  plane waves:     513
 k-point 103 :   0.4000 0.2667 0.2667  plane waves:     512
 k-point 104 :   0.4667 0.2667 0.2667  plane waves:     506
 k-point 105 :   0.3333 0.3333 0.2667  plane waves:     508
 k-point 106 :   0.4000 0.3333 0.2667  plane waves:     513
 k-point 107 :   0.4667 0.3333 0.2667  plane waves:     511
 k-point 108 :   0.4000 0.4000 0.2667  plane waves:     506
 k-point 109 :   0.4667 0.4000 0.2667  plane waves:     509
 k-point 110 :   0.4667 0.4667 0.2667  plane waves:     507
 k-point 111 :   0.3333 0.3333 0.3333  plane waves:     507
 k-point 112 :   0.4000 0.3333 0.3333  plane waves:     510
 k-point 113 :   0.4667 0.3333 0.3333  plane waves:     509
 k-point 114 :   0.4000 0.4000 0.3333  plane waves:     509
 k-point 115 :   0.4667 0.4000 0.3333  plane waves:     511
 k-point 116 :   0.4667 0.4667 0.3333  plane waves:     512
 k-point 117 :   0.4000 0.4000 0.4000  plane waves:     510
 k-point 118 :   0.4667 0.4000 0.4000  plane waves:     510
 k-point 119 :   0.4667 0.4667 0.4000  plane waves:     508
 k-point 120 :   0.4667 0.4667 0.4667  plane waves:     504

 maximum and minimum number of plane-waves per node :       521      482

 maximum number of plane-waves:       521
 maximum index in each direction: 
   IXMAX=    4   IYMAX=    4   IZMAX=    4
   IXMIN=   -5   IYMIN=   -5   IZMIN=   -5


 serial   3D FFT for wavefunctions
 parallel 3D FFT for charge:
    minimum data exchange during FFTs selected (reduces bandwidth)


 total amount of memory used by VASP MPI-rank0    54157. kBytes
=======================================================================

   base      :      30000. kBytes
   nonl-proj :       9071. kBytes
   fftplans  :       2423. kBytes
   grid      :       1849. kBytes
   one-center:         62. kBytes
   wavefun   :      10752. kBytes
 
     INWAV:  cpu time    0.0000: real time    0.0005
 Broyden mixing: mesh for mixing (old mesh)
   NGX =  9   NGY =  9   NGZ =  9
  (NGX  = 40   NGY  = 40   NGZ  = 40)
  gives a total of    729 points

 initial charge density was supplied:
 charge density of overlapping atoms calculated
 number of electron      16.0000000 magnetization      10.0000000
 keeping initial charge density in first step


--------------------------------------------------------------------------------------------------------


 Maximum index for augmentation-charges        23411 (set IRDMAX)


--------------------------------------------------------------------------------------------------------


 First call to EWALD:  gamma=   0.619
 Maximum number of real-space cells 3x 3x 3
 Maximum number of reciprocal cells 3x 3x 3

    FEWALD:  cpu time    0.0030: real time    0.0035


--------------------------------------- Iteration      1(   1)  ---------------------------------------


    POTLOK:  cpu time    0.0470: real time    0.0507
    SETDIJ:  cpu time    1.5688: real time    1.5700
     EDDAV:  cpu time    5.2522: real time    5.2561
       DOS:  cpu time    0.0100: real time    0.0106
    --------------------------------------------
      LOOP:  cpu time    6.8780: real time    6.8878

 eigenvalue-minimisations  : 10488
 total energy-change (2. order) : 0.7528708E+02  (-0.7152400E+03)
 number of electron      16.0000000 magnetization      10.0000000
 augmentation part       16.0000000 magnetization      10.0000000

 Free energy of the ion-electron system (eV)
  ---------------------------------------------------
  alpha Z        PSCENC =       117.79976220
  Ewald energy   TEWEN  =     -1171.43779597
  -Hartree energ DENC   =      -228.04061712
  -exchange      EXHF   =         0.00000000
  -V(xc)+E(xc)   XCENC  =        14.27161930
  PAW double counting   =      1103.49540010    -1119.11610375
  entropy T*S    EENTRO =        -0.00100682
  eigenvalues    EBANDS =       169.69196208
  atomic energy  EATOM  =      1188.62386280
  Solvation  Ediel_sol  =         0.00000000
  ---------------------------------------------------
  free energy    TOTEN  =        75.28708282 eV

  energy without entropy =       75.28808965  energy(sigma->0) =       75.28741843


--------------------------------------------------------------------------------------------------------




--------------------------------------- Iteration      1(   2)  ---------------------------------------


     EDDAV:  cpu time    4.9472: real time    4.9688
       DOS:  cpu time    0.0110: real time    0.0108
    --------------------------------------------
      LOOP:  cpu time    4.9582: real time    4.9796

 eigenvalue-minimisations  :  9736
 total energy-change (2. order) :-0.8786806E+02  (-0.7793531E+02)
 number of electron      16.0000000 magnetization      10.0000000
 augmentation part       16.0000000 magnetization      10.0000000

 Free energy of the ion-electron system (eV)
  ---------------------------------------------------
  alpha Z        PSCENC =       117.79976220
  Ewald energy   TEWEN  =     -1171.43779597
  -Hartree energ DENC   =      -228.04061712
  -exchange      EXHF   =         0.00000000
  -V(xc)+E(xc)   XCENC  =        14.27161930
  PAW double counting   =      1103.49540010    -1119.11610375
  entropy T*S    EENTRO =         0.00002069
  eigenvalues    EBANDS =        81.82287605
  atomic energy  EATOM  =      1188.62386280
  Solvation  Ediel_sol  =         0.00000000
  ---------------------------------------------------
  free energy    TOTEN  =       -12.58097570 eV

  energy without entropy =      -12.58099639  energy(sigma->0) =      -12.58098260


--------------------------------------------------------------------------------------------------------




--------------------------------------- Iteration      1(   3)  ---------------------------------------


     EDDAV:  cpu time    5.3282: real time    5.3482
       DOS:  cpu time    0.0100: real time    0.0111
    --------------------------------------------
      LOOP:  cpu time    5.3382: real time    5.3594

 eigenvalue-minimisations  : 10784
 total energy-change (2. order) :-0.3476205E+01  (-0.3377391E+01)
 number of electron      16.0000000 magnetization      10.0000000
 augmentation part       16.0000000 magnetization      10.0000000

 Free energy of the ion-electron system (eV)
  ---------------------------------------------------
  alpha Z        PSCENC =       117.79976220
  Ewald energy   TEWEN  =     -1171.43779597
  -Hartree energ DENC   =      -228.04061712
  -exchange      EXHF   =         0.00000000
  -V(xc)+E(xc)   XCENC  =        14.27161930
  PAW double counting   =      1103.49540010    -1119.11610375
  entropy T*S    EENTRO =         0.00131728
  eigenvalues    EBANDS =        78.34537413
  atomic energy  EATOM  =      1188.62386280
  Solvation  Ediel_sol  =         0.00000000
  ---------------------------------------------------
  free energy    TOTEN  =       -16.05718103 eV

  energy without entropy =      -16.05849831  energy(sigma->0) =      -16.05762012


--------------------------------------------------------------------------------------------------------




--------------------------------------- Iteration      1(   4)  ---------------------------------------


     EDDAV:  cpu time    5.2402: real time    5.2602
       DOS:  cpu time    0.0100: real time    0.0111
    --------------------------------------------
      LOOP:  cpu time    5.2502: real time    5.2712

 eigenvalue-minimisations  : 10536
 total energy-change (2. order) :-0.2840874E-01  (-0.2839854E-01)
 number of electron      16.0000000 magnetization      10.0000000
 augmentation part       16.0000000 magnetization      10.0000000

 Free energy of the ion-electron system (eV)
  ---------------------------------------------------
  alpha Z        PSCENC =       117.79976220
  Ewald energy   TEWEN  =     -1171.43779597
  -Hartree energ DENC   =      -228.04061712
  -exchange      EXHF   =         0.00000000
  -V(xc)+E(xc)   XCENC  =        14.27161930
  PAW double counting   =      1103.49540010    -1119.11610375
  entropy T*S    EENTRO =         0.00134762
  eigenvalues    EBANDS =        78.31693504
  atomic energy  EATOM  =      1188.62386280
  Solvation  Ediel_sol  =         0.00000000
  ---------------------------------------------------
  free energy    TOTEN  =       -16.08558977 eV

  energy without entropy =      -16.08693740  energy(sigma->0) =      -16.08603898


--------------------------------------------------------------------------------------------------------




--------------------------------------- Iteration      1(   5)  ---------------------------------------


     EDDAV:  cpu time    5.2962: real time    5.3176
       DOS:  cpu time    0.0120: real time    0.0112
    CHARGE:  cpu time    0.3779: real time    0.3790
    MIXING:  cpu time    0.0010: real time    0.0013
    --------------------------------------------
      LOOP:  cpu time    5.6881: real time    5.7090

 eigenvalue-minimisations  : 10688
 total energy-change (2. order) :-0.3274370E-03  (-0.3274334E-03)
 number of electron      16.0000001 magnetization       4.3731370
 augmentation part        7.3746854 magnetization       2.7050122

 Broyden mixing:
  rms(total) = 0.19626E+01    rms(broyden)= 0.19625E+01
  rms(prec ) = 0.35427E+01
  weight for this iteration     100.00

 Free energy of the ion-electron system (eV)
  ---------------------------------------------------
  alpha Z        PSCENC =       117.79976220
  Ewald energy   TEWEN  =     -1171.43779597
  -Hartree energ DENC   =      -228.04061712
  -exchange      EXHF   =         0.00000000
  -V(xc)+E(xc)   XCENC  =        14.27161930
  PAW double counting   =      1103.49540010    -1119.11610375
  entropy T*S    EENTRO =         0.00134775
  eigenvalues    EBANDS =        78.31660747
  atomic energy  EATOM  =      1188.62386280
  Solvation  Ediel_sol  =         0.00000000
  ---------------------------------------------------
  free energy    TOTEN  =       -16.08591721 eV

  energy without entropy =      -16.08726496  energy(sigma->0) =      -16.08636646


--------------------------------------------------------------------------------------------------------




--------------------------------------- Iteration      1(   6)  ---------------------------------------


    POTLOK:  cpu time    0.0470: real time    0.0631
    SETDIJ:  cpu time    1.5568: real time    1.5571
     EDDAV:  cpu time    5.2692: real time    5.2735
       DOS:  cpu time    0.0100: real time    0.0116
    CHARGE:  cpu time    0.3539: real time    0.3539
    MIXING:  cpu time    0.0020: real time    0.0014
    --------------------------------------------
      LOOP:  cpu time    7.2379: real time    7.2606

 eigenvalue-minimisations  : 10632
 total energy-change (2. order) :-0.4707092E+00  (-0.5191378E+00)
 number of electron      16.0000001 magnetization       4.6271730
 augmentation part        8.4932212 magnetization       3.7971254

 Broyden mixing:
  rms(total) = 0.61771E+00    rms(broyden)= 0.61694E+00
  rms(prec ) = 0.69742E+00
  weight for this iteration     100.00

 eigenvalues of (default mixing * dielectric matrix)
  average eigenvalue GAMMA=   0.8758
  0.8758

 Free energy of the ion-electron system (eV)
  ---------------------------------------------------
  alpha Z        PSCENC =       117.79976220
  Ewald energy   TEWEN  =     -1171.43779597
  -Hartree energ DENC   =      -196.90306676
  -exchange      EXHF   =         0.00000000
  -V(xc)+E(xc)   XCENC  =         8.22887776
  PAW double counting   =      1215.84711689    -1228.03095016
  entropy T*S    EENTRO =        -0.00024058
  eigenvalues    EBANDS =        49.31580745
  atomic energy  EATOM  =      1188.62386280
  Solvation  Ediel_sol  =         0.00000000
  ---------------------------------------------------
  free energy    TOTEN  =       -16.55662637 eV

  energy without entropy =      -16.55638579  energy(sigma->0) =      -16.55654617


--------------------------------------------------------------------------------------------------------




--------------------------------------- Iteration      1(   7)  ---------------------------------------


    POTLOK:  cpu time    0.0470: real time    0.0622
    SETDIJ:  cpu time    1.5548: real time    1.5553
     EDDAV:  cpu time    5.5442: real time    5.5487
       DOS:  cpu time    0.0100: real time    0.0116
    CHARGE:  cpu time    0.3549: real time    0.3542
    MIXING:  cpu time    0.0010: real time    0.0013
    --------------------------------------------
      LOOP:  cpu time    7.5119: real time    7.5333

 eigenvalue-minimisations  : 11388
 total energy-change (2. order) : 0.6050855E-01  (-0.3915765E-01)
 number of electron      16.0000001 magnetization       4.4938149
 augmentation part        8.2509489 magnetization       3.7109696

 Broyden mixing:
  rms(total) = 0.44352E+00    rms(broyden)= 0.44340E+00
  rms(prec ) = 0.52731E+00
  weight for this iteration     100.00

 eigenvalues of (default mixing * dielectric matrix)
  average eigenvalue GAMMA=   0.7718
  1.0298  0.5139

 Free energy of the ion-electron system (eV)
  ---------------------------------------------------
  alpha Z        PSCENC =       117.79976220
  Ewald energy   TEWEN  =     -1171.43779597
  -Hartree energ DENC   =      -199.54528309
  -exchange      EXHF   =         0.00000000
  -V(xc)+E(xc)   XCENC  =         8.86678113
  PAW double counting   =      1292.71005937    -1307.95022897
  entropy T*S    EENTRO =        -0.00219605
  eigenvalues    EBANDS =        54.43892077
  atomic energy  EATOM  =      1188.62386280
  Solvation  Ediel_sol  =         0.00000000
  ---------------------------------------------------
  free energy    TOTEN  =       -16.49611781 eV

  energy without entropy =      -16.49392176  energy(sigma->0) =      -16.49538579


--------------------------------------------------------------------------------------------------------




--------------------------------------- Iteration      1(   8)  ---------------------------------------


    POTLOK:  cpu time    0.0470: real time    0.0631
    SETDIJ:  cpu time    1.5578: real time    1.5577
     EDDAV:  cpu time    6.0301: real time    6.0359
       DOS:  cpu time    0.0110: real time    0.0117
    CHARGE:  cpu time    0.3549: real time    0.3555
    MIXING:  cpu time    0.0010: real time    0.0013
    --------------------------------------------
      LOOP:  cpu time    8.0028: real time    8.0251

 eigenvalue-minimisations  : 12632
 total energy-change (2. order) : 0.1649545E-01  (-0.1064097E-02)
 number of electron      16.0000001 magnetization       4.4152965
 augmentation part        8.2796569 magnetization       3.6334760

 Broyden mixing:
  rms(total) = 0.16032E+00    rms(broyden)= 0.16028E+00
  rms(prec ) = 0.23135E+00
  weight for this iteration     100.00

 eigenvalues of (default mixing * dielectric matrix)
  average eigenvalue GAMMA=   1.1044
  1.8649  0.8738  0.5745

 Free energy of the ion-electron system (eV)
  ---------------------------------------------------
  alpha Z        PSCENC =       117.79976220
  Ewald energy   TEWEN  =     -1171.43779597
  -Hartree energ DENC   =      -197.78622003
  -exchange      EXHF   =         0.00000000
  -V(xc)+E(xc)   XCENC  =         8.62972287
  PAW double counting   =      1330.92245249    -1346.98054317
  entropy T*S    EENTRO =        -0.00250583
  eigenvalues    EBANDS =        53.75164227
  atomic energy  EATOM  =      1188.62386280
  Solvation  Ediel_sol  =         0.00000000
  ---------------------------------------------------
  free energy    TOTEN  =       -16.47962236 eV

  energy without entropy =      -16.47711654  energy(sigma->0) =      -16.47878709


--------------------------------------------------------------------------------------------------------




--------------------------------------- Iteration      1(   9)  ---------------------------------------


    POTLOK:  cpu time    0.0480: real time    0.0629
    SETDIJ:  cpu time    1.5588: real time    1.5606
     EDDAV:  cpu time    6.6160: real time    6.6214
       DOS:  cpu time    0.0100: real time    0.0111
    CHARGE:  cpu time    0.3539: real time    0.3543
    MIXING:  cpu time    0.0020: real time    0.0014
    --------------------------------------------
      LOOP:  cpu time    8.5877: real time    8.6117

 eigenvalue-minimisations  : 14128
 total energy-change (2. order) : 0.1128174E-01  (-0.3315140E-03)
 number of electron      16.0000001 magnetization       4.4601173
 augmentation part        8.3211125 magnetization       3.6772693

 Broyden mixing:
  rms(total) = 0.43251E-01    rms(broyden)= 0.43225E-01
  rms(prec ) = 0.50882E-01
  weight for this iteration     100.00

 eigenvalues of (default mixing * dielectric matrix)
  average eigenvalue GAMMA=   1.1870
  2.3356  1.0607  0.6758  0.6758

 Free energy of the ion-electron system (eV)
  ---------------------------------------------------
  alpha Z        PSCENC =       117.79976220
  Ewald energy   TEWEN  =     -1171.43779597
  -Hartree energ DENC   =      -195.33608686
  -exchange      EXHF   =         0.00000000
  -V(xc)+E(xc)   XCENC  =         8.47674128
  PAW double counting   =      1391.30490180    -1408.72527056
  entropy T*S    EENTRO =        -0.00286276
  eigenvalues    EBANDS =        52.82840744
  atomic energy  EATOM  =      1188.62386280
  Solvation  Ediel_sol  =         0.00000000
  ---------------------------------------------------
  free energy    TOTEN  =       -16.46834063 eV

  energy without entropy =      -16.46547786  energy(sigma->0) =      -16.46738637


--------------------------------------------------------------------------------------------------------




--------------------------------------- Iteration      1(  10)  ---------------------------------------


    POTLOK:  cpu time    0.0470: real time    0.0632
    SETDIJ:  cpu time    1.5608: real time    1.5608
     EDDAV:  cpu time    5.5882: real time    5.5930
       DOS:  cpu time    0.0100: real time    0.0110
    CHARGE:  cpu time    0.3529: real time    0.3536
    MIXING:  cpu time    0.0020: real time    0.0015
    --------------------------------------------
      LOOP:  cpu time    7.5609: real time    7.5829

 eigenvalue-minimisations  : 11464
 total energy-change (2. order) : 0.4206756E-03  (-0.1824333E-03)
 number of electron      16.0000001 magnetization       4.4732323
 augmentation part        8.3074842 magnetization       3.6844873

 Broyden mixing:
  rms(total) = 0.65065E-02    rms(broyden)= 0.65014E-02
  rms(prec ) = 0.88108E-02
  weight for this iteration     100.00

 eigenvalues of (default mixing * dielectric matrix)
  average eigenvalue GAMMA=   1.1453
  2.4111  1.1325  0.6344  0.7743  0.7743

 Free energy of the ion-electron system (eV)
  ---------------------------------------------------
  alpha Z        PSCENC =       117.79976220
  Ewald energy   TEWEN  =     -1171.43779597
  -Hartree energ DENC   =      -195.20420971
  -exchange      EXHF   =         0.00000000
  -V(xc)+E(xc)   XCENC  =         8.51640421
  PAW double counting   =      1409.37853977    -1427.29729298
  entropy T*S    EENTRO =        -0.00277518
  eigenvalues    EBANDS =        53.15558490
  atomic energy  EATOM  =      1188.62386280
  Solvation  Ediel_sol  =         0.00000000
  ---------------------------------------------------
  free energy    TOTEN  =       -16.46791995 eV

  energy without entropy =      -16.46514477  energy(sigma->0) =      -16.46699489


--------------------------------------------------------------------------------------------------------




--------------------------------------- Iteration      1(  11)  ---------------------------------------


    POTLOK:  cpu time    0.0470: real time    0.0625
    SETDIJ:  cpu time    1.5608: real time    1.5611
     EDDAV:  cpu time    5.6611: real time    5.7206
       DOS:  cpu time    0.0110: real time    0.0118
    CHARGE:  cpu time    0.3519: real time    0.3520
    MIXING:  cpu time    0.0010: real time    0.0015
    --------------------------------------------
      LOOP:  cpu time    7.6328: real time    7.7095

 eigenvalue-minimisations  : 11568
 total energy-change (2. order) :-0.3636136E-04  (-0.7924808E-05)
 number of electron      16.0000001 magnetization       4.4708359
 augmentation part        8.3091359 magnetization       3.6822055

 Broyden mixing:
  rms(total) = 0.46939E-02    rms(broyden)= 0.46937E-02
  rms(prec ) = 0.51046E-02
  weight for this iteration     100.00

 eigenvalues of (default mixing * dielectric matrix)
  average eigenvalue GAMMA=   1.1197
  2.4039  1.2788  1.0095  0.6988  0.6988  0.6284

 Free energy of the ion-electron system (eV)
  ---------------------------------------------------
  alpha Z        PSCENC =       117.79976220
  Ewald energy   TEWEN  =     -1171.43779597
  -Hartree energ DENC   =      -195.15943839
  -exchange      EXHF   =         0.00000000
  -V(xc)+E(xc)   XCENC  =         8.53036884
  PAW double counting   =      1411.44478524    -1429.38365312
  entropy T*S    EENTRO =        -0.00277506
  eigenvalues    EBANDS =        53.11692714
  atomic energy  EATOM  =      1188.62386280
  Solvation  Ediel_sol  =         0.00000000
  ---------------------------------------------------
  free energy    TOTEN  =       -16.46795631 eV

  energy without entropy =      -16.46518125  energy(sigma->0) =      -16.46703129


--------------------------------------------------------------------------------------------------------




--------------------------------------- Iteration      1(  12)  ---------------------------------------


    POTLOK:  cpu time    0.0470: real time    0.0630
    SETDIJ:  cpu time    1.5568: real time    1.5569
     EDDAV:  cpu time    5.0652: real time    5.0716
       DOS:  cpu time    0.0100: real time    0.0116
    CHARGE:  cpu time    0.3529: real time    0.3529
    MIXING:  cpu time    0.0020: real time    0.0015
    --------------------------------------------
      LOOP:  cpu time    7.0339: real time    7.0576

 eigenvalue-minimisations  :  9924
 total energy-change (2. order) : 0.1027276E-04  (-0.2610050E-06)
 number of electron      16.0000001 magnetization       4.4695558
 augmentation part        8.3093282 magnetization       3.6809908

 Broyden mixing:
  rms(total) = 0.18932E-02    rms(broyden)= 0.18931E-02
  rms(prec ) = 0.22842E-02
  weight for this iteration     100.00

 eigenvalues of (default mixing * dielectric matrix)
  average eigenvalue GAMMA=   1.2405
  2.4524  2.2841  1.0940  0.8415  0.6648  0.6648  0.6823

 Free energy of the ion-electron system (eV)
  ---------------------------------------------------
  alpha Z        PSCENC =       117.79976220
  Ewald energy   TEWEN  =     -1171.43779597
  -Hartree energ DENC   =      -195.17093371
  -exchange      EXHF   =         0.00000000
  -V(xc)+E(xc)   XCENC  =         8.52841452
  PAW double counting   =      1411.60202533    -1429.52110722
  entropy T*S    EENTRO =        -0.00277008
  eigenvalues    EBANDS =        53.11059610
  atomic energy  EATOM  =      1188.62386280
  Solvation  Ediel_sol  =         0.00000000
  ---------------------------------------------------
  free energy    TOTEN  =       -16.46794604 eV

  energy without entropy =      -16.46517596  energy(sigma->0) =      -16.46702268


--------------------------------------------------------------------------------------------------------




--------------------------------------- Iteration      1(  13)  ---------------------------------------


    POTLOK:  cpu time    0.0470: real time    0.0636
    SETDIJ:  cpu time    1.5568: real time    1.5569
     EDDAV:  cpu time    4.3653: real time    4.3696
       DOS:  cpu time    0.0110: real time    0.0115
    CHARGE:  cpu time    0.3509: real time    0.3520
    MIXING:  cpu time    0.0020: real time    0.0016
    --------------------------------------------
      LOOP:  cpu time    6.3340: real time    6.3552

 eigenvalue-minimisations  :  7908
 total energy-change (2. order) :-0.1323655E-05  (-0.1237447E-06)
 number of electron      16.0000001 magnetization       4.4688243
 augmentation part        8.3096146 magnetization       3.6803098

 Broyden mixing:
  rms(total) = 0.10175E-02    rms(broyden)= 0.10175E-02
  rms(prec ) = 0.11987E-02
  weight for this iteration     100.00

 eigenvalues of (default mixing * dielectric matrix)
  average eigenvalue GAMMA=   1.2422
  2.6447  2.3684  1.1660  1.0657  0.7835  0.6665  0.6665  0.5766

 Free energy of the ion-electron system (eV)
  ---------------------------------------------------
  alpha Z        PSCENC =       117.79976220
  Ewald energy   TEWEN  =     -1171.43779597
  -Hartree energ DENC   =      -195.17739481
  -exchange      EXHF   =         0.00000000
  -V(xc)+E(xc)   XCENC  =         8.52875005
  PAW double counting   =      1412.17770440    -1430.08364890
  entropy T*S    EENTRO =        -0.00277330
  eigenvalues    EBANDS =        53.10358616
  atomic energy  EATOM  =      1188.62386280
  Solvation  Ediel_sol  =         0.00000000
  ---------------------------------------------------
  free energy    TOTEN  =       -16.46794736 eV

  energy without entropy =      -16.46517406  energy(sigma->0) =      -16.46702293


--------------------------------------------------------------------------------------------------------




--------------------------------------- Iteration      1(  14)  ---------------------------------------


    POTLOK:  cpu time    0.0470: real time    0.0636
    SETDIJ:  cpu time    1.5618: real time    1.5614
     EDDAV:  cpu time    3.5115: real time    3.5150
       DOS:  cpu time    0.0110: real time    0.0116
    --------------------------------------------
      LOOP:  cpu time    5.1312: real time    5.1516

 eigenvalue-minimisations  :  5324
 total energy-change (2. order) : 0.7348181E-06  (-0.2878578E-07)
 number of electron      16.0000001 magnetization       4.4688243
 augmentation part        8.3096146 magnetization       3.6803098

 Free energy of the ion-electron system (eV)
  ---------------------------------------------------
  alpha Z        PSCENC =       117.79976220
  Ewald energy   TEWEN  =     -1171.43779597
  -Hartree energ DENC   =      -195.18172431
  -exchange      EXHF   =         0.00000000
  -V(xc)+E(xc)   XCENC  =         8.52755879
  PAW double counting   =      1412.17453108    -1430.07944664
  entropy T*S    EENTRO =        -0.00277381
  eigenvalues    EBANDS =        53.10807923
  atomic energy  EATOM  =      1188.62386280
  Solvation  Ediel_sol  =         0.00000000
  ---------------------------------------------------
  free energy    TOTEN  =       -16.46794663 eV

  energy without entropy =      -16.46517281  energy(sigma->0) =      -16.46702202


--------------------------------------------------------------------------------------------------------




 average (electrostatic) potential at core
  the test charge radii are     1.0103
  (the norm of the test charge is              1.0000)
       1 -43.6102       2 -43.6102
 
 
 
 E-fermi :   5.4701     XC(G=0): -12.9336     alpha+bet :-13.2097

 Fermi energy:         5.4701335006

 spin component 1

 k-point     1 :       0.0000    0.0000    0.0000
  band No.  band energies     occupation 
      1      -2.7433      1.00000
      2       0.8350      1.00000
      3       0.8350      1.00000
      4       3.2502      1.00000
      5       3.2502      1.00000
      6       3.2502      1.00000
      7       4.4004      1.00000
      8       4.4004      1.00000
      9       5.5527      0.18140
     10       5.5527      0.18139
     11       5.5527      0.18139
     12      15.2083      0.00000
     13      15.2083      0.00000
     14      15.2083      0.00000
     15      20.8159      0.00000
     16      20.8159      0.00000
     17      25.5410      0.00000
     18      30.2061      0.00000
     19      30.2061      0.00000
     20      30.2061      0.00000

 k-point     2 :       0.0667    0.0000    0.0000
  band No.  band energies     occupation 
      1      -2.6533      1.00000
      2       0.8727      1.00000
      3       0.8738      1.00000
      4       3.2497      1.00000
      5       3.2497      1.00000
      6       3.2744      1.00000
      7       4.3616      1.00000
      8       4.4158      1.00000
      9       5.4788      0.46316
     10       5.4788      0.46316
     11       5.5266      0.27129
     12      14.5435      0.00000
     13      15.3771      0.00000
     14      15.3771      0.00000
     15      20.8433      0.00000
     16      21.3161      0.00000
     17      25.8420      0.00000
     18      29.5675      0.00000
     19      30.1137      0.00000
     20      30.1137      0.00000

 k-point     3 :       0.1333    0.0000    0.0000
  band No.  band energies     occupation 
      1      -2.3865      1.00000
      2       0.9831      1.00000
      3       0.9843      1.00000
      4       3.2504      1.00000
      5       3.2504      1.00000
      6       3.3460      1.00000
      7       4.2467      1.00000
      8       4.4609      1.00000
      9       5.2755      1.02214
     10       5.2755      1.02214
     11       5.4496      0.58656
     12      13.0891      0.00000
     13      15.8648      0.00000
     14      15.8648      0.00000
     15      20.9267      0.00000
     16      22.1685      0.00000
     17      26.8624      0.00000
     18      28.3032      0.00000
     19      29.7119      0.00000
     20      29.7119      0.00000

 k-point     4 :       0.2000   -0.0000    0.0000
  band No.  band energies     occupation 
      1      -1.9539      1.00000
      2       1.1408      1.00000
      3       1.1659      1.00000
      4       3.2591      1.00000
      5       3.2591      1.00000
      6       3.4621      1.00000
      7       4.0599      1.00000
      8       4.5331      1.00000
[...]

 k-point   114 :       0.4000    0.4000    0.3333
  band No.  band energies     occupation 
      1       3.4129      1.00000
      2       3.5296      1.00000
      3       3.9814      1.00000
      4       4.0900      1.00000
      5       4.1402      1.00000
      6       4.3934      1.00000
      7       7.5974     -0.00000
      8       7.6471     -0.00000
      9       7.7076     -0.00000
     10       7.7363     -0.00000
     11      10.8140     -0.00000
     12      12.9096      0.00000
     13      14.5442      0.00000
     14      16.6748      0.00000
     15      17.3142      0.00000
     16      19.0166      0.00000
     17      20.1000      0.00000
     18      22.7473      0.00000
     19      36.3535      0.00000
     20      37.8836      0.00000

 k-point   115 :       0.4667    0.4000    0.3333
  band No.  band energies     occupation 
      1       3.4735      1.00000
      2       3.4910      1.00000
      3       3.9670      1.00000
      4       4.0086      1.00000
      5       4.3172      1.00000
      6       4.4249      1.00000
      7       7.6240     -0.00000
      8       7.6427     -0.00000
      9       7.7597     -0.00000
     10       7.7699     -0.00000
     11      11.4995      0.00000
     12      12.2681      0.00000
     13      15.1933      0.00000
     14      16.1794      0.00000
     15      17.3302      0.00000
     16      18.2417      0.00000
     17      20.5200      0.00000
     18      21.5223      0.00000
     19      37.1569      0.00000
     20      37.7805      0.00000

 k-point   116 :       0.4667    0.4667    0.3333
  band No.  band energies     occupation 
      1       3.4897      1.00000
      2       3.4915      1.00000
      3       3.9219      1.00000
      4       3.9405      1.00000
      5       4.4613      1.00000
      6       4.5025      1.00000
      7       7.6643     -0.00000
      8       7.6714     -0.00000
      9       7.7864     -0.00000
     10       7.7897     -0.00000
     11      12.1011      0.00000
     12      12.4732      0.00000
     13      14.8211      0.00000
     14      15.2622      0.00000
     15      18.0486      0.00000
     16      18.6968      0.00000
     17      19.6585      0.00000
     18      20.3321      0.00000
     19      37.9100      0.00000
     20      38.1773      0.00000

 k-point   117 :       0.4000    0.4000    0.4000
  band No.  band energies     occupation 
      1       3.6167      1.00000
      2       3.7820      1.00000
      3       3.9510      1.00000
      4       3.9511      1.00000
      5       4.1890      1.00000
      6       4.1891      1.00000
      7       7.7041     -0.00000
      8       7.7042     -0.00000
      9       7.7316     -0.00000
     10       7.7318     -0.00000
     11      11.5297      0.00000
     12      14.0089      0.00000
     13      14.0089      0.00000
     14      16.2926      0.00000
     15      17.6851      0.00000
     16      17.6851      0.00000
     17      19.0208      0.00000
     18      21.3796      0.00000
     19      38.5263      0.00000
     20      38.5264      0.00000

 k-point   118 :       0.4667    0.4000    0.4000
  band No.  band energies     occupation 
      1       3.6603      1.00000
      2       3.7391      1.00000
      3       3.9694      1.00000
      4       4.0471      1.00000
      5       4.1290      1.00000
      6       4.2379      1.00000
      7       7.7119     -0.00000
      8       7.7227     -0.00000
      9       7.7681     -0.00000
     10       7.7772     -0.00000
     11      12.2995      0.00000
     12      13.1512      0.00000
     13      15.1751      0.00000
     14      16.4024      0.00000
     15      16.6058      0.00000
     16      17.2645      0.00000
     17      19.2153      0.00000
     18      20.1704      0.00000
     19      39.2108      0.00000
     20      39.7890      0.00000

 k-point   119 :       0.4667    0.4667    0.4000
  band No.  band energies     occupation 
      1       3.7414      1.00000
      2       3.8082      1.00000
      3       3.9091      1.00000
      4       3.9723      1.00000
      5       4.1991      1.00000
      6       4.2400      1.00000
      7       7.7477     -0.00000
      8       7.7516     -0.00000
      9       7.7926     -0.00000
     10       7.7959     -0.00000
     11      13.0801      0.00000
     12      13.6093      0.00000
     13      14.9731      0.00000
     14      15.6402      0.00000
     15      16.8748      0.00000
     16      17.3577      0.00000
     17      18.4253      0.00000
     18      19.0190      0.00000
     19      40.3708      0.00000
     20      40.6669      0.00000

 k-point   120 :       0.4667    0.4667    0.4667
  band No.  band energies     occupation 
      1       3.8604      1.00000
      2       3.9497      1.00000
      3       3.9498      1.00000
      4       4.0571      1.00000
      5       4.0571      1.00000
      6       4.0622      1.00000
      7       7.7971     -0.00000
      8       7.7972     -0.00000
      9       7.7983     -0.00000
     10       7.7985     -0.00000
     11      14.0307      0.00000
     12      14.8065      0.00000
     13      14.8065      0.00000
     14      16.0582      0.00000
     15      16.0582      0.00000
     16      16.2349      0.00000
     17      17.7106      0.00000
     18      18.0005      0.00000
     19      42.8336      0.00000
     20      42.8444      0.00000


--------------------------------------------------------------------------------------------------------


 soft charge-density along one line, spin component           1
         0         1         2         3         4         5         6         7         8         9
 total charge-density along one line
 
 soft charge-density along one line, spin component           2
         0         1         2         3         4         5         6         7         8         9
 total charge-density along one line
 
 pseudopotential strength for first ion, spin component:           1
 -5.581   0.000   0.000   0.000  -0.000  -6.112   0.000   0.000
  0.000  -5.581   0.000   0.000   0.000   0.000  -6.112   0.000
  0.000   0.000  -5.790   0.000   0.000   0.000   0.000  -6.314
  0.000   0.000   0.000  -5.581  -0.000   0.000   0.000   0.000
 -0.000   0.000   0.000  -0.000  -5.790  -0.000   0.000   0.000
 -6.112   0.000   0.000   0.000  -0.000  -6.601   0.000   0.000
  0.000  -6.112   0.000   0.000   0.000   0.000  -6.601   0.000
  0.000   0.000  -6.314   0.000   0.000   0.000   0.000  -6.797
  0.000   0.000   0.000  -6.112  -0.000   0.000   0.000   0.000
 -0.000   0.000   0.000  -0.000  -6.314  -0.000   0.000   0.000
  0.000   0.000   0.000   0.000  -0.000   0.000   0.000   0.000
  0.000   0.000   0.000   0.000  -0.000   0.000   0.000   0.000
  0.000   0.000   0.000   0.000   0.000   0.000   0.000   0.000
  0.000  -0.000   0.000  -0.000  -0.000   0.000  -0.000   0.000
 -0.000   0.000  -0.000   0.000  -0.000  -0.000   0.000  -0.000
  0.000   0.000   0.000   0.000   0.000   0.000   0.000   0.000
  0.000  -0.000   0.000  -0.000  -0.000   0.000  -0.000   0.000
 -0.000   0.000  -0.000   0.000  -0.000  -0.000   0.000  -0.000
 pseudopotential strength for first ion, spin component:           2
 -4.148   0.000   0.000   0.000  -0.000  -4.723   0.000   0.000
  0.000  -4.148  -0.000   0.000  -0.000   0.000  -4.723  -0.000
  0.000  -0.000  -3.898  -0.000  -0.000   0.000  -0.000  -4.482
  0.000   0.000  -0.000  -4.147   0.000   0.000   0.000  -0.000
 -0.000  -0.000  -0.000   0.000  -3.898  -0.000  -0.000  -0.000
 -4.723   0.000   0.000   0.000  -0.000  -5.255   0.000   0.000
  0.000  -4.723  -0.000   0.000  -0.000   0.000  -5.255  -0.000
  0.000  -0.000  -4.482  -0.000  -0.000   0.000  -0.000  -5.022
  0.000   0.000  -0.000  -4.723   0.000   0.000   0.000  -0.000
 -0.000  -0.000  -0.000   0.000  -4.482  -0.000  -0.000  -0.000
  0.000  -0.000  -0.000  -0.000   0.000   0.000  -0.000  -0.000
  0.000  -0.000  -0.000  -0.000   0.000   0.000  -0.000  -0.000
  0.000   0.000   0.000   0.000   0.000   0.000   0.000   0.000
  0.000  -0.000   0.000   0.000  -0.000   0.000  -0.000   0.000
 -0.000   0.000  -0.000   0.000  -0.000  -0.000   0.000  -0.000
  0.000   0.000   0.000  -0.000   0.000   0.000   0.000   0.000
 -0.000  -0.000   0.000   0.000  -0.000   0.000  -0.000   0.000
 -0.000  -0.000  -0.000   0.000  -0.000  -0.000   0.000  -0.000
 total augmentation occupancy for first ion, spin component:           1
  2.238   0.000  -0.000   0.000  -0.000  -1.247  -0.000   0.000  -0.000   0.000   0.000   0.000   0.000   0.000  -0.000   0.000
  0.000   2.238   0.000   0.000  -0.000  -0.000  -1.247   0.000  -0.000   0.000  -0.000   0.000   0.000   0.000   0.000   0.000
 -0.000   0.000   3.648   0.000  -0.000   0.000   0.000  -2.379  -0.000  -0.000  -0.000   0.000  -0.000  -0.000   0.000   0.000
  0.000   0.000   0.000   2.238   0.000  -0.000  -0.000  -0.000  -1.247  -0.000   0.000  -0.000   0.000   0.000   0.000   0.000
 -0.000  -0.000  -0.000   0.000   3.648   0.000   0.000  -0.000  -0.000  -2.379  -0.000   0.000   0.000   0.000   0.000   0.000
 -1.247  -0.000   0.000  -0.000   0.000   1.651   0.000  -0.000   0.000  -0.000  -0.000   0.000   0.000   0.000   0.000   0.000
 -0.000  -1.247   0.000  -0.000   0.000   0.000   1.651   0.000   0.000  -0.000   0.000  -0.000   0.000   0.000   0.000   0.000
  0.000  -0.000  -2.379  -0.000   0.000  -0.000   0.000   2.371   0.000   0.000  -0.000  -0.000   0.000   0.000  -0.000   0.000
 -0.000  -0.000   0.000  -1.247  -0.000   0.000   0.000   0.000   1.651   0.000  -0.000   0.000   0.000   0.000   0.000   0.000
  0.000   0.000   0.000  -0.000  -2.379  -0.000  -0.000   0.000   0.000   2.371   0.000   0.000  -0.000  -0.000  -0.000  -0.000
 -0.000  -0.000  -0.000   0.000  -0.000   0.000   0.000  -0.000  -0.000  -0.000   2.425  -0.282   0.000   0.000   0.000   0.000
  0.000   0.000   0.000   0.000   0.000  -0.000  -0.000  -0.000   0.000   0.000  -0.282   0.038   0.000   0.000   0.000   0.000
  0.000   0.000   0.000   0.000  -0.000   0.000   0.000  -0.000   0.000  -0.000   0.000   0.000   0.295   0.000   0.000  -0.026
  0.000   0.000   0.000   0.000   0.000   0.000   0.000  -0.000   0.000  -0.000   0.000   0.000   0.000   0.295   0.000  -0.000
 -0.000   0.000  -0.000   0.000   0.000   0.000   0.000   0.000   0.000   0.000   0.000   0.000   0.000   0.000   0.295  -0.000
  0.000   0.000   0.000   0.000   0.000   0.000   0.000   0.000   0.000  -0.000   0.000   0.000  -0.026  -0.000  -0.000   0.002
  0.000   0.000  -0.000   0.000   0.000   0.000   0.000   0.000   0.000   0.000   0.000   0.000  -0.000  -0.026  -0.000   0.000
  0.000   0.000   0.000   0.000  -0.000   0.000   0.000   0.000   0.000   0.000   0.000   0.000  -0.000  -0.000  -0.026   0.000
 total augmentation occupancy for first ion, spin component:           2
  1.853   0.000  -0.000   0.000  -0.000  -0.767  -0.000   0.000  -0.000   0.000  -0.000  -0.000   0.000   0.000   0.000   0.000
  0.000   1.853   0.000   0.000  -0.000  -0.000  -0.767  -0.000  -0.000   0.000   0.000  -0.000   0.000   0.000   0.000   0.000
 -0.000   0.000   3.075   0.000  -0.000   0.000  -0.000  -1.361   0.000   0.000   0.000  -0.000  -0.000   0.000  -0.000   0.000
  0.000   0.000   0.000   1.853   0.000  -0.000  -0.000  -0.000  -0.767  -0.000   0.000  -0.000   0.000   0.000   0.000   0.000
 -0.000  -0.000   0.000   0.000   3.075   0.000   0.000   0.000  -0.000  -1.361   0.000   0.000   0.000  -0.000   0.000  -0.000
 -0.767  -0.000   0.000  -0.000   0.000   0.077   0.000  -0.000   0.000  -0.000   0.000  -0.000   0.000   0.000   0.000   0.000
 -0.000  -0.767   0.000  -0.000   0.000   0.000   0.077  -0.000   0.000  -0.000   0.000  -0.000   0.000   0.000   0.000   0.000
  0.000   0.000  -1.361  -0.000  -0.000  -0.000   0.000   0.362  -0.000   0.000  -0.000   0.000   0.000   0.000   0.000  -0.000
 -0.000  -0.000   0.000  -0.767  -0.000   0.000   0.000  -0.000   0.077   0.000   0.000   0.000   0.000   0.000   0.000   0.000
  0.000   0.000   0.000  -0.000  -1.361  -0.000  -0.000  -0.000   0.000   0.362  -0.000  -0.000  -0.000  -0.000  -0.000   0.000
 -0.000  -0.000   0.000   0.000   0.000  -0.000   0.000   0.000  -0.000   0.000  -0.329   0.099   0.000   0.000   0.000   0.000
 -0.000  -0.000  -0.000   0.000  -0.000  -0.000  -0.000   0.000   0.000  -0.000   0.099  -0.017   0.000   0.000   0.000   0.000
  0.000   0.000   0.000   0.000  -0.000   0.000   0.000  -0.000   0.000   0.000   0.000   0.000  -0.037  -0.000  -0.000   0.006
  0.000   0.000   0.000   0.000   0.000   0.000   0.000   0.000   0.000  -0.000   0.000   0.000  -0.000  -0.037  -0.000   0.000
  0.000   0.000   0.000   0.000   0.000   0.000   0.000   0.000   0.000   0.000   0.000   0.000  -0.000  -0.000  -0.037   0.000
  0.000   0.000   0.000   0.000   0.000   0.000   0.000   0.000   0.000  -0.000   0.000   0.000   0.006   0.000   0.000  -0.001
  0.000   0.000   0.000   0.000   0.000   0.000   0.000   0.000   0.000   0.000   0.000   0.000   0.000   0.006   0.000  -0.000
  0.000   0.000   0.000   0.000   0.000   0.000   0.000   0.000   0.000   0.000   0.000   0.000   0.000   0.000   0.006  -0.000


------------------------ aborting loop because EDIFF is reached ----------------------------------------





 total charge

# of ion       s       p       d       tot
------------------------------------------
    1        0.488   0.543   6.242   7.273
    2        0.488   0.543   6.242   7.273
--------------------------------------------------
tot          0.976   1.086  12.484  14.547



 magnetization (x)

# of ion       s       p       d       tot
------------------------------------------
    1       -0.014  -0.057   2.247   2.177
    2       -0.014  -0.057   2.247   2.177
--------------------------------------------------
tot         -0.027  -0.115   4.495   4.353
 
    CHARGE:  cpu time    0.3549: real time    0.3559
    FORLOC:  cpu time    0.0000: real time    0.0010
    FORNL :  cpu time    0.5759: real time    0.5751
    STRESS:  cpu time    2.0497: real time    2.0507
    FORCOR:  cpu time    0.0450: real time    0.0449
    FORHAR:  cpu time    0.0030: real time    0.0037
    MIXING:  cpu time    0.0010: real time    0.0012
    OFIELD:  cpu time    0.0010: real time    0.0002

  FORCE on cell =-STRESS in cart. coord.  units (eV):
  Direction    XX          YY          ZZ          XY          YZ          ZX
  --------------------------------------------------------------------------------------
  Alpha Z   121.97180   121.97180   121.97180
  Ewald    -395.03564  -395.03564  -395.03564    -0.00000    -0.00000    -0.00000
  Hartree    63.24628    63.24628    63.24628    -0.00000    -0.00000    -0.00000
  E(xc)     -79.45172   -79.45172   -79.45172    -0.00000     0.00000     0.00000
  Local     118.05705   118.05705   118.05705     0.00000    -0.00000    -0.00000
  n-local   -54.85121   -51.72855   -49.07006     2.48469    -0.87578     0.68827
  augment    77.40188    77.40188    77.40188    -0.00000     0.00000     0.00000
  Kinetic   148.15843   145.30222   143.61325     2.80176    -0.53457     0.11341
  Fock        0.00000     0.00000     0.00000     0.00000     0.00000     0.00000
  -------------------------------------------------------------------------------------
  Total      -0.00231    -0.00231    -0.00231     0.00000    -0.00000    -0.00000
  in kB      -0.16355    -0.16355    -0.16355     0.00000    -0.00000    -0.00000
  external pressure =       -0.16 kB  Pullay stress =        0.00 kB


 VOLUME and BASIS-vectors are now :
 -----------------------------------------------------------------------------
  energy-cutoff  :      450.00
  volume of cell :       22.67
      direct lattice vectors                 reciprocal lattice vectors
     2.830012773 -0.000000000  0.000000000     0.353355296 -0.000000000 -0.000000000
     0.000000000  2.830012773  0.000000000     0.000000000  0.353355296  0.000000000
     0.000000000 -0.000000000  2.830012773    -0.000000000 -0.000000000  0.353355296

  length of vectors
     2.830012773  2.830012773  2.830012773     0.353355296  0.353355296  0.353355296


 FORCES acting on ions
    electron-ion (+dipol)            ewald-force                    non-local-force                 convergence-correction
 -----------------------------------------------------------------------------------------------
   0.125E-14 -.452E-15 0.317E-14   -.661E-14 -.243E-14 -.272E-14   -.510E-25 0.129E-27 -.517E-25   -.317E-13 0.124E-13 -.252E-13
   -.584E-13 0.633E-12 0.345E-13   0.762E-14 0.232E-14 0.215E-14   -.548E-26 -.171E-28 -.388E-25   0.655E-14 0.124E-13 -.193E-14
 -----------------------------------------------------------------------------------------------
   -.572E-13 0.632E-12 0.377E-13   0.101E-14 -.104E-15 -.569E-15   -.565E-25 0.111E-27 -.905E-25   -.252E-13 0.248E-13 -.271E-13
 
 
 POSITION                                       TOTAL-FORCE (eV/Angst)
 -----------------------------------------------------------------------------------
      0.00000      0.00000     -0.00000        -0.000000      0.000000      0.000000
      1.41501      1.41501      1.41501         0.000000     -0.000000     -0.000000
 -----------------------------------------------------------------------------------
    total drift:                               -0.000000      0.000000      0.000000


--------------------------------------------------------------------------------------------------------



  FREE ENERGIE OF THE ION-ELECTRON SYSTEM (eV)
  ---------------------------------------------------
  free  energy   TOTEN  =       -16.48415780 eV

  energy  without entropy=      -16.48149749  energy(sigma->0) =      -16.48327103
 
 d Force = 0.0000000E+00[ 0.000E+00, 0.000E+00]  d Energy = 0.1414192E-01-0.141E-01
 d Force = 0.0000000E+00[ 0.000E+00, 0.000E+00]  d Ewald  =-0.1259018E+02 0.126E+02


--------------------------------------------------------------------------------------------------------


    POTLOK:  cpu time    1.5998: real time    1.6072


--------------------------------------------------------------------------------------------------------




--------------------------------------------------------------------------------------------------------


  
 reached required accuracy - stopping structural energy minimisation
 writing wavefunctions
     LOOP+:  cpu time   68.8975: real time   70.8046
    4ORBIT:  cpu time    0.0000: real time    0.0000



 total charge

# of ion       s       p       d       tot
------------------------------------------
    1        0.488   0.543   6.242   7.273
    2        0.488   0.543   6.242   7.273
--------------------------------------------------
tot          0.976   1.086  12.484  14.547



 magnetization (x)

# of ion       s       p       d       tot
------------------------------------------
    1       -0.014  -0.057   2.247   2.177
    2       -0.014  -0.057   2.247   2.177
--------------------------------------------------
tot         -0.027  -0.115   4.495   4.353
 

 total amount of memory used by VASP MPI-rank0    54157. kBytes
=======================================================================

   base      :      30000. kBytes
   nonl-proj :       9071. kBytes
   fftplans  :       2423. kBytes
   grid      :       1849. kBytes
   one-center:         62. kBytes
   wavefun   :      10752. kBytes
 
  
  
 General timing and accounting informations for this job:
 ========================================================
  
                  Total CPU time used (sec):      248.866
                            User time (sec):      245.394
                          System time (sec):        3.472
                         Elapsed time (sec):      259.469
  
                   Maximum memory used (kb):       92704.
                   Average memory used (kb):          N/A
  
                          Minor page faults:        12801
                          Major page faults:            1
                 Voluntary context switches:       270546
