<?xml version="1.0" encoding="ISO-8859-1"?>
<modeling>
 <generator>
  <i name="program" type="string">vasp </i>
  <i name="version" type="string">6.2.0  </i>
  <i name="subversion" type="string">18Jan21 (build Aug 12 2022 13:00:08) complex                          parallel </i>
  <i name="platform" type="string">LinuxIFC </i>
  <i name="date" type="string">2024 11 04 </i>
  <i name="time" type="string">06:59:18 </i>
 </generator>
 <incar>
  <i type="int" name="ISTART">     0</i>
  <i type="string" name="PREC">Accurate      (Accurate strictly avoids</i>
  <i type="logical" name="ADDGRID"> T  </i>
  <i type="int" name="ISPIN">     2</i>
  <i type="int" name="NELM">    90</i>
  <i type="int" name="NELMIN">     6</i>
  <i type="int" name="IBRION">     2</i>
  <i name="EDIFF">      0.00000100</i>
  <i name="EDIFFG">     -0.00200000</i>
  <i type="int" name="NSW">   100</i>
  <i type="int" name="ISIF">     3</i>
  <i type="int" name="ISYM">     2</i>
  <i name="ENCUT">    450.00000000</i>
  <v name="MAGMOM">      5.00000000      5.00000000</v>
  <i type="logical" name="LREAL"> F  </i>
  <i type="int" name="ISMEAR">     1</i>
  <i name="SIGMA">      0.20000000</i>
  <i type="int" name="LMAXMIX">     4</i>
  <i type="int" name="LORBIT">    11</i>
  <i type="logical" name="LASPH"> T  </i>
  <i type="logical" name="GGA_COMPAT"> F  </i>
  <i type="int" name="VOSKOWN">     1</i>
 </incar>
 <primitive_cell>
  <structure name="primitive_cell" >
   <crystal>
    <varray name="basis" >
     <v>       1.43151775       1.43151775      -1.43151775 </v>
     <v>      -1.43151775       1.43151775       1.43151775 </v>
     <v>       1.43151775      -1.43151775       1.43151775 </v>
    </varray>
    <i name="volume">     11.73411129 </i>
    <varray name="rec_basis" >
     <v>       0.34927964       0.34927964       0.00000000 </v>
     <v>       0.00000000       0.34927964       0.34927964 </v>
     <v>       0.34927964      -0.00000000       0.34927964 </v>
    </varray>
   </crystal>
   <varray name="positions" >
    <v>       0.00000000       0.00000000       0.00000000 </v>
   </varray>
  </structure>
  <varray name="primitive_index" >
   <v type="int" >        1 </v>
  </varray>
 </primitive_cell>
 <kpoints>
  <generation param="Monkhorst-Pack">
   <v type="int" name="divisions">      15       15       15 </v>
   <v name="usershift">      0.00000000       0.00000000       0.00000000 </v>
   <v name="genvec1">      0.06666667       0.00000000       0.00000000 </v>
   <v name="genvec2">      0.00000000       0.06666667       0.00000000 </v>
   <v name="genvec3">      0.00000000       0.00000000       0.06666667 </v>
   <v name="shift">      0.00000000       0.00000000       0.00000000 </v>
  </generation>
  <varray name="kpointlist" >
   <v>       0.00000000       0.00000000       0.00000000 </v>
   <v>       0.06666667       0.00000000       0.00000000 </v>
   <v>       0.13333333       0.00000000       0.00000000 </v>
   <v>       0.20000000      -0.00000000       0.00000000 </v>
   <v>       0.26666667       0.00000000       0.00000000 </v>
   <v>       0.33333333       0.00000000       0.00000000 </v>
   <v>       0.40000000       0.00000000       0.00000000 </v>
   <v>       0.46666667      -0.00000000       0.00000000 </v>
   <v>       0.06666667       0.06666667       0.00000000 </v>
   <v>       0.13333333       0.06666667       0.00000000 </v>
   <v>       0.20000000       0.06666667       0.00000000 </v>
   <v>       0.26666667       0.06666667       0.00000000 </v>
   <v>       0.33333333       0.06666667       0.00000000 </v>
   <v>       0.40000000       0.06666667       0.00000000 </v>
   <v>       0.46666667       0.06666667       0.00000000 </v>
   <v>       0.13333333       0.13333333       0.00000000 </v>
   <v>       0.20000000       0.13333333       0.00000000 </v>
   <v>       0.26666667       0.13333333       0.00000000 </v>
   <v>       0.33333333       0.13333333       0.00000000 </v>
   <v>       0.40000000       0.13333333       0.00000000 </v>
   <v>       0.46666667       0.13333333       0.00000000 </v>
   <v>       0.20000000       0.20000000       0.00000000 </v>
   <v>       0.26666667       0.20000000       0.00000000 </v>
   <v>       0.33333333       0.20000000       0.00000000 </v>
   <v>       0.40000000       0.20000000       0.00000000 </v>
   <v>       0.46666667       0.20000000       0.00000000 </v>
   <v>       0.26666667       0.26666667       0.00000000 </v>
   <v>       0.33333333       0.26666667       0.00000000 </v>
   <v>       0.40000000       0.26666667       0.00000000 </v>
   <v>       0.46666667       0.26666667       0.00000000 </v>
   <v>       0.33333333       0.33333333       0.00000000 </v>
   <v>       0.40000000       0.33333333       0.00000000 </v>
   <v>       0.46666667       0.33333333       0.00000000 </v>
   <v>       0.40000000       0.40000000       0.00000000 </v>
   <v>       0.46666667       0.40000000       0.00000000 </v>
   <v>       0.46666667       0.46666667       0.00000000 </v>
   <v>       0.06666667       0.06666667       0.06666667 </v>
   <v>       0.13333333       0.06666667       0.06666667 </v>
   <v>       0.20000000       0.06666667       0.06666667 </v>
   <v>       0.26666667       0.06666667       0.06666667 </v>
   <v>       0.33333333       0.06666667       0.06666667 </v>
   <v>       0.40000000       0.06666667       0.06666667 </v>
   <v>       0.46666667       0.06666667       0.06666667 </v>
   <v>       0.13333333       0.13333333       0.06666667 </v>
   <v>       0.20000000       0.13333333       0.06666667 </v>
   <v>       0.26666667       0.13333333       0.06666667 </v>
   <v>       0.33333333       0.13333333       0.06666667 </v>
   <v>       0.40000000       0.13333333       0.06666667 </v>
   <v>       0.46666667       0.13333333       0.06666667 </v>
   <v>       0.20000000       0.20000000       0.06666667 </v>
   <v>       0.26666667       0.20000000       0.06666667 </v>
   <v>       0.33333333       0.20000000       0.06666667 </v>
   <v>       0.40000000       0.20000000       0.06666667 </v>
   <v>       0.46666667       0.20000000       0.06666667 </v>
   <v>       0.26666667       0.26666667       0.06666667 </v>
   <v>       0.33333333       0.26666667       0.06666667 </v>
   <v>       0.40000000       0.26666667       0.06666667 </v>
   <v>       0.46666667       0.26666667       0.06666667 </v>
   <v>       0.33333333       0.33333333       0.06666667 </v>
   <v>       0.40000000       0.33333333       0.06666667 </v>
   <v>       0.46666667       0.33333333       0.06666667 </v>
   <v>       0.40000000       0.40000000       0.06666667 </v>
   <v>       0.46666667       0.40000000       0.06666667 </v>
   <v>       0.46666667       0.46666667       0.06666667 </v>
   <v>       0.13333333       0.13333333       0.13333333 </v>
   <v>       0.20000000       0.13333333       0.13333333 </v>
   <v>       0.26666667       0.13333333       0.13333333 </v>
   <v>       0.33333333       0.13333333       0.13333333 </v>
   <v>       0.40000000       0.13333333       0.13333333 </v>
   <v>       0.46666667       0.13333333       0.13333333 </v>
   <v>       0.20000000       0.20000000       0.13333333 </v>
   <v>       0.26666667       0.20000000       0.13333333 </v>
   <v>       0.33333333       0.20000000       0.13333333 </v>
   <v>       0.40000000       0.20000000       0.13333333 </v>
   <v>       0.46666667       0.20000000       0.13333333 </v>
   <v>       0.26666667       0.26666667       0.13333333 </v>
   <v>       0.33333333       0.26666667       0.13333333 </v>
   <v>       0.40000000       0.26666667       0.13333333 </v>
   <v>       0.46666667       0.26666667       0.13333333 </v>
   <v>       0.33333333       0.33333333       0.13333333 </v>
   <v>       0.40000000       0.33333333       0.13333333 </v>
   <v>       0.46666667       0.33333333       0.13333333 </v>
   <v>       0.40000000       0.40000000       0.13333333 </v>
   <v>       0.46666667       0.40000000       0.13333333 </v>
   <v>       0.46666667       0.46666667       0.13333333 </v>
   <v>       0.20000000       0.20000000       0.20000000 </v>
   <v>       0.26666667       0.20000000       0.20000000 </v>
   <v>       0.33333333       0.20000000       0.20000000 </v>
   <v>       0.40000000       0.20000000       0.20000000 </v>
   <v>       0.46666667       0.20000000       0.20000000 </v>
   <v>       0.26666667       0.26666667       0.20000000 </v>
   <v>       0.33333333       0.26666667       0.20000000 </v>
   <v>       0.40000000       0.26666667       0.20000000 </v>
   <v>       0.46666667       0.26666667       0.20000000 </v>
   <v>       0.33333333       0.33333333       0.20000000 </v>
   <v>       0.40000000       0.33333333       0.20000000 </v>
   <v>       0.46666667       0.33333333       0.20000000 </v>
   <v>       0.40000000       0.40000000       0.20000000 </v>
   <v>       0.46666667       0.40000000       0.20000000 </v>
   <v>       0.46666667       0.46666667       0.20000000 </v>
   <v>       0.26666667       0.26666667       0.26666667 </v>
   <v>       0.33333333       0.26666667       0.26666667 </v>
   <v>       0.40000000       0.26666667       0.26666667 </v>
   <v>       0.46666667       0.26666667       0.26666667 </v>
   <v>       0.33333333       0.33333333       0.26666667 </v>
   <v>       0.40000000       0.33333333       0.26666667 </v>
   <v>       0.46666667       0.33333333       0.26666667 </v>
   <v>       0.40000000       0.40000000       0.26666667 </v>
   <v>       0.46666667       0.40000000       0.26666667 </v>
   <v>       0.46666667       0.46666667       0.26666667 </v>
   <v>       0.33333333       0.33333333       0.33333333 </v>
   <v>       0.40000000       0.33333333       0.33333333 </v>
   <v>       0.46666667       0.33333333       0.33333333 </v>
   <v>       0.40000000       0.40000000       0.33333333 </v>
   <v>       0.46666667       0.40000000       0.33333333 </v>
   <v>       0.46666667       0.46666667       0.33333333 </v>
   <v>       0.40000000       0.40000000       0.40000000 </v>
   <v>       0.46666667       0.40000000       0.40000000 </v>
   <v>       0.46666667       0.46666667       0.40000000 </v>
   <v>       0.46666667       0.46666667       0.46666667 </v>
  </varray>
  <varray name="weights" >
   <v>       0.00029630 </v>
   <v>       0.00177778 </v>
   <v>       0.00177778 </v>
   <v>       0.00177778 </v>
   <v>       0.00177778 </v>
   <v>       0.00177778 </v>
   <v>       0.00177778 </v>
   <v>       0.00177778 </v>
   <v>       0.00355556 </v>
   <v>       0.00711111 </v>
   <v>       0.00711111 </v>
   <v>       0.00711111 </v>
   <v>       0.00711111 </v>
   <v>       0.00711111 </v>
   <v>       0.00711111 </v>
   <v>       0.00355556 </v>
   <v>       0.00711111 </v>
   <v>       0.00711111 </v>
   <v>       0.00711111 </v>
   <v>       0.00711111 </v>
   <v>       0.00711111 </v>
   <v>       0.00355556 </v>
   <v>       0.00711111 </v>
   <v>       0.00711111 </v>
   <v>       0.00711111 </v>
   <v>       0.00711111 </v>
   <v>       0.00355556 </v>
   <v>       0.00711111 </v>
   <v>       0.00711111 </v>
   <v>       0.00711111 </v>
   <v>       0.00355556 </v>
   <v>       0.00711111 </v>
   <v>       0.00711111 </v>
   <v>       0.00355556 </v>
   <v>       0.00711111 </v>
   <v>       0.00355556 </v>
   <v>       0.00237037 </v>
   <v>       0.00711111 </v>
   <v>       0.00711111 </v>
   <v>       0.00711111 </v>
   <v>       0.00711111 </v>
   <v>       0.00711111 </v>
   <v>       0.00711111 </v>
   <v>       0.00711111 </v>
   <v>       0.01422222 </v>
   <v>       0.01422222 </v>
   <v>       0.01422222 </v>
   <v>       0.01422222 </v>
   <v>       0.01422222 </v>
   <v>       0.00711111 </v>
   <v>       0.01422222 </v>
   <v>       0.01422222 </v>
   <v>       0.01422222 </v>
   <v>       0.01422222 </v>
   <v>       0.00711111 </v>
   <v>       0.01422222 </v>
   <v>       0.01422222 </v>
   <v>       0.01422222 </v>
   <v>       0.00711111 </v>
   <v>       0.01422222 </v>
   <v>       0.01422222 </v>
   <v>       0.00711111 </v>
   <v>       0.01422222 </v>
   <v>       0.00711111 </v>
   <v>       0.00237037 </v>
   <v>       0.00711111 </v>
   <v>       0.00711111 </v>
   <v>       0.00711111 </v>
   <v>       0.00711111 </v>
   <v>       0.00711111 </v>
   <v>       0.00711111 </v>
   <v>       0.01422222 </v>
   <v>       0.01422222 </v>
   <v>       0.01422222 </v>
   <v>       0.01422222 </v>
   <v>       0.00711111 </v>
   <v>       0.01422222 </v>
   <v>       0.01422222 </v>
   <v>       0.01422222 </v>
   <v>       0.00711111 </v>
   <v>       0.01422222 </v>
   <v>       0.01422222 </v>
   <v>       0.00711111 </v>
   <v>       0.01422222 </v>
   <v>       0.00711111 </v>
   <v>       0.00237037 </v>
   <v>       0.00711111 </v>
   <v>       0.00711111 </v>
   <v>       0.00711111 </v>
   <v>       0.00711111 </v>
   <v>       0.00711111 </v>
   <v>       0.01422222 </v>
   <v>       0.01422222 </v>
   <v>       0.01422222 </v>
   <v>       0.00711111 </v>
   <v>       0.01422222 </v>
   <v>       0.01422222 </v>
   <v>       0.00711111 </v>
   <v>       0.01422222 </v>
   <v>       0.00711111 </v>
   <v>       0.00237037 </v>
   <v>       0.00711111 </v>
   <v>       0.00711111 </v>
   <v>       0.00711111 </v>
   <v>       0.00711111 </v>
   <v>       0.01422222 </v>
   <v>       0.01422222 </v>
   <v>       0.00711111 </v>
   <v>       0.01422222 </v>
   <v>       0.00711111 </v>
   <v>       0.00237037 </v>
   <v>       0.00711111 </v>
   <v>       0.00711111 </v>
   <v>       0.00711111 </v>
   <v>       0.01422222 </v>
   <v>       0.00711111 </v>
   <v>       0.00237037 </v>
   <v>       0.00711111 </v>
   <v>       0.00711111 </v>
   <v>       0.00237037 </v>
  </varray>
 </kpoints>
 <parameters>
  <separator name="general" >
   <i type="string" name="SYSTEM">unknown system</i>
   <i type="logical" name="LCOMPAT"> F  </i>
  </separator>
  <separator name="electronic" >
   <i type="string" name="PREC">accura</i>
   <i name="ENMAX">    450.00000000</i>
   <i name="ENAUG">    511.36800000</i>
   <i name="EDIFF">      0.00000100</i>
   <i type="int" name="IALGO">    38</i>
   <i type="int" name="IWAVPR">    11</i>
   <i type="int" name="NBANDS">    20</i>
   <i type="int" name="NBANDSLOW">    -1</i>
   <i type="int" name="NBANDSHIGH">    -1</i>
   <i name="NELECT">     16.00000000</i>
   <i type="int" name="TURBO">     0</i>
   <i type="int" name="IRESTART">     0</i>
   <i type="int" name="NREBOOT">     0</i>
   <i type="int" name="NMIN">     0</i>
   <i name="EREF">      0.00000000</i>
   <separator name="electronic smearing" >
    <i type="int" name="ISMEAR">     1</i>
    <i name="SIGMA">      0.20000000</i>
    <i name="KSPACING">      0.50000000</i>
    <i type="logical" name="KGAMMA"> T  </i>
    <i type="logical" name="KBLOWUP"> T  </i>
   </separator>
   <separator name="electronic projectors" >
    <i type="logical" name="LREAL"> F  </i>
    <v name="ROPT">      0.00000000</v>
    <i type="int" name="LMAXPAW">  -100</i>
    <i type="int" name="LMAXMIX">     4</i>
    <i type="logical" name="NLSPLINE"> F  </i>
   </separator>
   <separator name="electronic startup" >
    <i type="int" name="ISTART">     0</i>
    <i type="int" name="ICHARG">     2</i>
    <i type="int" name="INIWAV">     1</i>
   </separator>
   <separator name="electronic spin" >
    <i type="int" name="ISPIN">     2</i>
    <i type="logical" name="LNONCOLLINEAR"> F  </i>
    <v name="MAGMOM">      5.00000000      5.00000000</v>
    <i name="NUPDOWN">     -1.00000000</i>
    <i type="logical" name="LSORBIT"> F  </i>
    <v name="SAXIS">      0.00000000      0.00000000      1.00000000</v>
    <i type="logical" name="LSPIRAL"> F  </i>
    <v name="QSPIRAL">      0.00000000      0.00000000      0.00000000</v>
    <i type="logical" name="LZEROZ"> F  </i>
   </separator>
   <separator name="electronic exchange-correlation" >
    <i type="logical" name="LASPH"> T  </i>
    <i type="logical" name="LMETAGGA"> F  </i>
   </separator>
   <separator name="electronic convergence" >
    <i type="int" name="NELM">    90</i>
    <i type="int" name="NELMDL">    -5</i>
    <i type="int" name="NELMIN">     6</i>
    <i name="ENINI">    450.00000000</i>
    <separator name="electronic convergence detail" >
     <i type="logical" name="LDIAG"> T  </i>
     <i type="logical" name="LSUBROT"> F  </i>
     <i name="WEIMIN">      0.00100000</i>
     <i name="EBREAK">      0.00000001</i>
     <i name="DEPER">      0.30000000</i>
     <i type="int" name="NRMM">     4</i>
     <i name="TIME">      0.40000000</i>
    </separator>
   </separator>
   <separator name="electronic mixer" >
    <i name="AMIX">      0.40000000</i>
    <i name="BMIX">      1.00000000</i>
    <i name="AMIN">      0.10000000</i>
    <i name="AMIX_MAG">      1.60000000</i>
    <i name="BMIX_MAG">      1.00000000</i>
    <separator name="electronic mixer details" >
     <i type="int" name="IMIX">     4</i>
     <i type="logical" name="MIXFIRST"> F  </i>
     <i type="int" name="MAXMIX">   -45</i>
     <i name="WC">    100.00000000</i>
     <i type="int" name="INIMIX">     1</i>
     <i type="int" name="MIXPRE">     1</i>
     <i type="int" name="MREMOVE">     5</i>
    </separator>
   </separator>
   <separator name="electronic dipolcorrection" >
    <i type="logical" name="LDIPOL"> F  </i>
    <i type="logical" name="LMONO"> F  </i>
    <i type="int" name="IDIPOL">     0</i>
    <i name="EPSILON">      1.00000000</i>
    <v name="DIPOL">   -100.00000000   -100.00000000   -100.00000000</v>
    <i name="EFIELD">      0.00000000</i>
   </separator>
  </separator>
  <separator name="grids" >
   <i type="int" name="NGX">    20</i>
   <i type="int" name="NGY">    20</i>
   <i type="int" name="NGZ">    20</i>
   <i type="int" name="NGXF">    40</i>
   <i type="int" name="NGYF">    40</i>
   <i type="int" name="NGZF">    40</i>
   <i type="logical" name="ADDGRID"> T  </i>
  </separator>
  <separator name="ionic" >
   <i type="int" name="NSW">   100</i>
   <i type="int" name="IBRION">     2</i>
   <i type="int" name="MDALGO">     0</i>
   <i type="int" name="ISIF">     3</i>
   <i name="PSTRESS">      0.00000000</i>
   <i name="EDIFFG">     -0.00200000</i>
   <i type="int" name="NFREE">     1</i>
   <i name="POTIM">      0.50000000</i>
   <i name="SMASS">     -3.00000000</i>
   <i name="SCALEE">      1.00000000</i>
  </separator>
  <separator name="ionic md" >
   <i name="TEBEG">      0.00010000</i>
   <i name="TEEND">      0.00010000</i>
   <i type="int" name="NBLOCK">     1</i>
   <i type="int" name="KBLOCK">   100</i>
   <i type="int" name="NPACO">   256</i>
   <i name="APACO">     16.00000000</i>
  </separator>
  <separator name="symmetry" >
   <i type="int" name="ISYM">     2</i>
   <i name="SYMPREC">      0.00001000</i>
  </separator>
  <separator name="dos" >
   <i type="int" name="LORBIT">    11</i>
   <v name="RWIGS">     -1.00000000</v>
   <i type="int" name="NEDOS">   301</i>
   <i name="EMIN">     10.00000000</i>
   <i name="EMAX">    -10.00000000</i>
   <i name="EFERMI">      0.00000000</i>
  </separator>
  <separator name="writing" >
   <i type="int" name="NWRITE">     2</i>
   <i type="logical" name="LWAVE"> T  </i>
   <i type="logical" name="LDOWNSAMPLE"> F  </i>
   <i type="logical" name="LCHARG"> T  </i>
   <i type="logical" name="LPARD"> F  </i>
   <i type="logical" name="LVTOT"> F  </i>
   <i type="logical" name="LVHAR"> F  </i>
   <i type="logical" name="LELF"> F  </i>
   <i type="logical" name="LOPTICS"> F  </i>
   <v name="STM">      0.00000000      0.00000000      0.00000000      0.00000000      0.00000000      0.00000000      0.00000000</v>
  </separator>
  <separator name="performance" >
   <i type="int" name="NPAR">     4</i>
   <i type="int" name="NSIM">     4</i>
   <i type="int" name="NBLK">    -1</i>
   <i type="logical" name="LPLANE"> T  </i>
   <i type="logical" name="LSCALAPACK"> T  </i>
   <i type="logical" name="LSCAAWARE"> F  </i>
   <i type="logical" name="LSCALU"> F  </i>
   <i type="logical" name="LASYNC"> F  </i>
   <i type="logical" name="LORBITALREAL"> F  </i>
  </separator>
  <separator name="miscellaneous" >
   <i type="int" name="IDIOT">     3</i>
   <i type="int" name="PHON_NSTRUCT">    -1</i>
   <i type="logical" name="LMUSIC"> F  </i>
   <v name="POMASS">     55.84700000</v>
   <v name="DARWINR">      0.00000000</v>
   <v name="DARWINV">      1.00000000</v>
   <i type="logical" name="LCORR"> T  </i>
  </separator>
  <i type="logical" name="GGA_COMPAT"> F  </i>
  <i type="logical" name="LBERRY"> F  </i>
  <i type="int" name="ICORELEVEL">     0</i>
  <i type="logical" name="LDAU"> F  </i>
  <i type="int" name="I_CONSTRAINED_M">     0</i>
  <separator name="electronic exchange-correlation" >
   <i type="string" name="GGA">--</i>
   <i type="int" name="VOSKOWN">     1</i>
   <i type="logical" name="LHFCALC"> F  </i>
   <i type="string" name="PRECFOCK"></i>
   <i type="logical" name="LSYMGRAD"> F  </i>
   <i type="logical" name="LHFONE"> F  </i>
   <i type="logical" name="LRHFCALC"> F  </i>
   <i type="logical" name="LTHOMAS"> F  </i>
   <i type="logical" name="LMODELHF"> F  </i>
   <i type="logical" name="LFOCKACE"> F  </i>
   <i name="ENCUT4O">     -1.00000000</i>
   <i type="int" name="EXXOEP">     0</i>
   <i type="int" name="FOURORBIT">     0</i>
   <i name="AEXX">      0.00000000</i>
   <i name="HFALPHA">      0.00000000</i>
   <i name="MCALPHA">      0.00000000</i>
   <i name="ALDAX">      1.00000000</i>
   <i name="AGGAX">      1.00000000</i>
   <i name="ALDAC">      1.00000000</i>
   <i name="AGGAC">      1.00000000</i>
   <i type="int" name="NKREDX">     1</i>
   <i type="int" name="NKREDY">     1</i>
   <i type="int" name="NKREDZ">     1</i>
   <i type="logical" name="SHIFTRED"> F  </i>
   <i type="logical" name="ODDONLY"> F  </i>
   <i type="logical" name="EVENONLY"> F  </i>
   <i type="int" name="LMAXFOCK">     0</i>
   <i type="int" name="NMAXFOCKAE">     0</i>
   <i type="logical" name="LFOCKAEDFT"> F  </i>
   <i name="HFSCREEN">      0.00000000</i>
   <i name="HFSCREENC">      0.00000000</i>
   <i type="int" name="NBANDSGWLOW">     0</i>
  </separator>
  <separator name="vdW DFT" >
   <i type="logical" name="LUSE_VDW"> F  </i>
   <i name="Zab_VDW">     -0.84910000</i>
   <i name="PARAM1">      0.12340000</i>
   <i name="PARAM2">      1.00000000</i>
   <i name="PARAM3">      0.00000000</i>
  </separator>
  <separator name="model GW" >
   <i type="int" name="MODEL_GW">     0</i>
   <i name="MODEL_EPS0">      7.04046678</i>
   <i name="MODEL_ALPHA">      1.00000000</i>
  </separator>
  <separator name="linear response parameters" >
   <i type="logical" name="LEPSILON"> F  </i>
   <i type="logical" name="LRPA"> F  </i>
   <i type="logical" name="LNABLA"> F  </i>
   <i type="logical" name="LVEL"> F  </i>
   <i type="int" name="KINTER">     0</i>
   <i name="CSHIFT">      0.10000000</i>
   <i name="OMEGAMAX">     -1.00000000</i>
   <i name="DEG_THRESHOLD">      0.00200000</i>
   <i name="RTIME">     -0.10000000</i>
   <i name="WPLASMAI">      0.00000000</i>
   <v name="DFIELD">      0.00000000      0.00000000      0.00000000</v>
   <v name="WPLASMA">      0.00000000      0.00000000      0.00000000      0.00000000      0.00000000      0.00000000      0.00000000      0.00000000      0.00000000</v>
  </separator>
  <separator name="orbital magnetization" >
   <i type="logical" name="NUCIND"> F  </i>
   <v name="MAGPOS">      0.00000000      0.00000000      0.00000000</v>
   <i type="logical" name="LNICSALL"> T  </i>
   <i type="logical" name="ORBITALMAG"> F  </i>
   <i type="logical" name="LMAGBLOCH"> F  </i>
   <i type="logical" name="LCHIMAG"> F  </i>
   <i type="logical" name="LGAUGE"> T  </i>
   <i type="int" name="MAGATOM">     0</i>
   <v name="MAGDIPOL">      0.00000000      0.00000000      0.00000000</v>
   <v name="AVECCONST">      0.00000000      0.00000000      0.00000000</v>
  </separator>
  <separator name="response functions" >
   <i type="logical" name="LFINITE_TEMPERATURE"> F  </i>
   <i type="logical" name="LADDER"> F  </i>
   <i type="logical" name="LRPAFORCE"> F  </i>
   <i type="logical" name="LFXC"> F  </i>
   <i type="logical" name="LHARTREE"> T  </i>
   <i type="int" name="IBSE">     0</i>
   <v type="int" name="KPOINT">    -1     0     0     0</v>
   <i type="logical" name="LTCTC"> F  </i>
   <i type="logical" name="LTCTE"> F  </i>
   <i type="logical" name="LTETE"> F  </i>
   <i type="logical" name="LTRIPLET"> F  </i>
   <i type="logical" name="LFXCEPS"> F  </i>
   <i type="logical" name="LFXHEG"> F  </i>
   <i type="int" name="NATURALO">     2</i>
   <i type="logical" name="LHOLEGF"> F  </i>
   <i type="logical" name="L2ORDER"> F  </i>
   <i type="logical" name="LDMP1"> F  </i>
   <i type="logical" name="LMP2LT"> F  </i>
   <i type="logical" name="LSMP2LT"> F  </i>
   <i type="logical" name="LGWLF"> F  </i>
   <i name="ENCUTGW">     -2.00000000</i>
   <i name="ENCUTGWSOFT">     -2.00000000</i>
   <i name="ENCUTLF">     -1.00000000</i>
   <i type="logical" name="LESF_SPLINES"> F  </i>
   <i type="int" name="LMAXMP2">    -1</i>
   <i name="SCISSOR">      0.00000000</i>
   <i type="int" name="NOMEGA">     0</i>
   <i type="int" name="NOMEGAR">     0</i>
   <i type="int" name="NBANDSGW">    -1</i>
   <i type="int" name="NBANDSO">    -1</i>
   <i type="int" name="NBANDSV">    -1</i>
   <i type="int" name="NELM">    90</i>
   <i type="int" name="NELMHF">     1</i>
   <i type="int" name="DIM">     3</i>
   <i type="int" name="IESPILON">     4</i>
   <i type="int" name="ANTIRES">     0</i>
   <i name="OMEGAMAX">    -30.00000000</i>
   <i name="OMEGAMIN">    -30.00000000</i>
   <i name="OMEGATL">   -200.00000000</i>
   <i type="int" name="OMEGAGRID">     0</i>
   <i name="CSHIFT">     -0.10000000</i>
   <i type="logical" name="LSELFENERGY"> F  </i>
   <i type="logical" name="LSPECTRAL"> F  </i>
   <i type="logical" name="LSPECTRALGW"> F  </i>
   <i type="logical" name="LSINGLES"> F  </i>
   <i type="logical" name="LFERMIGW"> F  </i>
   <i type="logical" name="ODDONLYGW"> F  </i>
   <i type="logical" name="EVENONLYGW"> F  </i>
   <i type="int" name="NKREDLFX">     1</i>
   <i type="int" name="NKREDLFY">     1</i>
   <i type="int" name="NKREDLFZ">     1</i>
   <i type="int" name="MAXMEM">  2800</i>
   <i type="int" name="TELESCOPE">     0</i>
   <i type="int" name="NTAUPAR">    -1</i>
   <i type="int" name="NOMEGAPAR">    -1</i>
   <i name="DAMP_NEWTON">      0.80000001</i>
   <i name="LAMBDA">      1.00000000</i>
  </separator>
  <separator name="External order field" >
   <i name="OFIELD_KAPPA">      0.00000000</i>
   <v name="OFIELD_K">      0.00000000      0.00000000      0.00000000</v>
   <i name="OFIELD_Q6_NEAR">      0.00000000</i>
   <i name="OFIELD_Q6_FAR">      0.00000000</i>
   <i name="OFIELD_A">      0.00000000</i>
  </separator>
 </parameters>
 <atominfo>
  <atoms>       2 </atoms>
  <types>       1 </types>
  <array name="atoms" >
   <dimension dim="1">ion</dimension>
   <field type="string">element</field>
   <field type="int">atomtype</field>
   <set>
    <rc><c>Fe</c><c>   1</c></rc>
    <rc><c>Fe</c><c>   1</c></rc>
   </set>
  </array>
  <array name="atomtypes" >
   <dimension dim="1">type</dimension>
   <field type="int">atomspertype</field>
   <field type="string">element</field>
   <field>mass</field>
   <field>valence</field>
   <field type="string">pseudopotential</field>
   <set>
    <rc><c>   2</c><c>Fe</c><c>     55.84700000</c><c>      8.00000000</c><c>  PAW_PBE Fe 06Sep2000                  </c></rc>
   </set>
  </array>
 </atominfo>
 <structure name="initialpos" >
  <crystal>
   <varray name="basis" >
    <v>       2.86303550       0.00000000       0.00000000 </v>
    <v>       0.00000000       2.86303550       0.00000000 </v>
    <v>       0.00000000       0.00000000       2.86303550 </v>
   </varray>
   <i name="volume">     23.46822259 </i>
   <varray name="rec_basis" >
    <v>       0.34927964      -0.00000000       0.00000000 </v>
    <v>       0.00000000       0.34927964       0.00000000 </v>
    <v>      -0.00000000      -0.00000000       0.34927964 </v>
   </varray>
  </crystal>
  <varray name="positions" >
   <v>       0.00000000       0.00000000       0.00000000 </v>
   <v>       0.50000000       0.50000000       0.50000000 </v>
  </varray>
 </structure>
 <calculation>
  <scstep>
   <time name="dav">    5.25    5.26</time>
   <time name="total">    6.88    6.89</time>
   <energy>
    <i name="alphaZ">    117.79976220 </i>
    <i name="ewald">  -1171.43779597 </i>
    <i name="hartreedc">   -228.04061712 </i>
    <i name="XCdc">     14.27161930 </i>
    <i name="pawpsdc">   1103.49540010 </i>
    <i name="pawaedc">  -1119.11610375 </i>
    <i name="eentropy">     -0.00100682 </i>
    <i name="bandstr">    169.69196208 </i>
    <i name="atom">   1188.62386280 </i>
    <i name="e_fr_energy">     75.28708282 </i>
    <i name="e_wo_entrp">     75.28808965 </i>
    <i name="e_0_energy">     75.28741843 </i>
   </energy>
  </scstep>
  <scstep>
   <time name="dav">    4.95    4.97</time>
   <time name="total">    4.96    4.98</time>
   <energy>
    <i name="e_fr_energy">    -12.58097570 </i>
    <i name="e_wo_entrp">    -12.58099639 </i>
    <i name="e_0_energy">    -12.58098260 </i>
   </energy>
  </scstep>
  <scstep>
   <time name="dav">    5.33    5.35</time>
   <time name="total">    5.34    5.36</time>
   <energy>
    <i name="e_fr_energy">    -16.05718103 </i>
    <i name="e_wo_entrp">    -16.05849831 </i>
    <i name="e_0_energy">    -16.05762012 </i>
   </energy>
  </scstep>
  <scstep>
   <time name="dav">    5.24    5.26</time>
   <time name="total">    5.25    5.27</time>
   <energy>
    <i name="e_fr_energy">    -16.08558977 </i>
    <i name="e_wo_entrp">    -16.08693740 </i>
    <i name="e_0_energy">    -16.08603898 </i>
   </energy>
  </scstep>
  <scstep>
   <time name="dav">    5.30    5.32</time>
   <time name="total">    5.69    5.71</time>
   <energy>
    <i name="e_fr_energy">    -16.08591721 </i>
    <i name="e_wo_entrp">    -16.08726496 </i>
    <i name="e_0_energy">    -16.08636646 </i>
   </energy>
  </scstep>
  <scstep>
   <time name="dav">    5.27    5.27</time>
   <time name="total">    7.24    7.26</time>
   <energy>
    <i name="e_fr_energy">    -16.55662637 </i>
    <i name="e_wo_entrp">    -16.55638579 </i>
    <i name="e_0_energy">    -16.55654617 </i>
   </energy>
  </scstep>
  <scstep>
   <time name="dav">    5.54    5.55</time>
   <time name="total">    7.51    7.53</time>
   <energy>
    <i name="e_fr_energy">    -16.49611781 </i>
    <i name="e_wo_entrp">    -16.49392176 </i>
    <i name="e_0_energy">    -16.49538579 </i>
   </energy>
  </scstep>
  <scstep>
   <time name="dav">    6.03    6.04</time>
   <time name="total">    8.00    8.03</time>
   <energy>
    <i name="e_fr_energy">    -16.47962236 </i>
    <i name="e_wo_entrp">    -16.47711654 </i>
    <i name="e_0_energy">    -16.47878709 </i>
   </energy>
  </scstep>
  <scstep>
   <time name="dav">    6.62    6.62</time>
   <time name="total">    8.59    8.61</time>
   <energy>
    <i name="e_fr_energy">    -16.46834063 </i>
    <i name="e_wo_entrp">    -16.46547786 </i>
    <i name="e_0_energy">    -16.46738637 </i>
   </energy>
  </scstep>
  <scstep>
   <time name="dav">    5.59    5.59</time>
   <time name="total">    7.56    7.58</time>
   <energy>
    <i name="e_fr_energy">    -16.46791995 </i>
    <i name="e_wo_entrp">    -16.46514477 </i>
    <i name="e_0_energy">    -16.46699489 </i>
   </energy>
  </scstep>
  <scstep>
   <time name="dav">    5.66    5.72</time>
   <time name="total">    7.63    7.71</time>
   <energy>
    <i name="e_fr_energy">    -16.46795631 </i>
    <i name="e_wo_entrp">    -16.46518125 </i>
    <i name="e_0_energy">    -16.46703129 </i>
   </energy>
  </scstep>
  <scstep>
   <time name="dav">    5.07    5.07</time>
   <time name="total">    7.03    7.06</time>
   <energy>
    <i name="e_fr_energy">    -16.46794604 </i>
    <i name="e_wo_entrp">    -16.46517596 </i>
    <i name="e_0_energy">    -16.46702268 </i>
   </energy>
  </scstep>
  <scstep>
   <time name="dav">    4.37    4.37</time>
   <time name="total">    6.33    6.36</time>
   <energy>
    <i name="e_fr_energy">    -16.46794736 </i>
    <i name="e_wo_entrp">    -16.46517406 </i>
    <i name="e_0_energy">    -16.46702293 </i>
   </energy>
  </scstep>
  <scstep>
   <time name="dav">    3.51    3.52</time>
   <time name="total">    5.13    5.15</time>
   <energy>
    <i name="alphaZ">    117.79976220 </i>
    <i name="ewald">  -1171.43779597 </i>
    <i name="hartreedc">   -195.18172431 </i>
    <i name="XCdc">      8.52755879 </i>
    <i name="pawpsdc">   1412.17453108 </i>
    <i name="pawaedc">  -1430.07944664 </i>
    <i name="eentropy">     -0.00277381 </i>
    <i name="bandstr">     53.10807923 </i>
    <i name="atom">   1188.62386280 </i>
    <i name="e_fr_energy">    -16.46794663 </i>
    <i name="e_wo_entrp">    -16.46517281 </i>
    <i name="e_0_energy">    -16.46702202 </i>
   </energy>
  </scstep>
  <structure>
   <crystal>
    <varray name="basis" >
     <v>       2.86303550       0.00000000       0.00000000 </v>
     <v>       0.00000000       2.86303550       0.00000000 </v>
     <v>       0.00000000       0.00000000       2.86303550 </v>
    </varray>
    <i name="volume">     23.46822259 </i>
    <varray name="rec_basis" >
     <v>       0.34927964      -0.00000000       0.00000000 </v>
     <v>       0.00000000       0.34927964       0.00000000 </v>
     <v>      -0.00000000      -0.00000000       0.34927964 </v>
    </varray>
   </crystal>
   <varray name="positions" >
    <v>       0.00000000       0.00000000       0.00000000 </v>
    <v>       0.50000000       0.50000000       0.50000000 </v>
   </varray>
  </structure>
  <varray name="forces" >
   <v>       0.00000000       0.00000000      -0.00000000 </v>
   <v>      -0.00000000      -0.00000000       0.00000000 </v>
  </varray>
  <varray name="stress" >
   <v>     -62.05358877      -0.00000000      -0.00000000 </v>
   <v>      -0.00000000     -62.05358877      -0.00000000 </v>
   <v>       0.00000000      -0.00000000     -62.05358877 </v>
  </varray>
  <energy>
   <i name="e_fr_energy">    -16.46794663 </i>
   <i name="e_wo_entrp">    -16.46517281 </i>
   <i name="e_0_energy">    -16.46702202 </i>
  </energy>
  <time name="totalsc">  100.40  102.09</time>
 </calculation>
 <calculation>
  <scstep>
   <time name="dav">    5.27    5.27</time>
   <time name="total">    7.25    7.26</time>
   <energy>
    <i name="alphaZ">    125.90060354 </i>
    <i name="ewald">  -1197.69719293 </i>
    <i name="hartreedc">   -199.55821998 </i>
    <i name="XCdc">      9.82523540 </i>
    <i name="pawpsdc">   1412.14644234 </i>
    <i name="pawaedc">  -1430.04969659 </i>
    <i name="eentropy">     -0.00195265 </i>
    <i name="bandstr">     73.63660935 </i>
    <i name="atom">   1188.62386280 </i>
    <i name="e_fr_energy">    -17.17430870 </i>
    <i name="e_wo_entrp">    -17.17235605 </i>
    <i name="e_0_energy">    -17.17365782 </i>
   </energy>
  </scstep>
  <scstep>
   <time name="dav">    5.28    5.28</time>
   <time name="total">    7.26    7.28</time>
   <energy>
    <i name="e_fr_energy">    -16.51732497 </i>
    <i name="e_wo_entrp">    -16.51345808 </i>
    <i name="e_0_energy">    -16.51603600 </i>
   </energy>
  </scstep>
  <scstep>
   <time name="dav">    5.54    5.54</time>
   <time name="total">    7.52    7.54</time>
   <energy>
    <i name="e_fr_energy">    -16.48249842 </i>
    <i name="e_wo_entrp">    -16.47944758 </i>
    <i name="e_0_energy">    -16.48148148 </i>
   </energy>
  </scstep>
  <scstep>
   <time name="dav">    5.79    5.79</time>
   <time name="total">    7.76    7.78</time>
   <energy>
    <i name="e_fr_energy">    -16.47551035 </i>
    <i name="e_wo_entrp">    -16.47263261 </i>
    <i name="e_0_energy">    -16.47455111 </i>
   </energy>
  </scstep>
  <scstep>
   <time name="dav">    5.75    5.75</time>
   <time name="total">    7.72    7.75</time>
   <energy>
    <i name="e_fr_energy">    -16.46990955 </i>
    <i name="e_wo_entrp">    -16.46722288 </i>
    <i name="e_0_energy">    -16.46901400 </i>
   </energy>
  </scstep>
  <scstep>
   <time name="dav">    5.29    5.30</time>
   <time name="total">    7.27    7.29</time>
   <energy>
    <i name="e_fr_energy">    -16.47001229 </i>
    <i name="e_wo_entrp">    -16.46730583 </i>
    <i name="e_0_energy">    -16.46911013 </i>
   </energy>
  </scstep>
  <scstep>
   <time name="dav">    5.16    5.17</time>
   <time name="total">    7.15    7.17</time>
   <energy>
    <i name="e_fr_energy">    -16.47001993 </i>
    <i name="e_wo_entrp">    -16.46730369 </i>
    <i name="e_0_energy">    -16.46911452 </i>
   </energy>
  </scstep>
  <scstep>
   <time name="dav">    4.44    4.45</time>
   <time name="total">    6.43    6.45</time>
   <energy>
    <i name="e_fr_energy">    -16.47001703 </i>
    <i name="e_wo_entrp">    -16.46730020 </i>
    <i name="e_0_energy">    -16.46911142 </i>
   </energy>
  </scstep>
  <scstep>
   <time name="dav">    3.38    3.38</time>
   <time name="total">    5.35    5.38</time>
   <energy>
    <i name="e_fr_energy">    -16.47001594 </i>
    <i name="e_wo_entrp">    -16.46730545 </i>
    <i name="e_0_energy">    -16.46911244 </i>
   </energy>
  </scstep>
  <scstep>
   <time name="dav">    3.37    3.38</time>
   <time name="total">    5.00    5.02</time>
   <energy>
    <i name="alphaZ">    125.90060354 </i>
    <i name="ewald">  -1197.69719293 </i>
    <i name="hartreedc">   -184.89503886 </i>
    <i name="XCdc">      8.68810241 </i>
    <i name="pawpsdc">   1472.60040166 </i>
    <i name="pawaedc">  -1490.93825269 </i>
    <i name="eentropy">     -0.00271095 </i>
    <i name="bandstr">     61.25020912 </i>
    <i name="atom">   1188.62386280 </i>
    <i name="e_fr_energy">    -16.47001589 </i>
    <i name="e_wo_entrp">    -16.46730494 </i>
    <i name="e_0_energy">    -16.46911224 </i>
   </energy>
  </scstep>
  <structure>
   <crystal>
    <varray name="basis" >
     <v>       2.80026372      -0.00000000       0.00000000 </v>
     <v>       0.00000000       2.80026372       0.00000000 </v>
     <v>       0.00000000      -0.00000000       2.80026372 </v>
    </varray>
    <i name="volume">     21.95820323 </i>
    <varray name="rec_basis" >
     <v>       0.35710922      -0.00000000      -0.00000000 </v>
     <v>       0.00000000       0.35710922       0.00000000 </v>
     <v>      -0.00000000      -0.00000000       0.35710922 </v>
    </varray>
   </crystal>
   <varray name="positions" >
    <v>       0.00000000       0.00000000      -0.00000000 </v>
    <v>       0.50000000       0.50000000       0.50000000 </v>
   </varray>
  </structure>
  <varray name="forces" >
   <v>      -0.00000000       0.00000000      -0.00000000 </v>
   <v>       0.00000000      -0.00000000       0.00000000 </v>
  </varray>
  <varray name="stress" >
   <v>      66.43325904       0.00000000       0.00000000 </v>
   <v>       0.00000000      66.43325904       0.00000000 </v>
   <v>       0.00000000       0.00000000      66.43325904 </v>
  </varray>
  <energy>
   <i name="e_fr_energy">    -16.47001589 </i>
   <i name="e_wo_entrp">    -16.46730494 </i>
   <i name="e_0_energy">    -16.46911224 </i>
  </energy>
  <time name="totalsc">   75.32   75.91</time>
 </calculation>
 <calculation>
  <scstep>
   <time name="dav">    5.27    5.27</time>
   <time name="total">    7.24    7.25</time>
   <energy>
    <i name="alphaZ">    121.97179784 </i>
    <i name="ewald">  -1185.10701661 </i>
    <i name="hartreedc">   -182.95187958 </i>
    <i name="XCdc">      8.08555477 </i>
    <i name="pawpsdc">   1472.60452970 </i>
    <i name="pawaedc">  -1490.94192113 </i>
    <i name="eentropy">     -0.00150807 </i>
    <i name="bandstr">     51.06743591 </i>
    <i name="atom">   1188.62386280 </i>
    <i name="e_fr_energy">    -16.64914435 </i>
    <i name="e_wo_entrp">    -16.64763629 </i>
    <i name="e_0_energy">    -16.64864167 </i>
   </energy>
  </scstep>
  <scstep>
   <time name="dav">    5.27    5.28</time>
   <time name="total">    7.25    7.27</time>
   <energy>
    <i name="e_fr_energy">    -16.50216171 </i>
    <i name="e_wo_entrp">    -16.49993287 </i>
    <i name="e_0_energy">    -16.50141876 </i>
   </energy>
  </scstep>
  <scstep>
   <time name="dav">    5.47    5.48</time>
   <time name="total">    7.44    7.46</time>
   <energy>
    <i name="e_fr_energy">    -16.48730113 </i>
    <i name="e_wo_entrp">    -16.48460895 </i>
    <i name="e_0_energy">    -16.48640374 </i>
   </energy>
  </scstep>
  <scstep>
   <time name="dav">    6.09    6.10</time>
   <time name="total">    8.06    8.08</time>
   <energy>
    <i name="e_fr_energy">    -16.48552950 </i>
    <i name="e_wo_entrp">    -16.48278287 </i>
    <i name="e_0_energy">    -16.48461396 </i>
   </energy>
  </scstep>
  <scstep>
   <time name="dav">    5.40    5.41</time>
   <time name="total">    7.37    7.39</time>
   <energy>
    <i name="e_fr_energy">    -16.48412395 </i>
    <i name="e_wo_entrp">    -16.48145916 </i>
    <i name="e_0_energy">    -16.48323569 </i>
   </energy>
  </scstep>
  <scstep>
   <time name="dav">    5.08    5.08</time>
   <time name="total">    7.05    7.07</time>
   <energy>
    <i name="e_fr_energy">    -16.48414904 </i>
    <i name="e_wo_entrp">    -16.48149198 </i>
    <i name="e_0_energy">    -16.48326336 </i>
   </energy>
  </scstep>
  <scstep>
   <time name="dav">    5.09    5.09</time>
   <time name="total">    7.05    7.08</time>
   <energy>
    <i name="e_fr_energy">    -16.48415465 </i>
    <i name="e_wo_entrp">    -16.48149452 </i>
    <i name="e_0_energy">    -16.48326794 </i>
   </energy>
  </scstep>
  <scstep>
   <time name="dav">    3.72    3.72</time>
   <time name="total">    5.68    5.70</time>
   <energy>
    <i name="e_fr_energy">    -16.48415773 </i>
    <i name="e_wo_entrp">    -16.48149762 </i>
    <i name="e_0_energy">    -16.48327103 </i>
   </energy>
  </scstep>
  <scstep>
   <time name="dav">    3.34    3.34</time>
   <time name="total">    4.95    4.97</time>
   <energy>
    <i name="alphaZ">    121.97179784 </i>
    <i name="ewald">  -1185.10701661 </i>
    <i name="hartreedc">   -189.74248424 </i>
    <i name="XCdc">      8.60464494 </i>
    <i name="pawpsdc">   1442.36666032 </i>
    <i name="pawaedc">  -1460.48423613 </i>
    <i name="eentropy">     -0.00266031 </i>
    <i name="bandstr">     57.28527357 </i>
    <i name="atom">   1188.62386280 </i>
    <i name="e_fr_energy">    -16.48415780 </i>
    <i name="e_wo_entrp">    -16.48149749 </i>
    <i name="e_0_energy">    -16.48327103 </i>
   </energy>
  </scstep>
  <structure>
   <crystal>
    <varray name="basis" >
     <v>       2.83001277      -0.00000000       0.00000000 </v>
     <v>       0.00000000       2.83001277       0.00000000 </v>
     <v>       0.00000000      -0.00000000       2.83001277 </v>
    </varray>
    <i name="volume">     22.66549390 </i>
    <varray name="rec_basis" >
     <v>       0.35335530      -0.00000000      -0.00000000 </v>
     <v>       0.00000000       0.35335530       0.00000000 </v>
     <v>      -0.00000000      -0.00000000       0.35335530 </v>
    </varray>
   </crystal>
   <varray name="positions" >
    <v>       0.00000000       0.00000000      -0.00000000 </v>
    <v>       0.50000000       0.50000000       0.50000000 </v>
   </varray>
  </structure>
  <varray name="forces" >
   <v>      -0.00000000       0.00000000       0.00000000 </v>
   <v>       0.00000000      -0.00000000      -0.00000000 </v>
  </varray>
  <varray name="stress" >
   <v>      -0.16354964       0.00000000      -0.00000000 </v>
   <v>       0.00000000      -0.16354964       0.00000000 </v>
   <v>      -0.00000000      -0.00000000      -0.16354964 </v>
  </varray>
  <energy>
   <i name="e_fr_energy">    -16.48415780 </i>
   <i name="e_wo_entrp">    -16.48149749 </i>
   <i name="e_0_energy">    -16.48327103 </i>
  </energy>
  <time name="totalsc">   68.90   70.80</time>
  <eigenvalues>
   <array>
    <dimension dim="1">band</dimension>
    <dimension dim="2">kpoint</dimension>
    <dimension dim="3">spin</dimension>
    <field>eigene</field>
    <field>occ</field>
    <set>
     <set comment="spin 1">
      <set comment="kpoint 1">
       <r>   -2.5950    1.0000 </r>
       <r>    0.9897    1.0000 </r>
       <r>    0.9897    1.0000 </r>
       <r>    3.5437    1.0000 </r>
       <r>    3.5437    1.0000 </r>
       <r>    3.5437    1.0000 </r>
       <r>    4.7580    1.0000 </r>
       <r>    4.7580    1.0000 </r>
       <r>    5.9712    0.0708 </r>
       <r>    5.9712    0.0708 </r>
       <r>    5.9712    0.0708 </r>
       <r>   15.8054    0.0000 </r>
       <r>   15.8054    0.0000 </r>
       <r>   15.8054    0.0000 </r>
       <r>   21.5245    0.0000 </r>
       <r>   21.5245    0.0000 </r>
       <r>   26.6695    0.0000 </r>
       <r>   30.8990    0.0000 </r>
       <r>   30.8990    0.0000 </r>
       <r>   30.8990    0.0000 </r>
      </set>
      <set comment="kpoint 2">
       <r>   -2.5024    1.0000 </r>
       <r>    1.0292    1.0000 </r>
       <r>    1.0309    1.0000 </r>
       <r>    3.5430    1.0000 </r>
       <r>    3.5430    1.0000 </r>
       <r>    3.5691    1.0000 </r>
       <r>    4.7166    1.0000 </r>
       <r>    4.7744    1.0000 </r>
       <r>    5.8927    0.3120 </r>
       <r>    5.8927    0.3120 </r>
       <r>    5.9436    0.1395 </r>
       <r>   15.1344    0.0000 </r>
       <r>   15.9810    0.0000 </r>
       <r>   15.9810    0.0000 </r>
       <r>   21.5511    0.0000 </r>
       <r>   22.0311    0.0000 </r>
       <r>   26.9695    0.0000 </r>
       <r>   30.2655    0.0000 </r>
       <r>   30.8183    0.0000 </r>
       <r>   30.8183    0.0000 </r>
      </set>
      <set comment="kpoint 3">
       <r>   -2.2284    1.0000 </r>
       <r>    1.1464    1.0000 </r>
       <r>    1.1471    1.0000 </r>
       <r>    3.5434    1.0000 </r>
       <r>    3.5434    1.0000 </r>
       <r>    3.6443    1.0000 </r>
       <r>    4.5942    1.0000 </r>
       <r>    4.8224    1.0000 </r>
       <r>    5.6769    1.0018 </r>
       <r>    5.6769    1.0018 </r>
       <r>    5.8621    0.4365 </r>
       <r>   13.6611    0.0000 </r>
       <r>   16.4873    0.0000 </r>
       <r>   16.4873    0.0000 </r>
       <r>   21.6325    0.0000 </r>
       <r>   22.9123    0.0000 </r>
       <r>   27.9781    0.0000 </r>
       <r>   28.9993    0.0000 </r>
       <r>   30.4594    0.0000 </r>
       <r>   30.4594    0.0000 </r>
      </set>
      <set comment="kpoint 4">
       <r>   -1.7846    1.0000 </r>
       <r>    1.3151    1.0000 </r>
       <r>    1.3369    1.0000 </r>
       <r>    3.5521    1.0000 </r>
       <r>    3.5521    1.0000 </r>
       <r>    3.7664    1.0000 </r>
       <r>    4.3954    1.0000 </r>
       <r>    4.8995    1.0000 </r>
       <r>    5.3703    1.0019 </r>
       <r>    5.3703    1.0019 </r>
       <r>    5.7306    0.9118 </r>
       <r>   11.9708    0.0000 </r>
       <r>   17.2750    0.0000 </r>
       <r>   17.2750    0.0000 </r>
       <r>   21.7735    0.0000 </r>
       <r>   23.5528    0.0000 </r>
       <r>   27.6737    0.0000 </r>
       <r>   29.6190    0.0000 </r>
       <r>   29.6190    0.0000 </r>
       <r>   29.7537    0.0000 </r>
      </set>
      <set comment="kpoint 5">
       <r>   -1.1936    1.0000 </r>
       <r>    1.4945    1.0000 </r>
       <r>    1.5939    1.0000 </r>
       <r>    3.5798    1.0000 </r>
       <r>    3.5798    1.0000 </r>
       <r>    3.9307    1.0000 </r>
       <r>    4.1282    1.0000 </r>
       <r>    5.0065    1.0000 </r>
       <r>    5.0241    1.0000 </r>
       <r>    5.0241    1.0000 </r>
       <r>    5.5554    1.0295 </r>
       <r>   10.3008   -0.0000 </r>
       <r>   18.2878    0.0000 </r>
       <r>   18.2878    0.0000 </r>
       <r>   21.9818    0.0000 </r>
       <r>   23.9738    0.0000 </r>
       <r>   26.4566    0.0000 </r>
       <r>   28.3453    0.0000 </r>
       <r>   28.3453    0.0000 </r>
       <r>   30.1516    0.0000 </r>
      </set>
      <set comment="kpoint 6">
       <r>   -0.4944    1.0000 </r>
       <r>    1.6252    1.0000 </r>
       <r>    1.9073    1.0000 </r>
       <r>    3.6387    1.0000 </r>
       <r>    3.6387    1.0000 </r>
       <r>    3.8045    1.0000 </r>
       <r>    4.1307    1.0000 </r>
       <r>    4.6801    1.0000 </r>
       <r>    4.6801    1.0000 </r>
       <r>    5.1552    1.0000 </r>
       <r>    5.3450    1.0011 </r>
       <r>    8.7650   -0.0000 </r>
       <r>   19.4764    0.0000 </r>
       <r>   19.4764    0.0000 </r>
       <r>   22.2682    0.0000 </r>
       <r>   24.3531    0.0000 </r>
       <r>   25.3926    0.0000 </r>
       <r>   26.8542    0.0000 </r>
       <r>   26.8542    0.0000 </r>
       <r>   28.6532    0.0000 </r>
      </set>
      <set comment="kpoint 7">
       <r>    0.2463    1.0000 </r>
       <r>    1.6250    1.0000 </r>
       <r>    2.2646    1.0000 </r>
       <r>    3.4387    1.0000 </r>
       <r>    3.7402    1.0000 </r>
       <r>    3.7402    1.0000 </r>
       <r>    4.3586    1.0000 </r>
       <r>    4.3671    1.0000 </r>
       <r>    4.3671    1.0000 </r>
       <r>    5.1090    1.0000 </r>
       <r>    5.3844    1.0026 </r>
       <r>    7.4518   -0.0000 </r>
       <r>   20.8015    0.0000 </r>
       <r>   20.8015    0.0000 </r>
       <r>   22.6461    0.0000 </r>
       <r>   24.4895    0.0000 </r>
       <r>   24.8165    0.0000 </r>
       <r>   25.2939    0.0000 </r>
       <r>   25.2939    0.0000 </r>
       <r>   27.3537    0.0000 </r>
      </set>
      <set comment="kpoint 8">
       <r>    0.9216    1.0000 </r>
       <r>    1.4039    1.0000 </r>
       <r>    2.6505    1.0000 </r>
       <r>    3.0480    1.0000 </r>
       <r>    3.8930    1.0000 </r>
       <r>    3.8930    1.0000 </r>
       <r>    4.1022    1.0000 </r>
       <r>    4.1022    1.0000 </r>
       <r>    4.6046    1.0000 </r>
       <r>    4.8585    1.0000 </r>
       <r>    5.7765    0.7788 </r>
       <r>    6.4443   -0.0001 </r>
       <r>   22.2318    0.0000 </r>
       <r>   22.2318    0.0000 </r>
       <r>   23.1313    0.0000 </r>
       <r>   23.7391    0.0000 </r>
       <r>   23.7391    0.0000 </r>
       <r>   23.7403    0.0000 </r>
       <r>   25.4434    0.0000 </r>
       <r>   26.2822    0.0000 </r>
      </set>
      <set comment="kpoint 9">
       <r>   -2.4106    1.0000 </r>
       <r>    1.0680    1.0000 </r>
       <r>    1.0723    1.0000 </r>
       <r>    3.4934    1.0000 </r>
       <r>    3.5398    1.0000 </r>
       <r>    3.6431    1.0000 </r>
       <r>    4.7084    1.0000 </r>
       <r>    4.7621    1.0000 </r>
       <r>    5.7531    0.8531 </r>
       <r>    5.8144    0.6361 </r>
       <r>    5.9827    0.0478 </r>
       <r>   15.1520    0.0000 </r>
       <r>   15.4487    0.0000 </r>
       <r>   16.1512    0.0000 </r>
       <r>   21.8121    0.0000 </r>
       <r>   22.3465    0.0000 </r>
       <r>   27.2446    0.0000 </r>
       <r>   29.7041    0.0000 </r>
       <r>   30.6229    0.0000 </r>
       <r>   30.7684    0.0000 </r>
      </set>
      <set comment="kpoint 10">
       <r>   -2.1387    1.0000 </r>
       <r>    1.1797    1.0000 </r>
       <r>    1.1917    1.0000 </r>
       <r>    3.4540    1.0000 </r>
       <r>    3.5329    1.0000 </r>
       <r>    3.7572    1.0000 </r>
       <r>    4.6077    1.0000 </r>
       <r>    4.8014    1.0000 </r>
       <r>    5.4993    1.0169 </r>
       <r>    5.5997    1.0354 </r>
       <r>    5.9535    0.1126 </r>
       <r>   13.7791    0.0000 </r>
       <r>   15.8098    0.0000 </r>
       <r>   16.6436    0.0000 </r>
       <r>   21.9809    0.0000 </r>
       <r>   23.2490    0.0000 </r>
       <r>   28.1853    0.0000 </r>
       <r>   28.4286    0.0000 </r>
       <r>   30.1682    0.0000 </r>
       <r>   30.4884    0.0000 </r>
      </set>
      <set comment="kpoint 11">
       <r>   -1.6992    1.0000 </r>
       <r>    1.3495    1.0000 </r>
       <r>    1.3760    1.0000 </r>
       <r>    3.4366    1.0000 </r>
       <r>    3.5284    1.0000 </r>
       <r>    3.9040    1.0000 </r>
       <r>    4.4301    1.0000 </r>
       <r>    4.8800    1.0000 </r>
       <r>    5.1803    1.0000 </r>
       <r>    5.2976    1.0004 </r>
       <r>    5.8530    0.4748 </r>
       <r>   12.0859    0.0000 </r>
       <r>   16.5317    0.0000 </r>
       <r>   17.4134    0.0000 </r>
       <r>   22.1595    0.0000 </r>
       <r>   23.9800    0.0000 </r>
       <r>   27.0346    0.0000 </r>
       <r>   29.2813    0.0000 </r>
       <r>   29.7056    0.0000 </r>
       <r>   29.8918    0.0000 </r>
      </set>
      <set comment="kpoint 12">
       <r>   -1.1151    1.0000 </r>
       <r>    1.5304    1.0000 </r>
       <r>    1.6235    1.0000 </r>
       <r>    3.4469    1.0000 </r>
       <r>    3.5284    1.0000 </r>
       <r>    4.0832    1.0000 </r>
       <r>    4.2024    1.0000 </r>
       <r>    4.8343    1.0000 </r>
       <r>    4.9626    1.0000 </r>
       <r>    4.9887    1.0000 </r>
       <r>    5.6965    0.9769 </r>
       <r>   10.4092   -0.0000 </r>
       <r>   17.4491    0.0000 </r>
       <r>   18.4083    0.0000 </r>
       <r>   22.4099    0.0000 </r>
       <r>   24.4873    0.0000 </r>
       <r>   25.6943    0.0000 </r>
       <r>   28.0726    0.0000 </r>
       <r>   28.4370    0.0000 </r>
       <r>   31.2151    0.0000 </r>
      </set>
      <set comment="kpoint 13">
       <r>   -0.4266    1.0000 </r>
       <r>    1.6585    1.0000 </r>
       <r>    1.9261    1.0000 </r>
       <r>    3.4935    1.0000 </r>
       <r>    3.4995    1.0000 </r>
       <r>    3.9819    1.0000 </r>
       <r>    4.2918    1.0000 </r>
       <r>    4.4956    1.0000 </r>
       <r>    4.6410    1.0000 </r>
       <r>    5.1393    1.0000 </r>
       <r>    5.4977    1.0166 </r>
       <r>    8.8617   -0.0000 </r>
       <r>   18.5016    0.0000 </r>
       <r>   19.5812    0.0000 </r>
       <r>   22.7543    0.0000 </r>
       <r>   24.4301    0.0000 </r>
       <r>   24.9561    0.0000 </r>
       <r>   26.7935    0.0000 </r>
       <r>   26.9371    0.0000 </r>
       <r>   29.7332    0.0000 </r>
      </set>
      <set comment="kpoint 14">
       <r>    0.2988    1.0000 </r>
       <r>    1.6528    1.0000 </r>
       <r>    2.2693    1.0000 </r>
       <r>    3.3218    1.0000 </r>
       <r>    3.5855    1.0000 </r>
       <r>    3.9096    1.0000 </r>
       <r>    4.1896    1.0000 </r>
       <r>    4.3658    1.0000 </r>
       <r>    4.5238    1.0000 </r>
       <r>    5.2691    1.0002 </r>
       <r>    5.3753    1.0021 </r>
       <r>    7.5280   -0.0000 </r>
       <r>   19.6395    0.0000 </r>
       <r>   20.8938    0.0000 </r>
       <r>   23.2164    0.0000 </r>
       <r>   23.2166    0.0000 </r>
       <r>   25.3717    0.0000 </r>
       <r>   25.5223    0.0000 </r>
       <r>   25.6142    0.0000 </r>
       <r>   28.3848    0.0000 </r>
      </set>
      <set comment="kpoint 15">
       <r>    0.9573    1.0000 </r>
       <r>    1.4299    1.0000 </r>
       <r>    2.6354    1.0000 </r>
       <r>    3.0007    1.0000 </r>
       <r>    3.7304    1.0000 </r>
       <r>    3.9321    1.0000 </r>
       <r>    3.9944    1.0000 </r>
       <r>    4.1515    1.0000 </r>
       <r>    4.7707    1.0000 </r>
       <r>    5.0229    1.0000 </r>
       <r>    5.7875    0.7399 </r>
       <r>    6.4887   -0.0000 </r>
       <r>   20.8222    0.0000 </r>
       <r>   22.0188    0.0000 </r>
       <r>   22.3150    0.0000 </r>
       <r>   23.8173    0.0000 </r>
       <r>   23.8267    0.0000 </r>
       <r>   24.6188    0.0000 </r>
       <r>   26.2646    0.0000 </r>
       <r>   27.2189    0.0000 </r>
      </set>
      <set comment="kpoint 16">
       <r>   -1.8742    1.0000 </r>
       <r>    1.2754    1.0000 </r>
       <r>    1.3199    1.0000 </r>
       <r>    3.3531    1.0000 </r>
       <r>    3.5067    1.0000 </r>
       <r>    3.9302    1.0000 </r>
       <r>    4.6084    1.0000 </r>
       <r>    4.7756    1.0000 </r>
       <r>    5.1924    1.0000 </r>
       <r>    5.3910    1.0029 </r>
       <r>    6.0155   -0.0001 </r>
       <r>   13.7619    0.0000 </r>
       <r>   14.7369    0.0000 </r>
       <r>   17.0992    0.0000 </r>
       <r>   22.3232    0.0000 </r>
       <r>   24.2492    0.0000 </r>
       <r>   27.1140    0.0000 </r>
       <r>   28.9180    0.0000 </r>
       <r>   29.6501    0.0000 </r>
       <r>   30.4625    0.0000 </r>
      </set>
      <set comment="kpoint 17">
       <r>   -1.4483    1.0000 </r>
       <r>    1.4206    1.0000 </r>
       <r>    1.5147    1.0000 </r>
       <r>    3.2800    1.0000 </r>
       <r>    3.4757    1.0000 </r>
       <r>    4.1277    1.0000 </r>
       <r>    4.5099    1.0000 </r>
       <r>    4.8306    1.0000 </r>
       <r>    4.8429    1.0000 </r>
       <r>    5.1060    1.0000 </r>
       <r>    5.9958    0.0258 </r>
       <r>   12.3460    0.0000 </r>
       <r>   15.0895    0.0000 </r>
       <r>   17.8207    0.0000 </r>
       <r>   22.5437    0.0000 </r>
       <r>   25.2478    0.0000 </r>
       <r>   25.6255    0.0000 </r>
       <r>   28.8374    0.0000 </r>
       <r>   29.9424    0.0000 </r>
       <r>   30.3730    0.0000 </r>
      </set>
      <set comment="kpoint 18">
       <r>   -0.8871    1.0000 </r>
       <r>    1.5826    1.0000 </r>
       <r>    1.7566    1.0000 </r>
       <r>    3.2436    1.0000 </r>
       <r>    3.4410    1.0000 </r>
       <r>    4.3460    1.0000 </r>
       <r>    4.3587    1.0000 </r>
       <r>    4.4863    1.0000 </r>
       <r>    4.8073    1.0000 </r>
       <r>    4.9385    1.0000 </r>
       <r>    5.9023    0.2756 </r>
       <r>   10.6825   -0.0000 </r>
       <r>   15.8815    0.0000 </r>
       <r>   18.7658    0.0000 </r>
       <r>   22.7864    0.0000 </r>
       <r>   24.1572    0.0000 </r>
       <r>   25.9885    0.0000 </r>
       <r>   27.7778    0.0000 </r>
       <r>   28.7086    0.0000 </r>
       <r>   32.4800    0.0000 </r>
      </set>
      <set comment="kpoint 19">
       <r>   -0.2349    1.0000 </r>
       <r>    1.6970    1.0000 </r>
       <r>    2.0346    1.0000 </r>
       <r>    3.2520    1.0000 </r>
       <r>    3.3741    1.0000 </r>
       <r>    4.1502    1.0000 </r>
       <r>    4.2278    1.0000 </r>
       <r>    4.5500    1.0000 </r>
       <r>    4.5815    1.0000 </r>
       <r>    5.0922    1.0000 </r>
       <r>    5.7494    0.8634 </r>
       <r>    9.1135   -0.0000 </r>
       <r>   16.8225    0.0000 </r>
       <r>   19.8937    0.0000 </r>
       <r>   22.7542    0.0000 </r>
       <r>   23.1002    0.0000 </r>
       <r>   26.6379    0.0000 </r>
       <r>   26.6658    0.0000 </r>
       <r>   27.1807    0.0000 </r>
       <r>   31.6358    0.0000 </r>
      </set>
      <set comment="kpoint 20">
       <r>    0.4378    1.0000 </r>
       <r>    1.6796    1.0000 </r>
       <r>    2.3415    1.0000 </r>
       <r>    3.2194    1.0000 </r>
       <r>    3.3129    1.0000 </r>
       <r>    3.8550    1.0000 </r>
       <r>    4.1824    1.0000 </r>
       <r>    4.3713    1.0000 </r>
       <r>    4.8285    1.0000 </r>
       <r>    5.3475    1.0012 </r>
       <r>    5.5520    1.0288 </r>
       <r>    7.7309   -0.0000 </r>
       <r>   17.8617    0.0000 </r>
       <r>   21.1693    0.0000 </r>
       <r>   21.4242    0.0000 </r>
       <r>   23.5163    0.0000 </r>
       <r>   25.6006    0.0000 </r>
       <r>   25.6413    0.0000 </r>
       <r>   27.3469    0.0000 </r>
       <r>   30.3538    0.0000 </r>
      </set>
      <set comment="kpoint 21">
       <r>    1.0353    1.0000 </r>
       <r>    1.4645    1.0000 </r>
       <r>    2.6612    1.0000 </r>
       <r>    2.9672    1.0000 </r>
       <r>    3.4324    1.0000 </r>
       <r>    3.6135    1.0000 </r>
       <r>    4.2123    1.0000 </r>
       <r>    4.2708    1.0000 </r>
       <r>    5.0793    1.0000 </r>
       <r>    5.3243    1.0007 </r>
       <r>    5.8195    0.6152 </r>
       <r>    6.6118   -0.0000 </r>
       <r>   18.9787    0.0000 </r>
       <r>   20.1663    0.0000 </r>
       <r>   22.5629    0.0000 </r>
       <r>   24.0488    0.0000 </r>
       <r>   24.0642    0.0000 </r>
       <r>   24.7687    0.0000 </r>
       <r>   28.1905    0.0000 </r>
       <r>   29.1947    0.0000 </r>
      </set>
      <set comment="kpoint 22">
       <r>   -1.0489    1.0000 </r>
       <r>    1.5175    1.0000 </r>
       <r>    1.7315    1.0000 </r>
       <r>    3.1508    1.0000 </r>
       <r>    3.4260    1.0000 </r>
       <r>    4.3725    1.0000 </r>
       <r>    4.4752    1.0000 </r>
       <r>    4.5641    1.0000 </r>
       <r>    4.8006    1.0000 </r>
       <r>    4.8583    1.0000 </r>
       <r>    6.0640   -0.0318 </r>
       <r>   12.1900    0.0000 </r>
       <r>   14.1000    0.0000 </r>
       <r>   18.4755    0.0000 </r>
       <r>   22.7631    0.0000 </r>
       <r>   24.0537    0.0000 </r>
       <r>   26.6956    0.0000 </r>
       <r>   28.2175    0.0000 </r>
       <r>   30.1217    0.0000 </r>
       <r>   31.3914    0.0000 </r>
      </set>
      <set comment="kpoint 23">
       <r>   -0.5335    1.0000 </r>
       <r>    1.6135    1.0000 </r>
       <r>    1.9979    1.0000 </r>
       <r>    3.0628    1.0000 </r>
       <r>    3.3960    1.0000 </r>
       <r>    4.1146    1.0000 </r>
       <r>    4.5189    1.0000 </r>
       <r>    4.6245    1.0000 </r>
       <r>    4.6286    1.0000 </r>
       <r>    4.8704    1.0000 </r>
       <r>    6.0509   -0.0270 </r>
       <r>   10.9255   -0.0000 </r>
       <r>   14.4060    0.0000 </r>
       <r>   19.3483    0.0000 </r>
       <r>   22.5097    0.0000 </r>
       <r>   22.9777    0.0000 </r>
       <r>   27.3730    0.0000 </r>
       <r>   27.8396    0.0000 </r>
       <r>   29.1495    0.0000 </r>
       <r>   31.4173    0.0000 </r>
      </set>
      <set comment="kpoint 24">
       <r>    0.0444    1.0000 </r>
       <r>    1.6623    1.0000 </r>
       <r>    2.2870    1.0000 </r>
       <r>    3.0257    1.0000 </r>
       <r>    3.3675    1.0000 </r>
       <r>    3.7858    1.0000 </r>
       <r>    4.4570    1.0000 </r>
       <r>    4.4628    1.0000 </r>
       <r>    4.8895    1.0000 </r>
       <r>    5.0175    1.0000 </r>
       <r>    5.9643    0.0862 </r>
       <r>    9.4082   -0.0000 </r>
       <r>   15.1962    0.0000 </r>
       <r>   20.4076    0.0000 </r>
       <r>   21.0435    0.0000 </r>
       <r>   23.2504    0.0000 </r>
       <r>   26.4325    0.0000 </r>
       <r>   27.5646    0.0000 </r>
       <r>   28.7248    0.0000 </r>
       <r>   32.0786    0.0000 </r>
      </set>
      <set comment="kpoint 25">
       <r>    0.6100    1.0000 </r>
       <r>    1.6106    1.0000 </r>
       <r>    2.5789    1.0000 </r>
       <r>    3.0473    1.0000 </r>
       <r>    3.2819    1.0000 </r>
       <r>    3.5062    1.0000 </r>
       <r>    4.3997    1.0000 </r>
       <r>    4.4446    1.0000 </r>
       <r>    5.1483    1.0000 </r>
       <r>    5.2997    1.0004 </r>
       <r>    5.8171    0.6250 </r>
       <r>    7.9910   -0.0000 </r>
       <r>   16.1542    0.0000 </r>
       <r>   19.6712    0.0000 </r>
       <r>   21.6235    0.0000 </r>
       <r>   23.6181    0.0000 </r>
       <r>   25.5313    0.0000 </r>
       <r>   25.9644    0.0000 </r>
       <r>   29.5480    0.0000 </r>
       <r>   32.3511    0.0000 </r>
      </set>
      <set comment="kpoint 26">
       <r>    1.0851    1.0000 </r>
       <r>    1.4222    1.0000 </r>
       <r>    2.8584    1.0000 </r>
       <r>    3.1041    1.0000 </r>
       <r>    3.1334    1.0000 </r>
       <r>    3.2868    1.0000 </r>
       <r>    4.4120    1.0000 </r>
       <r>    4.4411    1.0000 </r>
       <r>    5.3963    1.0032 </r>
       <r>    5.6233    1.0335 </r>
       <r>    5.8675    0.4138 </r>
       <r>    6.7827   -0.0000 </r>
       <r>   17.2254    0.0000 </r>
       <r>   18.3982    0.0000 </r>
       <r>   22.9698    0.0000 </r>
       <r>   24.1104    0.0000 </r>
       <r>   24.4239    0.0000 </r>
       <r>   24.7475    0.0000 </r>
       <r>   30.4206    0.0000 </r>
       <r>   31.3710    0.0000 </r>
      </set>
      <set comment="kpoint 27">
       <r>   -0.0989    1.0000 </r>
       <r>    1.6156    1.0000 </r>
       <r>    2.3039    1.0000 </r>
       <r>    2.9251    1.0000 </r>
       <r>    3.4325    1.0000 </r>
       <r>    3.7599    1.0000 </r>
       <r>    4.4823    1.0000 </r>
       <r>    4.6212    1.0000 </r>
       <r>    4.8373    1.0000 </r>
       <r>    4.9133    1.0000 </r>
       <r>    6.1200   -0.0330 </r>
       <r>   10.6197   -0.0000 </r>
       <r>   13.6665    0.0000 </r>
       <r>   20.1377    0.0000 </r>
       <r>   20.9154    0.0000 </r>
       <r>   23.1544    0.0000 </r>
       <r>   26.7834    0.0000 </r>
       <r>   29.5266    0.0000 </r>
       <r>   29.6126    0.0000 </r>
       <r>   29.8267    0.0000 </r>
      </set>
      <set comment="kpoint 28">
       <r>    0.3514    1.0000 </r>
       <r>    1.5697    1.0000 </r>
       <r>    2.6365    1.0000 </r>
       <r>    2.8421    1.0000 </r>
       <r>    3.4453    1.0000 </r>
       <r>    3.5367    1.0000 </r>
       <r>    4.4254    1.0000 </r>
       <r>    4.6384    1.0000 </r>
       <r>    4.9283    1.0000 </r>
       <r>    5.1901    1.0000 </r>
       <r>    6.1089   -0.0345 </r>
       <r>    9.5235   -0.0000 </r>
       <r>   13.9383    0.0000 </r>
       <r>   19.4189    0.0000 </r>
       <r>   21.1120    0.0000 </r>
       <r>   23.3806    0.0000 </r>
       <r>   26.0660    0.0000 </r>
       <r>   28.0129    0.0000 </r>
       <r>   30.4996    0.0000 </r>
       <r>   30.8266    0.0000 </r>
      </set>
      <set comment="kpoint 29">
       <r>    0.7504    1.0000 </r>
       <r>    1.4643    1.0000 </r>
       <r>    2.8225    1.0000 </r>
       <r>    2.9614    1.0000 </r>
       <r>    3.1867    1.0000 </r>
       <r>    3.5858    1.0000 </r>
       <r>    4.4585    1.0000 </r>
       <r>    4.6578    1.0000 </r>
       <r>    5.2295    1.0001 </r>
       <r>    5.4500    1.0084 </r>
       <r>    6.0249   -0.0095 </r>
       <r>    8.1957   -0.0000 </r>
       <r>   14.6925    0.0000 </r>
       <r>   18.0385    0.0000 </r>
       <r>   22.2483    0.0000 </r>
       <r>   23.6925    0.0000 </r>
       <r>   25.3307    0.0000 </r>
       <r>   26.4231    0.0000 </r>
       <r>   31.3641    0.0000 </r>
       <r>   31.8187    0.0000 </r>
      </set>
      <set comment="kpoint 30">
       <r>    1.0641    1.0000 </r>
       <r>    1.2973    1.0000 </r>
       <r>    2.8722    1.0000 </r>
       <r>    2.9939    1.0000 </r>
       <r>    3.2508    1.0000 </r>
       <r>    3.4760    1.0000 </r>
       <r>    4.5454    1.0000 </r>
       <r>    4.6292    1.0000 </r>
       <r>    5.6833    0.9947 </r>
       <r>    5.8789    0.3671 </r>
       <r>    5.9182    0.2190 </r>
       <r>    6.9479   -0.0000 </r>
       <r>   15.6629    0.0000 </r>
       <r>   16.7839    0.0000 </r>
       <r>   23.5246    0.0000 </r>
       <r>   24.1164    0.0000 </r>
       <r>   24.6657    0.0000 </r>
       <r>   24.9219    0.0000 </r>
       <r>   32.3422    0.0000 </r>
       <r>   32.6257    0.0000 </r>
      </set>
      <set comment="kpoint 31">
       <r>    0.6231    1.0000 </r>
       <r>    1.4420    1.0000 </r>
       <r>    2.7153    1.0000 </r>
       <r>    3.0294    1.0000 </r>
       <r>    3.1513    1.0000 </r>
       <r>    3.8850    1.0000 </r>
       <r>    4.4557    1.0000 </r>
       <r>    4.7494    1.0000 </r>
       <r>    4.8807    1.0000 </r>
       <r>    5.4696    1.0113 </r>
       <r>    6.1739   -0.0215 </r>
       <r>    9.1186   -0.0000 </r>
       <r>   13.4137    0.0000 </r>
       <r>   17.9186    0.0000 </r>
       <r>   21.9924    0.0000 </r>
       <r>   23.5495    0.0000 </r>
       <r>   25.5852    0.0000 </r>
       <r>   27.9975    0.0000 </r>
       <r>   29.6051    0.0000 </r>
       <r>   32.6960    0.0000 </r>
      </set>
      <set comment="kpoint 32">
       <r>    0.8336    1.0000 </r>
       <r>    1.2975    1.0000 </r>
       <r>    2.6550    1.0000 </r>
       <r>    2.9181    1.0000 </r>
       <r>    3.4181    1.0000 </r>
       <r>    4.1360    1.0000 </r>
       <r>    4.5435    1.0000 </r>
       <r>    4.8025    1.0000 </r>
       <r>    5.1367    1.0000 </r>
       <r>    5.7170    0.9413 </r>
       <r>    6.1598   -0.0247 </r>
       <r>    8.1698   -0.0000 </r>
       <r>   13.6695    0.0000 </r>
       <r>   16.5653    0.0000 </r>
       <r>   23.0310    0.0000 </r>
       <r>   23.7892    0.0000 </r>
       <r>   25.0547    0.0000 </r>
       <r>   26.8504    0.0000 </r>
       <r>   30.0634    0.0000 </r>
       <r>   33.1798    0.0000 </r>
      </set>
      <set comment="kpoint 33">
       <r>    1.0000    1.0000 </r>
       <r>    1.1498    1.0000 </r>
       <r>    2.6673    1.0000 </r>
       <r>    2.7552    1.0000 </r>
       <r>    3.7625    1.0000 </r>
       <r>    4.0282    1.0000 </r>
       <r>    4.6587    1.0000 </r>
       <r>    4.7592    1.0000 </r>
       <r>    5.9216    0.2075 </r>
       <r>    5.9521    0.1162 </r>
       <r>    6.0726   -0.0338 </r>
       <r>    7.0294   -0.0000 </r>
       <r>   14.3902    0.0000 </r>
       <r>   15.3792    0.0000 </r>
       <r>   24.1207    0.0000 </r>
       <r>   24.2079    0.0000 </r>
       <r>   24.5493    0.0000 </r>
       <r>   25.4977    0.0000 </r>
       <r>   30.9499    0.0000 </r>
       <r>   32.0018    0.0000 </r>
      </set>
      <set comment="kpoint 34">
       <r>    0.8848    1.0000 </r>
       <r>    1.1451    1.0000 </r>
       <r>    2.5553    1.0000 </r>
       <r>    2.7142    1.0000 </r>
       <r>    3.8839    1.0000 </r>
       <r>    4.6439    1.0000 </r>
       <r>    4.6630    1.0000 </r>
       <r>    4.9206    1.0000 </r>
       <r>    5.1747    1.0000 </r>
       <r>    5.9368    0.1593 </r>
       <r>    6.2162   -0.0127 </r>
       <r>    7.7360   -0.0000 </r>
       <r>   13.2858    0.0000 </r>
       <r>   15.2880    0.0000 </r>
       <r>   23.9346    0.0000 </r>
       <r>   23.9525    0.0000 </r>
       <r>   24.7352    0.0000 </r>
       <r>   26.8203    0.0000 </r>
       <r>   29.4604    0.0000 </r>
       <r>   31.8917    0.0000 </r>
      </set>
      <set comment="kpoint 35">
       <r>    0.9406    1.0000 </r>
       <r>    1.0246    1.0000 </r>
       <r>    2.5304    1.0000 </r>
       <r>    2.5836    1.0000 </r>
       <r>    4.2984    1.0000 </r>
       <r>    4.6011    1.0000 </r>
       <r>    4.7462    1.0000 </r>
       <r>    4.8411    1.0000 </r>
       <r>    5.9849    0.0438 </r>
       <r>    6.0989   -0.0353 </r>
       <r>    6.1945   -0.0170 </r>
       <r>    6.9324   -0.0000 </r>
       <r>   13.5393    0.0000 </r>
       <r>   14.2538    0.0000 </r>
       <r>   24.1442    0.0000 </r>
       <r>   24.4181    0.0000 </r>
       <r>   24.9793    0.0000 </r>
       <r>   26.0295    0.0000 </r>
       <r>   29.8588    0.0000 </r>
       <r>   30.7611    0.0000 </r>
      </set>
      <set comment="kpoint 36">
       <r>    0.9171    1.0000 </r>
       <r>    0.9442    1.0000 </r>
       <r>    2.4691    1.0000 </r>
       <r>    2.4869    1.0000 </r>
       <r>    4.7462    1.0000 </r>
       <r>    4.8037    1.0000 </r>
       <r>    4.8145    1.0000 </r>
       <r>    4.9446    1.0000 </r>
       <r>    6.1859   -0.0188 </r>
       <r>    6.2067   -0.0145 </r>
       <r>    6.2394   -0.0090 </r>
       <r>    6.6067   -0.0000 </r>
       <r>   13.2352    0.0000 </r>
       <r>   13.5016    0.0000 </r>
       <r>   24.2010    0.0000 </r>
       <r>   24.2954    0.0000 </r>
       <r>   25.7362    0.0000 </r>
       <r>   26.1942    0.0000 </r>
       <r>   29.3894    0.0000 </r>
       <r>   29.7972    0.0000 </r>
      </set>
      <set comment="kpoint 37">
       <r>   -2.3194    1.0000 </r>
       <r>    1.1099    1.0000 </r>
       <r>    1.1099    1.0000 </r>
       <r>    3.4888    1.0000 </r>
       <r>    3.4888    1.0000 </r>
       <r>    3.7178    1.0000 </r>
       <r>    4.7269    1.0000 </r>
       <r>    4.7269    1.0000 </r>
       <r>    5.5676    1.0319 </r>
       <r>    5.9044    0.2679 </r>
       <r>    5.9044    0.2679 </r>
       <r>   15.3157    0.0000 </r>
       <r>   15.3157    0.0000 </r>
       <r>   15.7520    0.0000 </r>
       <r>   22.3863    0.0000 </r>
       <r>   22.3863    0.0000 </r>
       <r>   27.4998    0.0000 </r>
       <r>   29.6060    0.0000 </r>
       <r>   29.6060    0.0000 </r>
       <r>   31.1484    0.0000 </r>
      </set>
      <set comment="kpoint 38">
       <r>   -2.0496    1.0000 </r>
       <r>    1.2211    1.0000 </r>
       <r>    1.2278    1.0000 </r>
       <r>    3.4288    1.0000 </r>
       <r>    3.4762    1.0000 </r>
       <r>    3.8517    1.0000 </r>
       <r>    4.6234    1.0000 </r>
       <r>    4.7798    1.0000 </r>
       <r>    5.2777    1.0002 </r>
       <r>    5.6896    0.9867 </r>
       <r>    5.9258    0.1937 </r>
       <r>   13.9016    0.0000 </r>
       <r>   15.7843    0.0000 </r>
       <r>   16.1209    0.0000 </r>
       <r>   22.5086    0.0000 </r>
       <r>   23.4328    0.0000 </r>
       <r>   28.1932    0.0000 </r>
       <r>   28.3819    0.0000 </r>
       <r>   29.1828    0.0000 </r>
       <r>   31.0944    0.0000 </r>
      </set>
      <set comment="kpoint 39">
       <r>   -1.6140    1.0000 </r>
       <r>    1.3975    1.0000 </r>
       <r>    1.4016    1.0000 </r>
       <r>    3.3945    1.0000 </r>
       <r>    3.4588    1.0000 </r>
       <r>    4.0176    1.0000 </r>
       <r>    4.4603    1.0000 </r>
       <r>    4.8621    1.0000 </r>
       <r>    4.9413    1.0000 </r>
       <r>    5.3863    1.0027 </r>
       <r>    5.8649    0.4246 </r>
       <r>   12.2030    0.0000 </r>
       <r>   16.5025    0.0000 </r>
       <r>   16.8150    0.0000 </r>
       <r>   22.7229    0.0000 </r>
       <r>   24.2509    0.0000 </r>
       <r>   26.7544    0.0000 </r>
       <r>   28.2403    0.0000 </r>
       <r>   30.0219    0.0000 </r>
       <r>   30.5470    0.0000 </r>
      </set>
      <set comment="kpoint 40">
       <r>   -1.0364    1.0000 </r>
       <r>    1.5763    1.0000 </r>
       <r>    1.6436    1.0000 </r>
       <r>    3.3966    1.0000 </r>
       <r>    3.4348    1.0000 </r>
       <r>    4.2128    1.0000 </r>
       <r>    4.2573    1.0000 </r>
       <r>    4.5977    1.0000 </r>
       <r>    4.9725    1.0000 </r>
       <r>    5.0469    1.0000 </r>
       <r>    5.7375    0.8951 </r>
       <r>   10.5205   -0.0000 </r>
       <r>   17.4055    0.0000 </r>
       <r>   17.7137    0.0000 </r>
       <r>   23.0449    0.0000 </r>
       <r>   24.8120    0.0000 </r>
       <r>   25.3929    0.0000 </r>
       <r>   26.9041    0.0000 </r>
       <r>   29.5324    0.0000 </r>
       <r>   31.5334    0.0000 </r>
      </set>
      <set comment="kpoint 41">
       <r>   -0.3580    1.0000 </r>
       <r>    1.7005    1.0000 </r>
       <r>    1.9365    1.0000 </r>
       <r>    3.3779    1.0000 </r>
       <r>    3.4439    1.0000 </r>
       <r>    4.0634    1.0000 </r>
       <r>    4.2841    1.0000 </r>
       <r>    4.4324    1.0000 </r>
       <r>    4.7143    1.0000 </r>
       <r>    5.1258    1.0000 </r>
       <r>    5.5602    1.0305 </r>
       <r>    8.9646   -0.0000 </r>
       <r>   18.4318    0.0000 </r>
       <r>   18.7661    0.0000 </r>
       <r>   23.4973    0.0000 </r>
       <r>   24.1255    0.0000 </r>
       <r>   25.3136    0.0000 </r>
       <r>   25.4286    0.0000 </r>
       <r>   28.2934    0.0000 </r>
       <r>   30.0984    0.0000 </r>
      </set>
      <set comment="kpoint 42">
       <r>    0.3532    1.0000 </r>
       <r>    1.6881    1.0000 </r>
       <r>    2.2655    1.0000 </r>
       <r>    3.2210    1.0000 </r>
       <r>    3.5392    1.0000 </r>
       <r>    3.9705    1.0000 </r>
       <r>    4.0279    1.0000 </r>
       <r>    4.4190    1.0000 </r>
       <r>    4.6640    1.0000 </r>
       <r>    5.3497    1.0012 </r>
       <r>    5.3735    1.0020 </r>
       <r>    7.6155   -0.0000 </r>
       <r>   19.5284    0.0000 </r>
       <r>   19.9350    0.0000 </r>
       <r>   22.9342    0.0000 </r>
       <r>   23.9551    0.0000 </r>
       <r>   24.1075    0.0000 </r>
       <r>   25.9006    0.0000 </r>
       <r>   27.0380    0.0000 </r>
       <r>   28.7694    0.0000 </r>
      </set>
      <set comment="kpoint 43">
       <r>    0.9964    1.0000 </r>
       <r>    1.4614    1.0000 </r>
       <r>    2.6112    1.0000 </r>
       <r>    2.9455    1.0000 </r>
       <r>    3.6729    1.0000 </r>
       <r>    3.8320    1.0000 </r>
       <r>    4.0226    1.0000 </r>
       <r>    4.1821    1.0000 </r>
       <r>    4.8941    1.0000 </r>
       <r>    5.1231    1.0000 </r>
       <r>    5.8142    0.6369 </r>
       <r>    6.5501   -0.0000 </r>
       <r>   20.6536    0.0000 </r>
       <r>   21.1964    0.0000 </r>
       <r>   21.7865    0.0000 </r>
       <r>   22.5387    0.0000 </r>
       <r>   24.9008    0.0000 </r>
       <r>   25.8856    0.0000 </r>
       <r>   26.6543    0.0000 </r>
       <r>   27.6109    0.0000 </r>
      </set>
      <set comment="kpoint 44">
       <r>   -1.7866    1.0000 </r>
       <r>    1.3201    1.0000 </r>
       <r>    1.3517    1.0000 </r>
       <r>    3.3406    1.0000 </r>
       <r>    3.4319    1.0000 </r>
       <r>    4.0287    1.0000 </r>
       <r>    4.6298    1.0000 </r>
       <r>    4.7537    1.0000 </r>
       <r>    4.9491    1.0000 </r>
       <r>    5.5643    1.0313 </r>
       <r>    5.9368    0.1592 </r>
       <r>   13.9154    0.0000 </r>
       <r>   14.7847    0.0000 </r>
       <r>   16.4178    0.0000 </r>
       <r>   23.0516    0.0000 </r>
       <r>   24.3037    0.0000 </r>
       <r>   27.0852    0.0000 </r>
       <r>   28.4754    0.0000 </r>
       <r>   29.0781    0.0000 </r>
       <r>   31.2957    0.0000 </r>
      </set>
      <set comment="kpoint 45">
       <r>   -1.3638    1.0000 </r>
       <r>    1.4690    1.0000 </r>
       <r>    1.5400    1.0000 </r>
       <r>    3.2620    1.0000 </r>
       <r>    3.3926    1.0000 </r>
       <r>    4.2369    1.0000 </r>
       <r>    4.5325    1.0000 </r>
       <r>    4.5940    1.0000 </r>
       <r>    4.8165    1.0000 </r>
       <r>    5.2882    1.0003 </r>
       <r>    5.9293    0.1823 </r>
       <r>   12.4749    0.0000 </r>
       <r>   15.1561    0.0000 </r>
       <r>   17.0641    0.0000 </r>
       <r>   23.3480    0.0000 </r>
       <r>   25.3326    0.0000 </r>
       <r>   25.6104    0.0000 </r>
       <r>   27.6568    0.0000 </r>
       <r>   30.4742    0.0000 </r>
       <r>   30.9206    0.0000 </r>
      </set>
      <set comment="kpoint 46">
       <r>   -0.8077    1.0000 </r>
       <r>    1.6386    1.0000 </r>
       <r>    1.7681    1.0000 </r>
       <r>    3.2197    1.0000 </r>
       <r>    3.3497    1.0000 </r>
       <r>    4.2532    1.0000 </r>
       <r>    4.3852    1.0000 </r>
       <r>    4.4712    1.0000 </r>
       <r>    4.9271    1.0000 </r>
       <r>    4.9750    1.0000 </r>
       <r>    5.8543    0.4692 </r>
       <r>   10.8042   -0.0000 </r>
       <r>   15.9456    0.0000 </r>
       <r>   17.9075    0.0000 </r>
       <r>   23.6913    0.0000 </r>
       <r>   24.1506    0.0000 </r>
       <r>   26.0926    0.0000 </r>
       <r>   26.4423    0.0000 </r>
       <r>   29.9465    0.0000 </r>
       <r>   31.4825    0.0000 </r>
      </set>
      <set comment="kpoint 47">
       <r>   -0.1636    1.0000 </r>
       <r>    1.7570    1.0000 </r>
       <r>    2.0280    1.0000 </r>
       <r>    3.1976    1.0000 </r>
       <r>    3.3124    1.0000 </r>
       <r>    3.9633    1.0000 </r>
       <r>    4.2534    1.0000 </r>
       <r>    4.6818    1.0000 </r>
       <r>    4.7107    1.0000 </r>
       <r>    5.0890    1.0000 </r>
       <r>    5.7180    0.9392 </r>
[...]
       </set>
       <set comment="band 16">
        <r>  0.0000  0.0825  0.0000  0.0825  0.0000  0.1081  0.0000  0.1081  0.0014 </r>
        <r>  0.0000  0.0825  0.0000  0.0825  0.0000  0.1081  0.0000  0.1081  0.0014 </r>
       </set>
       <set comment="band 17">
        <r>  0.2235  0.0009  0.1383  0.0009  0.0238  0.0008  0.0076  0.0008  0.0000 </r>
        <r>  0.2235  0.0009  0.1383  0.0009  0.0238  0.0008  0.0076  0.0008  0.0000 </r>
       </set>
       <set comment="band 18">
        <r>  0.1367  0.0310  0.1006  0.0310  0.0239  0.0304  0.0039  0.0304  0.0000 </r>
        <r>  0.1367  0.0310  0.1006  0.0310  0.0239  0.0304  0.0039  0.0304  0.0000 </r>
       </set>
       <set comment="band 19">
        <r>  0.0005  0.0000  0.0045  0.0000  0.0030  0.0713  0.0243  0.0713  0.0000 </r>
        <r>  0.0005  0.0000  0.0045  0.0000  0.0030  0.0713  0.0243  0.0713  0.0000 </r>
       </set>
       <set comment="band 20">
        <r>  0.0000  0.0000  0.0000  0.0000  0.0000  0.0777  0.0000  0.0777  0.0009 </r>
        <r>  0.0000  0.0000  0.0000  0.0000  0.0000  0.0777  0.0000  0.0777  0.0009 </r>
       </set>
      </set>
      <set comment="kpoint 117">
       <set comment="band 1">
        <r>  0.0196  0.0074  0.0074  0.0074  0.1393  0.1392  0.0000  0.1392  0.0000 </r>
        <r>  0.0196  0.0074  0.0074  0.0074  0.1393  0.1392  0.0000  0.1392  0.0000 </r>
       </set>
       <set comment="band 2">
        <r>  0.0479  0.0418  0.0418  0.0418  0.0815  0.0814  0.0000  0.0814  0.0000 </r>
        <r>  0.0479  0.0418  0.0418  0.0418  0.0815  0.0814  0.0000  0.0814  0.0000 </r>
       </set>
       <set comment="band 3">
        <r>  0.0000  0.0070  0.0304  0.0082  0.2635  0.0712  0.0160  0.0608  0.0000 </r>
        <r>  0.0000  0.0070  0.0304  0.0082  0.2635  0.0712  0.0160  0.0608  0.0000 </r>
       </set>
       <set comment="band 4">
        <r>  0.0000  0.0234  0.0000  0.0222  0.0001  0.1925  0.0000  0.2029  0.0160 </r>
        <r>  0.0000  0.0234  0.0000  0.0222  0.0001  0.1925  0.0000  0.2029  0.0160 </r>
       </set>
       <set comment="band 5">
        <r>  0.0000  0.0160  0.0657  0.0169  0.1999  0.0514  0.0392  0.0486  0.0000 </r>
        <r>  0.0000  0.0160  0.0657  0.0169  0.1999  0.0514  0.0392  0.0486  0.0000 </r>
       </set>
       <set comment="band 6">
        <r>  0.0000  0.0497  0.0000  0.0488  0.0000  0.1485  0.0000  0.1514  0.0392 </r>
        <r>  0.0000  0.0497  0.0000  0.0488  0.0000  0.1485  0.0000  0.1514  0.0392 </r>
       </set>
       <set comment="band 7">
        <r>  0.0000  0.0001  0.0003  0.0001  0.0369  0.0069  0.4336  0.0119  0.0027 </r>
        <r>  0.0000  0.0001  0.0003  0.0001  0.0369  0.0069  0.4336  0.0119  0.0027 </r>
       </set>
       <set comment="band 8">
        <r>  0.0000  0.0002  0.0000  0.0003  0.0002  0.0302  0.0027  0.0252  0.4336 </r>
        <r>  0.0000  0.0002  0.0000  0.0003  0.0002  0.0302  0.0027  0.0252  0.4336 </r>
       </set>
       <set comment="band 9">
        <r>  0.0000  0.0000  0.0000  0.0000  0.0141  0.0026  0.4682  0.0046  0.0033 </r>
        <r>  0.0000  0.0000  0.0000  0.0000  0.0141  0.0026  0.4682  0.0046  0.0033 </r>
       </set>
       <set comment="band 10">
        <r>  0.0000  0.0000  0.0000  0.0000  0.0001  0.0116  0.0033  0.0096  0.4682 </r>
        <r>  0.0000  0.0000  0.0000  0.0000  0.0001  0.0116  0.0033  0.0096  0.4682 </r>
       </set>
       <set comment="band 11">
        <r>  0.0387  0.0361  0.0361  0.0361  0.0996  0.0996  0.0000  0.0996  0.0000 </r>
        <r>  0.0387  0.0361  0.0361  0.0361  0.0996  0.0996  0.0000  0.0996  0.0000 </r>
       </set>
       <set comment="band 12">
        <r>  0.0000  0.0296  0.1227  0.0318  0.1408  0.0365  0.0256  0.0339  0.0000 </r>
        <r>  0.0000  0.0296  0.1227  0.0318  0.1408  0.0365  0.0256  0.0339  0.0000 </r>
       </set>
       <set comment="band 13">
        <r>  0.0000  0.0931  0.0000  0.0909  0.0000  0.1043  0.0000  0.1069  0.0256 </r>
        <r>  0.0000  0.0931  0.0000  0.0909  0.0000  0.1043  0.0000  0.1069  0.0256 </r>
       </set>
       <set comment="band 14">
        <r>  0.2771  0.0033  0.0033  0.0033  0.0430  0.0430  0.0000  0.0430  0.0000 </r>
        <r>  0.2771  0.0033  0.0033  0.0033  0.0430  0.0430  0.0000  0.0430  0.0000 </r>
       </set>
       <set comment="band 15">
        <r>  0.0000  0.0254  0.1147  0.0321  0.1411  0.0395  0.0140  0.0313  0.0000 </r>
        <r>  0.0000  0.0254  0.1147  0.0321  0.1411  0.0395  0.0140  0.0313  0.0000 </r>
       </set>
       <set comment="band 16">
        <r>  0.0000  0.0893  0.0001  0.0827  0.0002  0.1018  0.0000  0.1100  0.0140 </r>
        <r>  0.0000  0.0893  0.0001  0.0827  0.0002  0.1018  0.0000  0.1100  0.0140 </r>
       </set>
       <set comment="band 17">
        <r>  0.3109  0.0300  0.0300  0.0300  0.0000  0.0000  0.0000  0.0000  0.0000 </r>
        <r>  0.3109  0.0300  0.0300  0.0300  0.0000  0.0000  0.0000  0.0000  0.0000 </r>
       </set>
       <set comment="band 18">
        <r>  0.0944  0.0585  0.0585  0.0585  0.0381  0.0381  0.0000  0.0381  0.0000 </r>
        <r>  0.0944  0.0585  0.0585  0.0585  0.0381  0.0381  0.0000  0.0381  0.0000 </r>
       </set>
       <set comment="band 19">
        <r>  0.0000  0.0105  0.0002  0.0080  0.0005  0.0225  0.0013  0.0295  0.0945 </r>
        <r>  0.0000  0.0105  0.0002  0.0080  0.0005  0.0225  0.0013  0.0295  0.0945 </r>
       </set>
       <set comment="band 20">
        <r>  0.0000  0.0020  0.0123  0.0044  0.0345  0.0125  0.0945  0.0055  0.0013 </r>
        <r>  0.0000  0.0020  0.0123  0.0044  0.0345  0.0125  0.0945  0.0055  0.0013 </r>
       </set>
      </set>
      <set comment="kpoint 118">
       <set comment="band 1">
        <r>  0.0167  0.0175  0.0175  0.0018  0.1572  0.0841  0.0009  0.1571  0.0027 </r>
        <r>  0.0167  0.0175  0.0175  0.0018  0.1572  0.0841  0.0009  0.1571  0.0027 </r>
       </set>
       <set comment="band 2">
        <r>  0.0189  0.0300  0.0301  0.0000  0.1587  0.0432  0.0019  0.1585  0.0056 </r>
        <r>  0.0189  0.0300  0.0301  0.0000  0.1587  0.0432  0.0019  0.1585  0.0056 </r>
       </set>
       <set comment="band 3">
        <r>  0.0000  0.0307  0.0307  0.0000  0.1839  0.0000  0.0162  0.1841  0.0054 </r>
        <r>  0.0000  0.0307  0.0307  0.0000  0.1839  0.0000  0.0162  0.1841  0.0054 </r>
       </set>
       <set comment="band 4">
        <r>  0.0000  0.0396  0.0396  0.0000  0.1682  0.0000  0.0218  0.1683  0.0073 </r>
        <r>  0.0000  0.0396  0.0396  0.0000  0.1682  0.0000  0.0218  0.1683  0.0073 </r>
       </set>
       <set comment="band 5">
        <r>  0.0099  0.0097  0.0097  0.0804  0.0045  0.3188  0.0000  0.0046  0.0000 </r>
        <r>  0.0099  0.0097  0.0097  0.0804  0.0045  0.3188  0.0000  0.0046  0.0000 </r>
       </set>
       <set comment="band 6">
        <r>  0.0021  0.0138  0.0138  0.0789  0.0199  0.2763  0.0030  0.0199  0.0091 </r>
        <r>  0.0021  0.0138  0.0138  0.0789  0.0199  0.2763  0.0030  0.0199  0.0091 </r>
       </set>
       <set comment="band 7">
        <r>  0.0000  0.0001  0.0001  0.0000  0.0202  0.0000  0.3395  0.0201  0.1126 </r>
        <r>  0.0000  0.0001  0.0001  0.0000  0.0202  0.0000  0.3395  0.0201  0.1126 </r>
       </set>
       <set comment="band 8">
        <r>  0.0000  0.0000  0.0000  0.0000  0.0147  0.0000  0.3479  0.0147  0.1153 </r>
        <r>  0.0000  0.0000  0.0000  0.0000  0.0147  0.0000  0.3479  0.0147  0.1153 </r>
       </set>
       <set comment="band 9">
        <r>  0.0001  0.0000  0.0000  0.0001  0.0073  0.0087  0.1170  0.0073  0.3528 </r>
        <r>  0.0001  0.0000  0.0000  0.0001  0.0073  0.0087  0.1170  0.0073  0.3528 </r>
       </set>
       <set comment="band 10">
        <r>  0.0001  0.0000  0.0000  0.0000  0.0052  0.0003  0.1202  0.0052  0.3625 </r>
        <r>  0.0001  0.0000  0.0000  0.0000  0.0052  0.0003  0.1202  0.0052  0.3625 </r>
       </set>
       <set comment="band 11">
        <r>  0.0346  0.0348  0.0348  0.0608  0.0805  0.1079  0.0006  0.0805  0.0017 </r>
        <r>  0.0346  0.0348  0.0348  0.0608  0.0805  0.1079  0.0006  0.0805  0.0017 </r>
       </set>
       <set comment="band 12">
        <r>  0.0182  0.0337  0.0337  0.0930  0.0605  0.1164  0.0026  0.0605  0.0079 </r>
        <r>  0.0182  0.0337  0.0337  0.0930  0.0605  0.1164  0.0026  0.0605  0.0079 </r>
       </set>
       <set comment="band 13">
        <r>  0.0000  0.0917  0.0917  0.0000  0.1056  0.0000  0.0152  0.1056  0.0051 </r>
        <r>  0.0000  0.0917  0.0917  0.0000  0.1056  0.0000  0.0152  0.1056  0.0051 </r>
       </set>
       <set comment="band 14">
        <r>  0.0000  0.0897  0.0897  0.0000  0.1059  0.0000  0.0124  0.1059  0.0041 </r>
        <r>  0.0000  0.0897  0.0897  0.0000  0.1059  0.0000  0.0124  0.1059  0.0041 </r>
       </set>
       <set comment="band 15">
        <r>  0.2323  0.0009  0.0009  0.0438  0.0307  0.0712  0.0000  0.0307  0.0000 </r>
        <r>  0.2323  0.0009  0.0009  0.0438  0.0307  0.0712  0.0000  0.0307  0.0000 </r>
       </set>
       <set comment="band 16">
        <r>  0.1372  0.0025  0.0025  0.1019  0.0307  0.0946  0.0005  0.0307  0.0017 </r>
        <r>  0.1372  0.0025  0.0025  0.1019  0.0307  0.0946  0.0005  0.0307  0.0017 </r>
       </set>
       <set comment="band 17">
        <r>  0.1982  0.0586  0.0586  0.0105  0.0160  0.0344  0.0006  0.0160  0.0017 </r>
        <r>  0.1982  0.0586  0.0586  0.0105  0.0160  0.0344  0.0006  0.0160  0.0017 </r>
       </set>
       <set comment="band 18">
        <r>  0.1274  0.0606  0.0606  0.0375  0.0299  0.0419  0.0002  0.0299  0.0005 </r>
        <r>  0.1274  0.0606  0.0606  0.0375  0.0299  0.0419  0.0002  0.0299  0.0005 </r>
       </set>
       <set comment="band 19">
        <r>  0.0000  0.0059  0.0059  0.0000  0.0309  0.0000  0.0462  0.0309  0.0154 </r>
        <r>  0.0000  0.0059  0.0059  0.0000  0.0309  0.0000  0.0462  0.0309  0.0154 </r>
       </set>
       <set comment="band 20">
        <r>  0.0000  0.0021  0.0021  0.0000  0.0244  0.0000  0.0172  0.0244  0.0057 </r>
        <r>  0.0000  0.0021  0.0021  0.0000  0.0244  0.0000  0.0172  0.0244  0.0057 </r>
       </set>
      </set>
      <set comment="kpoint 119">
       <set comment="band 1">
        <r>  0.0112  0.0057  0.0385  0.0057  0.2378  0.0733  0.0070  0.0733  0.0000 </r>
        <r>  0.0112  0.0057  0.0385  0.0057  0.2378  0.0733  0.0070  0.0733  0.0000 </r>
       </set>
       <set comment="band 2">
        <r>  0.0118  0.0004  0.0682  0.0004  0.3488  0.0000  0.0153  0.0000  0.0000 </r>
        <r>  0.0118  0.0004  0.0682  0.0004  0.3488  0.0000  0.0153  0.0000  0.0000 </r>
       </set>
       <set comment="band 3">
        <r>  0.0000  0.0245  0.0000  0.0245  0.0000  0.2032  0.0000  0.2031  0.0019 </r>
        <r>  0.0000  0.0245  0.0000  0.0245  0.0000  0.2032  0.0000  0.2031  0.0019 </r>
       </set>
       <set comment="band 4">
        <r>  0.0008  0.0189  0.0301  0.0189  0.1115  0.1289  0.0115  0.1289  0.0000 </r>
        <r>  0.0008  0.0189  0.0301  0.0189  0.1115  0.1289  0.0115  0.1289  0.0000 </r>
       </set>
       <set comment="band 5">
        <r>  0.0036  0.0534  0.0003  0.0534  0.0011  0.1622  0.0008  0.1623  0.0000 </r>
        <r>  0.0036  0.0534  0.0003  0.0534  0.0011  0.1622  0.0008  0.1623  0.0000 </r>
       </set>
       <set comment="band 6">
        <r>  0.0000  0.0538  0.0000  0.0538  0.0000  0.1627  0.0000  0.1627  0.0047 </r>
        <r>  0.0000  0.0538  0.0000  0.0538  0.0000  0.1627  0.0000  0.1627  0.0047 </r>
       </set>
       <set comment="band 7">
        <r>  0.0001  0.0000  0.0001  0.0000  0.0239  0.0010  0.4671  0.0010  0.0000 </r>
        <r>  0.0001  0.0000  0.0001  0.0000  0.0239  0.0010  0.4671  0.0010  0.0000 </r>
       </set>
       <set comment="band 8">
        <r>  0.0001  0.0000  0.0001  0.0000  0.0214  0.0004  0.4709  0.0004  0.0000 </r>
        <r>  0.0001  0.0000  0.0001  0.0000  0.0214  0.0004  0.4709  0.0004  0.0000 </r>
       </set>
       <set comment="band 9">
        <r>  0.0000  0.0000  0.0000  0.0000  0.0000  0.0034  0.0000  0.0034  0.4869 </r>
        <r>  0.0000  0.0000  0.0000  0.0000  0.0000  0.0034  0.0000  0.0034  0.4869 </r>
       </set>
       <set comment="band 10">
        <r>  0.0000  0.0000  0.0000  0.0000  0.0000  0.0013  0.0000  0.0013  0.4913 </r>
        <r>  0.0000  0.0000  0.0000  0.0000  0.0000  0.0013  0.0000  0.0013  0.4913 </r>
       </set>
       <set comment="band 11">
        <r>  0.0236  0.0660  0.0209  0.0660  0.0454  0.1020  0.0006  0.1020  0.0000 </r>
        <r>  0.0236  0.0660  0.0209  0.0660  0.0454  0.1020  0.0006  0.1020  0.0000 </r>
       </set>
       <set comment="band 12">
        <r>  0.0000  0.0902  0.0000  0.0902  0.0000  0.1179  0.0000  0.1179  0.0032 </r>
        <r>  0.0000  0.0902  0.0000  0.0902  0.0000  0.1179  0.0000  0.1179  0.0032 </r>
       </set>
       <set comment="band 13">
        <r>  0.0655  0.0069  0.1184  0.0069  0.2018  0.0047  0.0120  0.0047  0.0000 </r>
        <r>  0.0655  0.0069  0.1184  0.0069  0.2018  0.0047  0.0120  0.0047  0.0000 </r>
       </set>
       <set comment="band 14">
        <r>  0.0621  0.0226  0.0931  0.0226  0.1660  0.0193  0.0099  0.0193  0.0000 </r>
        <r>  0.0621  0.0226  0.0931  0.0226  0.1660  0.0193  0.0099  0.0193  0.0000 </r>
       </set>
       <set comment="band 15">
        <r>  0.1368  0.0496  0.0056  0.0496  0.0010  0.0806  0.0007  0.0806  0.0000 </r>
        <r>  0.1368  0.0496  0.0056  0.0496  0.0010  0.0806  0.0007  0.0806  0.0000 </r>
       </set>
       <set comment="band 16">
        <r>  0.0000  0.0869  0.0000  0.0869  0.0000  0.1109  0.0000  0.1109  0.0016 </r>
        <r>  0.0000  0.0869  0.0000  0.0869  0.0000  0.1109  0.0000  0.1109  0.0016 </r>
       </set>
       <set comment="band 17">
        <r>  0.3005  0.0018  0.0757  0.0018  0.0180  0.0003  0.0018  0.0003  0.0000 </r>
        <r>  0.3005  0.0018  0.0757  0.0018  0.0180  0.0003  0.0018  0.0003  0.0000 </r>
       </set>
       <set comment="band 18">
        <r>  0.1866  0.0311  0.0662  0.0311  0.0245  0.0269  0.0009  0.0269  0.0000 </r>
        <r>  0.1866  0.0311  0.0662  0.0311  0.0245  0.0269  0.0009  0.0269  0.0000 </r>
       </set>
       <set comment="band 19">
        <r>  0.0001  0.0005  0.0043  0.0005  0.0088  0.0380  0.0243  0.0380  0.0000 </r>
        <r>  0.0001  0.0005  0.0043  0.0005  0.0088  0.0380  0.0243  0.0380  0.0000 </r>
       </set>
       <set comment="band 20">
        <r>  0.0000  0.0003  0.0000  0.0003  0.0000  0.0403  0.0000  0.0403  0.0012 </r>
        <r>  0.0000  0.0003  0.0000  0.0003  0.0000  0.0403  0.0000  0.0403  0.0012 </r>
       </set>
      </set>
      <set comment="kpoint 120">
       <set comment="band 1">
        <r>  0.0033  0.0188  0.0189  0.0188  0.1312  0.1311  0.0000  0.1311  0.0000 </r>
        <r>  0.0033  0.0188  0.0189  0.0188  0.1312  0.1311  0.0000  0.1311  0.0000 </r>
       </set>
       <set comment="band 2">
        <r>  0.0000  0.0099  0.0440  0.0121  0.2549  0.0700  0.0025  0.0576  0.0000 </r>
        <r>  0.0000  0.0099  0.0440  0.0121  0.2549  0.0700  0.0025  0.0576  0.0000 </r>
       </set>
       <set comment="band 3">
        <r>  0.0000  0.0341  0.0000  0.0320  0.0002  0.1850  0.0000  0.1973  0.0025 </r>
        <r>  0.0000  0.0341  0.0000  0.0320  0.0002  0.1850  0.0000  0.1973  0.0025 </r>
       </set>
       <set comment="band 4">
        <r>  0.0000  0.0130  0.0570  0.0156  0.2368  0.0650  0.0034  0.0538  0.0000 </r>
        <r>  0.0000  0.0130  0.0570  0.0156  0.2368  0.0650  0.0034  0.0538  0.0000 </r>
       </set>
       <set comment="band 5">
        <r>  0.0000  0.0441  0.0000  0.0414  0.0002  0.1722  0.0000  0.1833  0.0034 </r>
        <r>  0.0000  0.0441  0.0000  0.0414  0.0002  0.1722  0.0000  0.1833  0.0034 </r>
       </set>
       <set comment="band 6">
        <r>  0.0045  0.0319  0.0318  0.0319  0.1133  0.1135  0.0000  0.1135  0.0000 </r>
        <r>  0.0045  0.0319  0.0318  0.0319  0.1133  0.1135  0.0000  0.1135  0.0000 </r>
       </set>
       <set comment="band 7">
        <r>  0.0000  0.0000  0.0000  0.0000  0.0032  0.0006  0.4854  0.0011  0.0036 </r>
        <r>  0.0000  0.0000  0.0000  0.0000  0.0032  0.0006  0.4854  0.0011  0.0036 </r>
       </set>
       <set comment="band 8">
        <r>  0.0000  0.0000  0.0000  0.0000  0.0000  0.0026  0.0036  0.0022  0.4854 </r>
        <r>  0.0000  0.0000  0.0000  0.0000  0.0000  0.0026  0.0036  0.0022  0.4854 </r>
       </set>
       <set comment="band 9">
        <r>  0.0000  0.0000  0.0000  0.0000  0.0023  0.0004  0.4868  0.0008  0.0036 </r>
        <r>  0.0000  0.0000  0.0000  0.0000  0.0023  0.0004  0.4868  0.0008  0.0036 </r>
       </set>
       <set comment="band 10">
        <r>  0.0000  0.0000  0.0000  0.0000  0.0000  0.0019  0.0036  0.0016  0.4868 </r>
        <r>  0.0000  0.0000  0.0000  0.0000  0.0000  0.0019  0.0036  0.0016  0.4868 </r>
       </set>
       <set comment="band 11">
        <r>  0.0206  0.0543  0.0543  0.0543  0.0788  0.0788  0.0000  0.0788  0.0000 </r>
        <r>  0.0206  0.0543  0.0543  0.0543  0.0788  0.0788  0.0000  0.0788  0.0000 </r>
       </set>
       <set comment="band 12">
        <r>  0.0000  0.0257  0.1211  0.0353  0.1524  0.0444  0.0024  0.0323  0.0000 </r>
        <r>  0.0000  0.0257  0.1211  0.0353  0.1524  0.0444  0.0024  0.0323  0.0000 </r>
       </set>
       <set comment="band 13">
        <r>  0.0000  0.0957  0.0003  0.0861  0.0003  0.1083  0.0000  0.1204  0.0024 </r>
        <r>  0.0000  0.0957  0.0003  0.0861  0.0003  0.1083  0.0000  0.1204  0.0024 </r>
       </set>
       <set comment="band 14">
        <r>  0.0000  0.0247  0.1195  0.0356  0.1497  0.0446  0.0019  0.0309  0.0000 </r>
        <r>  0.0000  0.0247  0.1195  0.0356  0.1497  0.0446  0.0019  0.0309  0.0000 </r>
       </set>
       <set comment="band 15">
        <r>  0.0000  0.0951  0.0003  0.0842  0.0004  0.1055  0.0000  0.1192  0.0019 </r>
        <r>  0.0000  0.0951  0.0003  0.0842  0.0004  0.1055  0.0000  0.1192  0.0019 </r>
       </set>
       <set comment="band 16">
        <r>  0.1141  0.0368  0.0368  0.0368  0.0617  0.0617  0.0000  0.0617  0.0000 </r>
        <r>  0.1141  0.0368  0.0368  0.0368  0.0617  0.0617  0.0000  0.0617  0.0000 </r>
       </set>
       <set comment="band 17">
        <r>  0.3798  0.0073  0.0073  0.0073  0.0009  0.0009  0.0000  0.0009  0.0000 </r>
        <r>  0.3798  0.0073  0.0073  0.0073  0.0009  0.0009  0.0000  0.0009  0.0000 </r>
       </set>
       <set comment="band 18">
        <r>  0.2873  0.0233  0.0233  0.0233  0.0145  0.0145  0.0000  0.0145  0.0000 </r>
        <r>  0.2873  0.0233  0.0233  0.0233  0.0145  0.0145  0.0000  0.0145  0.0000 </r>
       </set>
       <set comment="band 19">
        <r>  0.0000  0.0004  0.0044  0.0022  0.0292  0.0146  0.0166  0.0027  0.0010 </r>
        <r>  0.0000  0.0004  0.0044  0.0022  0.0292  0.0146  0.0166  0.0027  0.0010 </r>
       </set>
       <set comment="band 20">
        <r>  0.0000  0.0028  0.0002  0.0016  0.0012  0.0109  0.0007  0.0188  0.0109 </r>
        <r>  0.0000  0.0028  0.0002  0.0016  0.0012  0.0109  0.0007  0.0188  0.0109 </r>
       </set>
      </set>
     </set>
    </set>
   </array>
  </projected>
 </calculation>
 <structure name="finalpos" >
  <crystal>
   <varray name="basis" >
    <v>       2.83001277      -0.00000000       0.00000000 </v>
    <v>       0.00000000       2.83001277       0.00000000 </v>
    <v>       0.00000000      -0.00000000       2.83001277 </v>
   </varray>
   <i name="volume">     22.66549390 </i>
   <varray name="rec_basis" >
    <v>       0.35335530      -0.00000000      -0.00000000 </v>
    <v>       0.00000000       0.35335530       0.00000000 </v>
    <v>      -0.00000000      -0.00000000       0.35335530 </v>
   </varray>
  </crystal>
  <varray name="positions" >
   <v>       0.00000000       0.00000000      -0.00000000 </v>
   <v>       0.50000000       0.50000000       0.50000000 </v>
  </varray>
 </structure>
</modeling>
