 running on    4 total cores
 distrk:  each k-point on    4 cores,    1 groups
 distr:  one band on    1 cores,    4 groups
 vasp.6.2.0 18Jan21 (build Aug 12 2022 13:00:08) complex                        
  
 POSCAR found type information on POSCAR Fe
 POSCAR found :  1 types and       2 ions
 scaLAPACK will be used
 LDA part: xc-table for Pade appr. of Perdew
 POSCAR, INCAR and KPOINTS ok, starting setup
 FFT: planning ...
 WAVECAR not read
 entering main loop
       N       E                     dE             d eps       ncg     rms          rms(c)
DAV:   1     0.752870828247E+02    0.75287E+02   -0.71524E+03 10488   0.991E+02
DAV:   2    -0.125809757009E+02   -0.87868E+02   -0.77935E+02  9736   0.185E+02
DAV:   3    -0.160571810311E+02   -0.34762E+01   -0.33774E+01 10784   0.467E+01
DAV:   4    -0.160855897745E+02   -0.28409E-01   -0.28399E-01 10536   0.398E+00
DAV:   5    -0.160859172115E+02   -0.32744E-03   -0.32743E-03 10688   0.402E-01    0.196E+01
DAV:   6    -0.165566263650E+02   -0.47071E+00   -0.51914E+00 10632   0.447E+01    0.618E+00
DAV:   7    -0.164961178112E+02    0.60509E-01   -0.39158E-01 11388   0.980E+00    0.444E+00
DAV:   8    -0.164796223620E+02    0.16495E-01   -0.10641E-02 12632   0.112E+00    0.160E+00
DAV:   9    -0.164683406250E+02    0.11282E-01   -0.33151E-03 14128   0.102E+00    0.433E-01
DAV:  10    -0.164679199494E+02    0.42068E-03   -0.18243E-03 11464   0.694E-01    0.651E-02
DAV:  11    -0.164679563108E+02   -0.36361E-04   -0.79248E-05 11568   0.747E-02    0.469E-02
DAV:  12    -0.164679460380E+02    0.10273E-04   -0.26100E-06  9924   0.139E-02    0.189E-02
DAV:  13    -0.164679473617E+02   -0.13237E-05   -0.12374E-06  7908   0.108E-02    0.102E-02
DAV:  14    -0.164679466269E+02    0.73482E-06   -0.28786E-07  5324   0.797E-03
   1 F= -.16467947E+02 E0= -.16467022E+02  d E =-.164679E+02  mag=     4.4685
 curvature:   0.00 expect dE= 0.000E+00 dE for cont linesearch  0.000E+00
 trial: gam= 0.00000 g(F)=  0.331E-61 g(S)=  0.598E-01 ort = 0.000E+00 (trialstep = 0.100E+01)
 search vector abs. value=  0.598E-01
 bond charge predicted
       N       E                     dE             d eps       ncg     rms          rms(c)
DAV:   1    -0.171743087014E+02   -0.70636E+00   -0.66919E+00 10560   0.430E+01    0.798E+00
DAV:   2    -0.165173249664E+02    0.65698E+00   -0.12389E+00 10508   0.249E+01    0.648E+00
DAV:   3    -0.164824984249E+02    0.34827E-01   -0.93669E-02 11324   0.560E+00    0.229E+00
DAV:   4    -0.164755103547E+02    0.69881E-02   -0.48588E-03 12004   0.781E-01    0.528E-01
DAV:   5    -0.164699095543E+02    0.56008E-02   -0.38485E-03 11856   0.499E-01    0.907E-02
DAV:   6    -0.164700122859E+02   -0.10273E-03   -0.28014E-04 10712   0.186E-01    0.496E-02
DAV:   7    -0.164700199282E+02   -0.76424E-05   -0.14566E-05 10188   0.445E-02    0.230E-02
DAV:   8    -0.164700170274E+02    0.29009E-05   -0.13410E-06  8068   0.157E-02    0.991E-03
DAV:   9    -0.164700159428E+02    0.10846E-05   -0.39216E-07  5032   0.985E-03    0.347E-03
DAV:  10    -0.164700158884E+02    0.54371E-07   -0.68622E-08  4968   0.288E-03
   2 F= -.16470016E+02 E0= -.16469112E+02  d E =-.206926E-02  mag=     4.2617
 trial-energy change:   -0.002069  1 .order    0.000051   -0.059785    0.059887
 step:   0.5261(harm=  0.4996)  dis= 0.00000  next Energy=   -16.483981 (dE=-0.160E-01)
 bond charge predicted
       N       E                     dE             d eps       ncg     rms          rms(c)
DAV:   1    -0.166491443546E+02   -0.17913E+00   -0.15428E+00 10476   0.216E+01    0.397E+00
DAV:   2    -0.165021617103E+02    0.14698E+00   -0.40804E-01 10552   0.128E+01    0.366E+00
DAV:   3    -0.164873011308E+02    0.14861E-01   -0.28539E-02 11204   0.333E+00    0.109E+00
DAV:   4    -0.164855294977E+02    0.17716E-02   -0.19525E-03 12848   0.557E-01    0.316E-01
DAV:   5    -0.164841239530E+02    0.14055E-02   -0.10570E-03 11012   0.288E-01    0.555E-02
DAV:   6    -0.164841490432E+02   -0.25090E-04   -0.37097E-05 10168   0.507E-02    0.242E-02
DAV:   7    -0.164841546492E+02   -0.56060E-05   -0.31920E-06 10088   0.179E-02    0.147E-02
DAV:   8    -0.164841577322E+02   -0.30830E-05   -0.50246E-07  6052   0.769E-03    0.327E-03
DAV:   9    -0.164841578043E+02   -0.72033E-07   -0.92659E-08  4928   0.290E-03
   3 F= -.16484158E+02 E0= -.16483271E+02  d E =-.162112E-01  mag=     4.3573
 curvature:  -0.25 expect dE=-0.965E-07 dE for cont linesearch -0.965E-07
 trial: gam=-0.00254 g(F)=  0.360E-61 g(S)=  0.387E-06 ort = 0.152E-03 (trialstep = 0.905E+00)
 search vector abs. value=  0.103E-09
 reached required accuracy - stopping structural energy minimisation
 writing wavefunctions
