unknown system                          
   1.00000000000000     
     2.830013    0.000000    0.000000
     0.000000    2.830013    0.000000
     0.000000    0.000000    2.830013
   Fe
     2
Direct
  0.000000  0.000000  0.000000
  0.500000  0.500000  0.500000
 
   40   40   40
 0.19196782117E+03 0.18816397780E+03 0.17717759117E+03 0.16020635463E+03 0.13901674348E+03
 0.11565362216E+03 0.92139842420E+02 0.70215695708E+02 0.51170923563E+02 0.35766737353E+02
 0.24237945365E+02 0.16356725564E+02 0.11540357028E+02 0.89671450610E+01 0.77156815599E+01
 0.69448235997E+01 0.63672168707E+01 0.59817610368E+01 0.57422143264E+01 0.56190121807E+01
 0.55789870460E+01 0.56190121807E+01 0.57422143264E+01 0.59817610368E+01 0.63672168707E+01
 0.69448235997E+01 0.77156815599E+01 0.89671450610E+01 0.11540357028E+02 0.16356725564E+02
 0.24237945365E+02 0.35766737353E+02 0.51170923563E+02 0.70215695708E+02 0.92139842420E+02
 0.11565362216E+03 0.13901674348E+03 0.16020635463E+03 0.17717759117E+03 0.18816397780E+03
 0.18816397780E+03 0.18444605934E+03 0.17370552152E+03 0.15710684883E+03 0.13636985403E+03
 0.11348895337E+03 0.90442903524E+02 0.68941004945E+02 0.50256734729E+02 0.35144010472E+02
 0.23841437968E+02 0.16127771786E+02 0.11425659651E+02 0.89214972996E+01 0.76987979725E+01
 0.69340721533E+01 0.63611355083E+01 0.59790988428E+01 0.57418148244E+01 0.56196516966E+01
 0.55800247290E+01 0.56196516966E+01 0.57418148244E+01 0.59790988428E+01 0.63611355083E+01
 0.69340721533E+01 0.76987979725E+01 0.89214972996E+01 0.11425659651E+02 0.16127771786E+02
 0.23841437968E+02 0.35144010472E+02 0.50256734729E+02 0.68941004945E+02 0.90442903524E+02
 0.11348895337E+03 0.13636985403E+03 0.15710684883E+03 0.17370552152E+03 0.18444605934E+03
 0.17717759117E+03 0.17370552152E+03 0.16366782636E+03 0.14813588401E+03 0.12869656328E+03
 0.10720316865E+03 0.85508286499E+02 0.65230773870E+02 0.47591726134E+02 0.33331576561E+02
 0.22691351991E+02 0.15467108324E+02 0.11098446791E+02 0.87923107177E+01 0.76495877861E+01
 0.69016709084E+01 0.63435115448E+01 0.59711627092E+01 0.57408788301E+01 0.56214116874E+01
 0.55832806600E+01 0.56214116874E+01 0.57408788301E+01 0.59711627092E+01 0.63435115448E+01
 0.69016709084E+01 0.76495877861E+01 0.87923107177E+01 0.11098446791E+02 0.15467108324E+02
 0.22691351991E+02 0.33331576561E+02 0.47591726134E+02 0.65230773870E+02 0.85508286499E+02
 0.10720316865E+03 0.12869656328E+03 0.14813588401E+03 0.16366782636E+03 0.17370552152E+03
 0.16020635463E+03 0.15710684883E+03 0.14813588401E+03 0.13422614006E+03 0.11676715497E+03
 0.97400216064E+02 0.77788198606E+02 0.59412361691E+02 0.43412699153E+02 0.30495898841E+02
 0.20904115024E+02 0.14453938819E+02 0.10606117262E+02 0.86014326268E+01 0.75700011183E+01
 0.68480810170E+01 0.63151462482E+01 0.59587607699E+01 0.57398861686E+01 0.56247975007E+01
 0.55890341649E+01 0.56247975007E+01 0.57398861686E+01 0.59587607699E+01 0.63151462482E+01
 0.68480810170E+01 0.75700011183E+01 0.86014326268E+01 0.10606117262E+02 0.14453938819E+02
 0.20904115024E+02 0.30495898841E+02 0.43412699153E+02 0.59412361691E+02 0.77788198606E+02
 0.97400216064E+02 0.11676715497E+03 0.13422614006E+03 0.14813588401E+03 0.15710684883E+03
 0.13901674348E+03 0.13636985403E+03 0.12869656328E+03 0.11676715497E+03 0.10173832166E+03
 0.85000792838E+02 0.67988865861E+02 0.52012052583E+02 0.38099758519E+02 0.26910082558E+02
 0.18670829088E+02 0.13212768109E+02 0.10021226045E+02 0.83763907242E+01 0.74611378484E+01
 0.67746884266E+01 0.62776721798E+01 0.59428185620E+01 0.57392900818E+01 0.56298673881E+01
 0.55973197046E+01 0.56298673881E+01 0.57392900818E+01 0.59428185620E+01 0.62776721798E+01
 0.67746884266E+01 0.74611378484E+01 0.83763907242E+01 0.10021226045E+02 0.13212768109E+02
 0.18670829088E+02 0.26910082558E+02 0.38099758519E+02 0.52012052583E+02 0.67988865861E+02
 0.85000792838E+02 0.10173832166E+03 0.11676715497E+03 0.12869656328E+03 0.13636985403E+03
 0.11565362216E+03 0.11348895337E+03 0.10720316865E+03 0.97400216064E+02 0.85000792838E+02
 0.71134246399E+02 0.56994891199E+02 0.43701763077E+02 0.32154999162E+02 0.22933960099E+02
 0.16239341346E+02 0.11899475419E+02 0.94257306738E+01 0.81387583842E+01 0.73222255193E+01
 0.66855986433E+01 0.62319547679E+01 0.59251798377E+01 0.57387812900E+01 0.56373246834E+01
 0.56074050682E+01 0.56373246834E+01 0.57387812900E+01 0.59251798377E+01 0.62319547679E+01
 0.66855986433E+01 0.73222255193E+01 0.81387583842E+01 0.94257306738E+01 0.11899475419E+02
 0.16239341346E+02 0.22933960099E+02 0.32154999162E+02 0.43701763077E+02 0.56994891199E+02
 0.71134246399E+02 0.85000792838E+02 0.97400216064E+02 0.10720316865E+03 0.11348895337E+03
 0.92139842420E+02 0.90442903524E+02 0.85508286499E+02 0.77788198606E+02 0.67988865861E+02
 0.56994891199E+02 0.45770226584E+02 0.35234480737E+02 0.26141088356E+02 0.18973201958E+02
 0.13880327339E+02 0.10671350809E+02 0.88882039993E+01 0.78919310177E+01 0.71553295014E+01
 0.65858785719E+01 0.61798245502E+01 0.59069515037E+01 0.57378043914E+01 0.56466096924E+01
 0.56181144927E+01 0.56466096924E+01 0.57378043914E+01 0.59069515037E+01 0.61798245502E+01
 0.65858785719E+01 0.71553295014E+01 0.78919310177E+01 0.88882039993E+01 0.10671350809E+02
 0.13880327339E+02 0.18973201958E+02 0.26141088356E+02 0.35234480737E+02 0.45770226584E+02
 0.56994891199E+02 0.67988865861E+02 0.77788198606E+02 0.85508286499E+02 0.90442903524E+02
 0.70215695708E+02 0.68941004945E+02 0.65230773870E+02 0.59412361691E+02 0.52012052583E+02
 0.43701763077E+02 0.35234480737E+02 0.27336508164E+02 0.20608293389E+02 0.15412708722E+02
 0.11832165904E+02 0.96512011224E+01 0.84322027850E+01 0.76249568381E+01 0.69712130823E+01
 0.64789848111E+01 0.61245371720E+01 0.58876471691E+01 0.57366530645E+01 0.56559999654E+01
 0.56290652849E+01 0.56559999654E+01 0.57366530645E+01 0.58876471691E+01 0.61245371720E+01
 0.64789848111E+01 0.69712130823E+01 0.76249568381E+01 0.84322027850E+01 0.96512011224E+01
 0.11832165904E+02 0.15412708722E+02 0.20608293389E+02 0.27336508164E+02 0.35234480737E+02
 0.43701763077E+02 0.52012052583E+02 0.59412361691E+02 0.65230773870E+02 0.68941004945E+02
 0.51170923563E+02 0.50256734729E+02 0.47591726134E+02 0.43412699153E+02 0.38099758519E+02
 0.32154999162E+02 0.26141088356E+02 0.20608293389E+02 0.15991982071E+02 0.12539801554E+02
 0.10246789031E+02 0.88818314639E+01 0.80252371126E+01 0.73363749929E+01 0.67841591907E+01
 0.63678922426E+01 0.60700159765E+01 0.58657139257E+01 0.57353847392E+01 0.56624806865E+01
 0.56395647754E+01 0.56624806865E+01 0.57353847392E+01 0.58657139257E+01 0.60700159765E+01
 0.63678922426E+01 0.67841591907E+01 0.73363749929E+01 0.80252371126E+01 0.88818314639E+01
 0.10246789031E+02 0.12539801554E+02 0.15991982071E+02 0.20608293389E+02 0.26141088356E+02
 0.32154999162E+02 0.38099758519E+02 0.43412699153E+02 0.47591726134E+02 0.50256734729E+02
 0.35766737353E+02 0.35144010472E+02 0.33331576561E+02 0.30495898841E+02 0.26910082558E+02
 0.22933960099E+02 0.18973201958E+02 0.15412708722E+02 0.12539801554E+02 0.10473987016E+02
 0.91457940720E+01 0.82973311733E+01 0.76213015487E+01 0.70500211772E+01 0.66002621611E+01
 0.62604273722E+01 0.60148772604E+01 0.58431836534E+01 0.57309491804E+01 0.56668853093E+01
 0.56463651050E+01 0.56668853093E+01 0.57309491804E+01 0.58431836534E+01 0.60148772604E+01
 0.62604273722E+01 0.66002621611E+01 0.70500211772E+01 0.76213015487E+01 0.82973311733E+01
 0.91457940720E+01 0.10473987016E+02 0.12539801554E+02 0.15412708722E+02 0.18973201958E+02
 0.22933960099E+02 0.26910082558E+02 0.30495898841E+02 0.33331576561E+02 0.35144010472E+02
 0.24237945365E+02 0.23841437968E+02 0.22691351991E+02 0.20904115024E+02 0.18670829088E+02
 0.16239341346E+02 0.13880327339E+02 0.11832165904E+02 0.10246789031E+02 0.91457940720E+01
 0.83944650962E+01 0.77770944754E+01 0.72316172246E+01 0.67825993804E+01 0.64279441681E+01
 0.61596877302E+01 0.59609290907E+01 0.58189986972E+01 0.57226040746E+01 0.56669654711E+01
 0.56483316525E+01 0.56669654711E+01 0.57226040746E+01 0.58189986972E+01 0.59609290907E+01
 0.61596877302E+01 0.64279441681E+01 0.67825993804E+01 0.72316172246E+01 0.77770944754E+01
 0.83944650962E+01 0.91457940720E+01 0.10246789031E+02 0.11832165904E+02 0.13880327339E+02
 0.16239341346E+02 0.18670829088E+02 0.20904115024E+02 0.22691351991E+02 0.23841437968E+02
 0.16356725564E+02 0.16127771786E+02 0.15467108324E+02 0.14453938819E+02 0.13212768109E+02
 0.11899475419E+02 0.10671350809E+02 0.96512011224E+01 0.88818314639E+01 0.82973311733E+01
 0.77770944754E+01 0.72961205297E+01 0.68828195838E+01 0.65426027619E+01 0.62742433788E+01
 0.60662911153E+01 0.59087632214E+01 0.57919277158E+01 0.57108691653E+01 0.56623258133E+01
 0.56463651050E+01 0.56623258133E+01 0.57108691653E+01 0.57919277158E+01 0.59087632214E+01
 0.60662911153E+01 0.62742433788E+01 0.65426027619E+01 0.68828195838E+01 0.72961205297E+01
 0.77770944754E+01 0.82973311733E+01 0.88818314639E+01 0.96512011224E+01 0.10671350809E+02
 0.11899475419E+02 0.13212768109E+02 0.14453938819E+02 0.15467108324E+02 0.16127771786E+02
 0.11540357028E+02 0.11425659651E+02 0.11098446791E+02 0.10606117262E+02 0.10021226045E+02
 0.94257306738E+01 0.88882039993E+01 0.84322027850E+01 0.80252371126E+01 0.76213015487E+01
 0.72316172246E+01 0.68828195838E+01 0.65833159355E+01 0.63373596174E+01 0.61388899427E+01
 0.59818003708E+01 0.58583693755E+01 0.57637600700E+01 0.56953245291E+01 0.56537294582E+01
 0.56395647754E+01 0.56537294582E+01 0.56953245291E+01 0.57637600700E+01 0.58583693755E+01
 0.59818003708E+01 0.61388899427E+01 0.63373596174E+01 0.65833159355E+01 0.68828195838E+01
 0.72316172246E+01 0.76213015487E+01 0.80252371126E+01 0.84322027850E+01 0.88882039993E+01
 0.94257306738E+01 0.10021226045E+02 0.10606117262E+02 0.11098446791E+02 0.11425659651E+02
 0.89671450610E+01 0.89214972996E+01 0.87923107177E+01 0.86014326268E+01 0.83763907242E+01
 0.81387583842E+01 0.78919310177E+01 0.76249568381E+01 0.73363749929E+01 0.70500211772E+01
 0.67825993804E+01 0.65426027619E+01 0.63373596174E+01 0.61647442169E+01 0.60226338144E+01
 0.59056827686E+01 0.58096953032E+01 0.57328523094E+01 0.56761372735E+01 0.56409356132E+01
 0.56290652849E+01 0.56409356132E+01 0.56761372735E+01 0.57328523094E+01 0.58096953032E+01
 0.59056827686E+01 0.60226338144E+01 0.61647442169E+01 0.63373596174E+01 0.65426027619E+01
 0.67825993804E+01 0.70500211772E+01 0.73363749929E+01 0.76249568381E+01 0.78919310177E+01
 0.81387583842E+01 0.83763907242E+01 0.86014326268E+01 0.87923107177E+01 0.89214972996E+01
 0.77156815599E+01 0.76987979725E+01 0.76495877861E+01 0.75700011183E+01 0.74611378484E+01
 0.73222255193E+01 0.71553295014E+01 0.69712130823E+01 0.67841591907E+01 0.66002621611E+01
 0.64279441681E+01 0.62742433788E+01 0.61388899427E+01 0.60226338144E+01 0.59227275121E+01
 0.58361318290E+01 0.57621368506E+01 0.57017577205E+01 0.56562932310E+01 0.56278686303E+01
 0.56181144927E+01 0.56278686303E+01 0.56562932310E+01 0.57017577205E+01 0.57621368506E+01
 0.58361318290E+01 0.59227275121E+01 0.60226338144E+01 0.61388899427E+01 0.62742433788E+01
 0.64279441681E+01 0.66002621611E+01 0.67841591907E+01 0.69712130823E+01 0.71553295014E+01
 0.73222255193E+01 0.74611378484E+01 0.75700011183E+01 0.76495877861E+01 0.76987979725E+01
 0.69448235997E+01 0.69340721533E+01 0.69016709084E+01 0.68480810170E+01 0.67746884266E+01
 0.66855986433E+01 0.65858785719E+01 0.64789848111E+01 0.63678922426E+01 0.62604273722E+01
 0.61596877302E+01 0.60662911153E+01 0.59818003708E+01 0.59056827686E+01 0.58361318290E+01
 0.57731982549E+01 0.57183369645E+01 0.56724082775E+01 0.56372998431E+01 0.56150090085E+01
 0.56074050682E+01 0.56150090085E+01 0.56372998431E+01 0.56724082775E+01 0.57183369645E+01
 0.57731982549E+01 0.58361318290E+01 0.59056827686E+01 0.59818003708E+01 0.60662911153E+01
 0.61596877302E+01 0.62604273722E+01 0.63678922426E+01 0.64789848111E+01 0.65858785719E+01
 0.66855986433E+01 0.67746884266E+01 0.68480810170E+01 0.69016709084E+01 0.69340721533E+01
 0.63672168707E+01 0.63611355083E+01 0.63435115448E+01 0.63151462482E+01 0.62776721798E+01
 0.62319547679E+01 0.61798245502E+01 0.61245371720E+01 0.60700159765E+01 0.60148772604E+01
 0.59609290907E+01 0.59087632214E+01 0.58583693755E+01 0.58096953032E+01 0.57621368506E+01
 0.57183369645E+01 0.56790048384E+01 0.56455606072E+01 0.56195083639E+01 0.56030499189E+01
 0.55973197046E+01 0.56030499189E+01 0.56195083639E+01 0.56455606072E+01 0.56790048384E+01
 0.57183369645E+01 0.57621368506E+01 0.58096953032E+01 0.58583693755E+01 0.59087632214E+01
 0.59609290907E+01 0.60148772604E+01 0.60700159765E+01 0.61245371720E+01 0.61798245502E+01
 0.62319547679E+01 0.62776721798E+01 0.63151462482E+01 0.63435115448E+01 0.63611355083E+01
 0.59817610368E+01 0.59790988428E+01 0.59711627092E+01 0.59587607699E+01 0.59428185620E+01
 0.59251798377E+01 0.59069515037E+01 0.58876471691E+01 0.58657139257E+01 0.58431836534E+01
 0.58189986972E+01 0.57919277158E+01 0.57637600700E+01 0.57328523094E+01 0.57017577205E+01
 0.56724082775E+01 0.56455606072E+01 0.56222206761E+01 0.56042223117E+01 0.55928620233E+01
 0.55890341649E+01 0.55928620233E+01 0.56042223117E+01 0.56222206761E+01 0.56455606072E+01
 0.56724082775E+01 0.57017577205E+01 0.57328523094E+01 0.57637600700E+01 0.57919277158E+01
 0.58189986972E+01 0.58431836534E+01 0.58657139257E+01 0.58876471691E+01 0.59069515037E+01
 0.59251798377E+01 0.59428185620E+01 0.59587607699E+01 0.59711627092E+01 0.59790988428E+01
 0.57422143264E+01 0.57418148244E+01 0.57408788301E+01 0.57398861686E+01 0.57392900818E+01
 0.57387812900E+01 0.57378043914E+01 0.57366530645E+01 0.57353847392E+01 0.57309491804E+01
 0.57226040746E+01 0.57108691653E+01 0.56953245291E+01 0.56761372735E+01 0.56562932310E+01
 0.56372998431E+01 0.56195083639E+01 0.56042223117E+01 0.55926923942E+01 0.55856600708E+01
 0.55832806600E+01 0.55856600708E+01 0.55926923942E+01 0.56042223117E+01 0.56195083639E+01
 0.56372998431E+01 0.56562932310E+01 0.56761372735E+01 0.56953245291E+01 0.57108691653E+01
 0.57226040746E+01 0.57309491804E+01 0.57353847392E+01 0.57366530645E+01 0.57378043914E+01
 0.57387812900E+01 0.57392900818E+01 0.57398861686E+01 0.57408788301E+01 0.57418148244E+01
 0.56190121807E+01 0.56196516966E+01 0.56214116874E+01 0.56247975007E+01 0.56298673881E+01
 0.56373246834E+01 0.56466096924E+01 0.56559999654E+01 0.56624806865E+01 0.56668853093E+01
 0.56669654711E+01 0.56623258133E+01 0.56537294582E+01 0.56409356132E+01 0.56278686303E+01
 0.56150090085E+01 0.56030499189E+01 0.55928620233E+01 0.55856600708E+01 0.55813465123E+01
 0.55800247290E+01 0.55813465123E+01 0.55856600708E+01 0.55928620233E+01 0.56030499189E+01
 0.56150090085E+01 0.56278686303E+01 0.56409356132E+01 0.56537294582E+01 0.56623258133E+01
 0.56669654711E+01 0.56668853093E+01 0.56624806865E+01 0.56559999654E+01 0.56466096924E+01
 0.56373246834E+01 0.56298673881E+01 0.56247975007E+01 0.56214116874E+01 0.56196516966E+01
 0.55789870460E+01 0.55800247290E+01 0.55832806600E+01 0.55890341649E+01 0.55973197046E+01
 0.56074050682E+01 0.56181144927E+01 0.56290652849E+01 0.56395647754E+01 0.56463651050E+01
 0.56483316525E+01 0.56463651050E+01 0.56395647754E+01 0.56290652849E+01 0.56181144927E+01
 0.56074050682E+01 0.55973197046E+01 0.55890341649E+01 0.55832806600E+01 0.55800247290E+01
 0.55789870460E+01 0.55800247290E+01 0.55832806600E+01 0.55890341649E+01 0.55973197046E+01
 0.56074050682E+01 0.56181144927E+01 0.56290652849E+01 0.56395647754E+01 0.56463651050E+01
 0.56483316525E+01 0.56463651050E+01 0.56395647754E+01 0.56290652849E+01 0.56181144927E+01
 0.56074050682E+01 0.55973197046E+01 0.55890341649E+01 0.55832806600E+01 0.55800247290E+01
 0.56190121807E+01 0.56196516966E+01 0.56214116874E+01 0.56247975007E+01 0.56298673881E+01
 0.56373246834E+01 0.56466096924E+01 0.56559999654E+01 0.56624806865E+01 0.56668853093E+01
 0.56669654711E+01 0.56623258133E+01 0.56537294582E+01 0.56409356132E+01 0.56278686303E+01
 0.56150090085E+01 0.56030499189E+01 0.55928620233E+01 0.55856600708E+01 0.55813465123E+01
 0.55800247290E+01 0.55813465123E+01 0.55856600708E+01 0.55928620233E+01 0.56030499189E+01
 0.56150090085E+01 0.56278686303E+01 0.56409356132E+01 0.56537294582E+01 0.56623258133E+01
 0.56669654711E+01 0.56668853093E+01 0.56624806865E+01 0.56559999654E+01 0.56466096924E+01
 0.56373246834E+01 0.56298673881E+01 0.56247975007E+01 0.56214116874E+01 0.56196516966E+01
 0.57422143264E+01 0.57418148244E+01 0.57408788301E+01 0.57398861686E+01 0.57392900818E+01
 0.57387812900E+01 0.57378043914E+01 0.57366530645E+01 0.57353847392E+01 0.57309491804E+01
 0.57226040746E+01 0.57108691653E+01 0.56953245291E+01 0.56761372735E+01 0.56562932310E+01
 0.56372998431E+01 0.56195083639E+01 0.56042223117E+01 0.55926923942E+01 0.55856600708E+01
 0.55832806600E+01 0.55856600708E+01 0.55926923942E+01 0.56042223117E+01 0.56195083639E+01
 0.56372998431E+01 0.56562932310E+01 0.56761372735E+01 0.56953245291E+01 0.57108691653E+01
 0.57226040746E+01 0.57309491804E+01 0.57353847392E+01 0.57366530645E+01 0.57378043914E+01
 0.57387812900E+01 0.57392900818E+01 0.57398861686E+01 0.57408788301E+01 0.57418148244E+01
 0.59817610368E+01 0.59790988428E+01 0.59711627092E+01 0.59587607699E+01 0.59428185620E+01
 0.59251798377E+01 0.59069515037E+01 0.58876471691E+01 0.58657139257E+01 0.58431836534E+01
 0.58189986972E+01 0.57919277158E+01 0.57637600700E+01 0.57328523094E+01 0.57017577205E+01
 0.56724082775E+01 0.56455606072E+01 0.56222206761E+01 0.56042223117E+01 0.55928620233E+01
 0.55890341649E+01 0.55928620233E+01 0.56042223117E+01 0.56222206761E+01 0.56455606072E+01
 0.56724082775E+01 0.57017577205E+01 0.57328523094E+01 0.57637600700E+01 0.57919277158E+01
 0.58189986972E+01 0.58431836534E+01 0.58657139257E+01 0.58876471691E+01 0.59069515037E+01
 0.59251798377E+01 0.59428185620E+01 0.59587607699E+01 0.59711627092E+01 0.59790988428E+01
 0.63672168707E+01 0.63611355083E+01 0.63435115448E+01 0.63151462482E+01 0.62776721798E+01
 0.62319547679E+01 0.61798245502E+01 0.61245371720E+01 0.60700159765E+01 0.60148772604E+01
 0.59609290907E+01 0.59087632214E+01 0.58583693755E+01 0.58096953032E+01 0.57621368506E+01
 0.57183369645E+01 0.56790048384E+01 0.56455606072E+01 0.56195083639E+01 0.56030499189E+01
 0.55973197046E+01 0.56030499189E+01 0.56195083639E+01 0.56455606072E+01 0.56790048384E+01
 0.57183369645E+01 0.57621368506E+01 0.58096953032E+01 0.58583693755E+01 0.59087632214E+01
 0.59609290907E+01 0.60148772604E+01 0.60700159765E+01 0.61245371720E+01 0.61798245502E+01
 0.62319547679E+01 0.62776721798E+01 0.63151462482E+01 0.63435115448E+01 0.63611355083E+01
 0.69448235997E+01 0.69340721533E+01 0.69016709084E+01 0.68480810170E+01 0.67746884266E+01
 0.66855986433E+01 0.65858785719E+01 0.64789848111E+01 0.63678922426E+01 0.62604273722E+01
 0.61596877302E+01 0.60662911153E+01 0.59818003708E+01 0.59056827686E+01 0.58361318290E+01
 0.57731982549E+01 0.57183369645E+01 0.56724082775E+01 0.56372998431E+01 0.56150090085E+01
 0.56074050682E+01 0.56150090085E+01 0.56372998431E+01 0.56724082775E+01 0.57183369645E+01
 0.57731982549E+01 0.58361318290E+01 0.59056827686E+01 0.59818003708E+01 0.60662911153E+01
 0.61596877302E+01 0.62604273722E+01 0.63678922426E+01 0.64789848111E+01 0.65858785719E+01
 0.66855986433E+01 0.67746884266E+01 0.68480810170E+01 0.69016709084E+01 0.69340721533E+01
 0.77156815599E+01 0.76987979725E+01 0.76495877861E+01 0.75700011183E+01 0.74611378484E+01
 0.73222255193E+01 0.71553295014E+01 0.69712130823E+01 0.67841591907E+01 0.66002621611E+01
 0.64279441681E+01 0.62742433788E+01 0.61388899427E+01 0.60226338144E+01 0.59227275121E+01
 0.58361318290E+01 0.57621368506E+01 0.57017577205E+01 0.56562932310E+01 0.56278686303E+01
 0.56181144927E+01 0.56278686303E+01 0.56562932310E+01 0.57017577205E+01 0.57621368506E+01
 0.58361318290E+01 0.59227275121E+01 0.60226338144E+01 0.61388899427E+01 0.62742433788E+01
 0.64279441681E+01 0.66002621611E+01 0.67841591907E+01 0.69712130823E+01 0.71553295014E+01
 0.73222255193E+01 0.74611378484E+01 0.75700011183E+01 0.76495877861E+01 0.76987979725E+01
 0.89671450610E+01 0.89214972996E+01 0.87923107177E+01 0.86014326268E+01 0.83763907242E+01
 0.81387583842E+01 0.78919310177E+01 0.76249568381E+01 0.73363749929E+01 0.70500211772E+01
 0.67825993804E+01 0.65426027619E+01 0.63373596174E+01 0.61647442169E+01 0.60226338144E+01
 0.59056827686E+01 0.58096953032E+01 0.57328523094E+01 0.56761372735E+01 0.56409356132E+01
 0.56290652849E+01 0.56409356132E+01 0.56761372735E+01 0.57328523094E+01 0.58096953032E+01
 0.59056827686E+01 0.60226338144E+01 0.61647442169E+01 0.63373596174E+01 0.65426027619E+01
 0.67825993804E+01 0.70500211772E+01 0.73363749929E+01 0.76249568381E+01 0.78919310177E+01
 0.81387583842E+01 0.83763907242E+01 0.86014326268E+01 0.87923107177E+01 0.89214972996E+01
 0.11540357028E+02 0.11425659651E+02 0.11098446791E+02 0.10606117262E+02 0.10021226045E+02
 0.94257306738E+01 0.88882039993E+01 0.84322027850E+01 0.80252371126E+01 0.76213015487E+01
 0.72316172246E+01 0.68828195838E+01 0.65833159355E+01 0.63373596174E+01 0.61388899427E+01
 0.59818003708E+01 0.58583693755E+01 0.57637600700E+01 0.56953245291E+01 0.56537294582E+01
 0.56395647754E+01 0.56537294582E+01 0.56953245291E+01 0.57637600700E+01 0.58583693755E+01
 0.59818003708E+01 0.61388899427E+01 0.63373596174E+01 0.65833159355E+01 0.68828195838E+01
 0.72316172246E+01 0.76213015487E+01 0.80252371126E+01 0.84322027850E+01 0.88882039993E+01
 0.94257306738E+01 0.10021226045E+02 0.10606117262E+02 0.11098446791E+02 0.11425659651E+02
 0.16356725564E+02 0.16127771786E+02 0.15467108324E+02 0.14453938819E+02 0.13212768109E+02
 0.11899475419E+02 0.10671350809E+02 0.96512011224E+01 0.88818314639E+01 0.82973311733E+01
 0.77770944754E+01 0.72961205297E+01 0.68828195838E+01 0.65426027619E+01 0.62742433788E+01
 0.60662911153E+01 0.59087632214E+01 0.57919277158E+01 0.57108691653E+01 0.56623258133E+01
 0.56463651050E+01 0.56623258133E+01 0.57108691653E+01 0.57919277158E+01 0.59087632214E+01
 0.60662911153E+01 0.62742433788E+01 0.65426027619E+01 0.68828195838E+01 0.72961205297E+01
 0.77770944754E+01 0.82973311733E+01 0.88818314639E+01 0.96512011224E+01 0.10671350809E+02
 0.11899475419E+02 0.13212768109E+02 0.14453938819E+02 0.15467108324E+02 0.16127771786E+02
 0.24237945365E+02 0.23841437968E+02 0.22691351991E+02 0.20904115024E+02 0.18670829088E+02
 0.16239341346E+02 0.13880327339E+02 0.11832165904E+02 0.10246789031E+02 0.91457940720E+01
 0.83944650962E+01 0.77770944754E+01 0.72316172246E+01 0.67825993804E+01 0.64279441681E+01
 0.61596877302E+01 0.59609290907E+01 0.58189986972E+01 0.57226040746E+01 0.56669654711E+01
 0.56483316525E+01 0.56669654711E+01 0.57226040746E+01 0.58189986972E+01 0.59609290907E+01
 0.61596877302E+01 0.64279441681E+01 0.67825993804E+01 0.72316172246E+01 0.77770944754E+01
 0.83944650962E+01 0.91457940720E+01 0.10246789031E+02 0.11832165904E+02 0.13880327339E+02
 0.16239341346E+02 0.18670829088E+02 0.20904115024E+02 0.22691351991E+02 0.23841437968E+02
 0.35766737353E+02 0.35144010472E+02 0.33331576561E+02 0.30495898841E+02 0.26910082558E+02
 0.22933960099E+02 0.18973201958E+02 0.15412708722E+02 0.12539801554E+02 0.10473987016E+02
 0.91457940720E+01 0.82973311733E+01 0.76213015487E+01 0.70500211772E+01 0.66002621611E+01
 0.62604273722E+01 0.60148772604E+01 0.58431836534E+01 0.57309491804E+01 0.56668853093E+01
 0.56463651050E+01 0.56668853093E+01 0.57309491804E+01 0.58431836534E+01 0.60148772604E+01
 0.62604273722E+01 0.66002621611E+01 0.70500211772E+01 0.76213015487E+01 0.82973311733E+01
 0.91457940720E+01 0.10473987016E+02 0.12539801554E+02 0.15412708722E+02 0.18973201958E+02
 0.22933960099E+02 0.26910082558E+02 0.30495898841E+02 0.33331576561E+02 0.35144010472E+02
 0.51170923563E+02 0.50256734729E+02 0.47591726134E+02 0.43412699153E+02 0.38099758519E+02
 0.32154999162E+02 0.26141088356E+02 0.20608293389E+02 0.15991982071E+02 0.12539801554E+02
 0.10246789031E+02 0.88818314639E+01 0.80252371126E+01 0.73363749929E+01 0.67841591907E+01
 0.63678922426E+01 0.60700159765E+01 0.58657139257E+01 0.57353847392E+01 0.56624806865E+01
 0.56395647754E+01 0.56624806865E+01 0.57353847392E+01 0.58657139257E+01 0.60700159765E+01
 0.63678922426E+01 0.67841591907E+01 0.73363749929E+01 0.80252371126E+01 0.88818314639E+01
 0.10246789031E+02 0.12539801554E+02 0.15991982071E+02 0.20608293389E+02 0.26141088356E+02
 0.32154999162E+02 0.38099758519E+02 0.43412699153E+02 0.47591726134E+02 0.50256734729E+02
 0.70215695708E+02 0.68941004945E+02 0.65230773870E+02 0.59412361691E+02 0.52012052583E+02
 0.43701763077E+02 0.35234480737E+02 0.27336508164E+02 0.20608293389E+02 0.15412708722E+02
 0.11832165904E+02 0.96512011224E+01 0.84322027850E+01 0.76249568381E+01 0.69712130823E+01
 0.64789848111E+01 0.61245371720E+01 0.58876471691E+01 0.57366530645E+01 0.56559999654E+01
 0.56290652849E+01 0.56559999654E+01 0.57366530645E+01 0.58876471691E+01 0.61245371720E+01
 0.64789848111E+01 0.69712130823E+01 0.76249568381E+01 0.84322027850E+01 0.96512011224E+01
 0.11832165904E+02 0.15412708722E+02 0.20608293389E+02 0.27336508164E+02 0.35234480737E+02
 0.43701763077E+02 0.52012052583E+02 0.59412361691E+02 0.65230773870E+02 0.68941004945E+02
 0.92139842420E+02 0.90442903524E+02 0.85508286499E+02 0.77788198606E+02 0.67988865861E+02
 0.56994891199E+02 0.45770226584E+02 0.35234480737E+02 0.26141088356E+02 0.18973201958E+02
 0.13880327339E+02 0.10671350809E+02 0.88882039993E+01 0.78919310177E+01 0.71553295014E+01
 0.65858785719E+01 0.61798245502E+01 0.59069515037E+01 0.57378043914E+01 0.56466096924E+01
 0.56181144927E+01 0.56466096924E+01 0.57378043914E+01 0.59069515037E+01 0.61798245502E+01
 0.65858785719E+01 0.71553295014E+01 0.78919310177E+01 0.88882039993E+01 0.10671350809E+02
 0.13880327339E+02 0.18973201958E+02 0.26141088356E+02 0.35234480737E+02 0.45770226584E+02
 0.56994891199E+02 0.67988865861E+02 0.77788198606E+02 0.85508286499E+02 0.90442903524E+02
 0.11565362216E+03 0.11348895337E+03 0.10720316865E+03 0.97400216064E+02 0.85000792838E+02
 0.71134246399E+02 0.56994891199E+02 0.43701763077E+02 0.32154999162E+02 0.22933960099E+02
 0.16239341346E+02 0.11899475419E+02 0.94257306738E+01 0.81387583842E+01 0.73222255193E+01
 0.66855986433E+01 0.62319547679E+01 0.59251798377E+01 0.57387812900E+01 0.56373246834E+01
 0.56074050682E+01 0.56373246834E+01 0.57387812900E+01 0.59251798377E+01 0.62319547679E+01
 0.66855986433E+01 0.73222255193E+01 0.81387583842E+01 0.94257306738E+01 0.11899475419E+02
 0.16239341346E+02 0.22933960099E+02 0.32154999162E+02 0.43701763077E+02 0.56994891199E+02
 0.71134246399E+02 0.85000792838E+02 0.97400216064E+02 0.10720316865E+03 0.11348895337E+03
 0.13901674348E+03 0.13636985403E+03 0.12869656328E+03 0.11676715497E+03 0.10173832166E+03
 0.85000792838E+02 0.67988865861E+02 0.52012052583E+02 0.38099758519E+02 0.26910082558E+02
 0.18670829088E+02 0.13212768109E+02 0.10021226045E+02 0.83763907242E+01 0.74611378484E+01
 0.67746884266E+01 0.62776721798E+01 0.59428185620E+01 0.57392900818E+01 0.56298673881E+01
 0.55973197046E+01 0.56298673881E+01 0.57392900818E+01 0.59428185620E+01 0.62776721798E+01
 0.67746884266E+01 0.74611378484E+01 0.83763907242E+01 0.10021226045E+02 0.13212768109E+02
 0.18670829088E+02 0.26910082558E+02 0.38099758519E+02 0.52012052583E+02 0.67988865861E+02
 0.85000792838E+02 0.10173832166E+03 0.11676715497E+03 0.12869656328E+03 0.13636985403E+03
 0.16020635463E+03 0.15710684883E+03 0.14813588401E+03 0.13422614006E+03 0.11676715497E+03
 0.97400216064E+02 0.77788198606E+02 0.59412361691E+02 0.43412699153E+02 0.30495898841E+02
 0.20904115024E+02 0.14453938819E+02 0.10606117262E+02 0.86014326268E+01 0.75700011183E+01
 0.68480810170E+01 0.63151462482E+01 0.59587607699E+01 0.57398861686E+01 0.56247975007E+01
 0.55890341649E+01 0.56247975007E+01 0.57398861686E+01 0.59587607699E+01 0.63151462482E+01
 0.68480810170E+01 0.75700011183E+01 0.86014326268E+01 0.10606117262E+02 0.14453938819E+02
 0.20904115024E+02 0.30495898841E+02 0.43412699153E+02 0.59412361691E+02 0.77788198606E+02
 0.97400216064E+02 0.11676715497E+03 0.13422614006E+03 0.14813588401E+03 0.15710684883E+03
 0.17717759117E+03 0.17370552152E+03 0.16366782636E+03 0.14813588401E+03 0.12869656328E+03
 0.10720316865E+03 0.85508286499E+02 0.65230773870E+02 0.47591726134E+02 0.33331576561E+02
 0.22691351991E+02 0.15467108324E+02 0.11098446791E+02 0.87923107177E+01 0.76495877861E+01
 0.69016709084E+01 0.63435115448E+01 0.59711627092E+01 0.57408788301E+01 0.56214116874E+01
 0.55832806600E+01 0.56214116874E+01 0.57408788301E+01 0.59711627092E+01 0.63435115448E+01
 0.69016709084E+01 0.76495877861E+01 0.87923107177E+01 0.11098446791E+02 0.15467108324E+02
 0.22691351991E+02 0.33331576561E+02 0.47591726134E+02 0.65230773870E+02 0.85508286499E+02
 0.10720316865E+03 0.12869656328E+03 0.14813588401E+03 0.16366782636E+03 0.17370552152E+03
 0.18816397780E+03 0.18444605934E+03 0.17370552152E+03 0.15710684883E+03 0.13636985403E+03
 0.11348895337E+03 0.90442903524E+02 0.68941004945E+02 0.50256734729E+02 0.35144010472E+02
 0.23841437968E+02 0.16127771786E+02 0.11425659651E+02 0.89214972996E+01 0.76987979725E+01
 0.69340721533E+01 0.63611355083E+01 0.59790988428E+01 0.57418148244E+01 0.56196516966E+01
 0.55800247290E+01 0.56196516966E+01 0.57418148244E+01 0.59790988428E+01 0.63611355083E+01
 0.69340721533E+01 0.76987979725E+01 0.89214972996E+01 0.11425659651E+02 0.16127771786E+02
 0.23841437968E+02 0.35144010472E+02 0.50256734729E+02 0.68941004945E+02 0.90442903524E+02
 0.11348895337E+03 0.13636985403E+03 0.15710684883E+03 0.17370552152E+03 0.18444605934E+03
 0.18816397780E+03 0.18444605934E+03 0.17370552152E+03 0.15710684883E+03 0.13636985403E+03
 0.11348895337E+03 0.90442903524E+02 0.68941004945E+02 0.50256734729E+02 0.35144010472E+02
 0.23841437968E+02 0.16127771786E+02 0.11425659651E+02 0.89214972996E+01 0.76987979725E+01
 0.69340721533E+01 0.63611355083E+01 0.59790988428E+01 0.57418148244E+01 0.56196516966E+01
 0.55800247290E+01 0.56196516966E+01 0.57418148244E+01 0.59790988428E+01 0.63611355083E+01
 0.69340721533E+01 0.76987979725E+01 0.89214972996E+01 0.11425659651E+02 0.16127771786E+02