   2   2   1   0
  0.1133275E+02  0.2830013E-09  0.2830013E-09  0.2830013E-09  0.5000000E-15
  1.000000000000000E-004
  CAR 
 unknown system                          
     46.37405141     -4.92901603  301      5.84667741      1.00000000
     -4.929  0.0000E+00  0.0000E+00  0.0000E+00  0.0000E+00
     -4.758  0.0000E+00  0.0000E+00  0.0000E+00  0.0000E+00
     -4.587  0.0000E+00  0.0000E+00  0.0000E+00  0.0000E+00
     -4.416  0.0000E+00  0.0000E+00  0.0000E+00  0.0000E+00
     -4.245 -0.3552E-32  0.0000E+00 -0.6075E-33  0.0000E+00
     -4.074 -0.2351E-26 -0.5825E-32 -0.4020E-27 -0.9962E-33
     -3.903 -0.3643E-21 -0.3661E-26 -0.6230E-22 -0.6260E-27
     -3.732 -0.1281E-16 -0.5389E-21 -0.2191E-17 -0.9215E-22
     -3.561 -0.1084E-12 -0.1806E-16 -0.1854E-13 -0.3089E-17
     -3.390 -0.2137E-09 -0.1446E-12 -0.3657E-10 -0.2473E-13
     -3.219 -0.9818E-07 -0.2707E-09 -0.1683E-07 -0.4632E-10
     -3.048 -0.1037E-04 -0.1181E-06 -0.1789E-05 -0.2024E-07
     -2.877 -0.2341E-03 -0.1182E-04 -0.4182E-04 -0.2042E-05
     -2.706 -0.5607E-03 -0.2517E-03 -0.1377E-03 -0.4508E-04
     -2.535  0.6205E-02 -0.5113E-03  0.9234E-03 -0.1325E-03
     -2.364  0.2369E-01  0.6659E-02  0.4975E-02  0.1006E-02
     -2.193  0.3825E-01  0.2412E-01  0.1152E-01  0.5131E-02
     -2.022  0.4838E-01  0.3824E-01  0.1979E-01  0.1167E-01
     -1.851  0.5718E-01  0.4803E-01  0.2957E-01  0.1988E-01
     -1.680  0.6557E-01  0.5644E-01  0.4078E-01  0.2954E-01
     -1.509  0.7368E-01  0.6439E-01  0.5338E-01  0.4055E-01
     -1.338  0.8135E-01  0.7186E-01  0.6729E-01  0.5283E-01
     -1.167  0.9012E-01  0.7885E-01  0.8270E-01  0.6632E-01
     -0.996  0.9732E-01  0.8657E-01  0.9935E-01  0.8112E-01
     -0.825  0.1077E+00  0.9276E-01  0.1178E+00  0.9699E-01
     -0.654  0.1150E+00  0.1012E+00  0.1374E+00  0.1143E+00
     -0.483  0.1275E+00  0.1072E+00  0.1592E+00  0.1326E+00
     -0.312  0.1365E+00  0.1159E+00  0.1826E+00  0.1524E+00
     -0.141  0.1517E+00  0.1236E+00  0.2085E+00  0.1736E+00
      0.030  0.1651E+00  0.1304E+00  0.2368E+00  0.1959E+00
      0.201  0.1851E+00  0.1427E+00  0.2684E+00  0.2203E+00
      0.372  0.2077E+00  0.1472E+00  0.3039E+00  0.2454E+00
      0.543  0.2382E+00  0.1632E+00  0.3447E+00  0.2733E+00
      0.714  0.2809E+00  0.1698E+00  0.3927E+00  0.3024E+00
      0.885  0.4430E+00  0.1852E+00  0.4685E+00  0.3341E+00
      1.056  0.8222E+00  0.2004E+00  0.6091E+00  0.3683E+00
      1.227  0.1115E+01  0.2140E+00  0.7998E+00  0.4049E+00
      1.398  0.1295E+01  0.2400E+00  0.1021E+01  0.4460E+00
      1.569  0.1630E+01  0.2591E+00  0.1300E+01  0.4903E+00
      1.740  0.1905E+01  0.2973E+00  0.1626E+01  0.5411E+00
      1.911  0.1518E+01  0.3380E+00  0.1885E+01  0.5989E+00
      2.082  0.1117E+01  0.4282E+00  0.2076E+01  0.6721E+00
      2.253  0.8233E+00  0.5912E+00  0.2217E+01  0.7732E+00
      2.424  0.1433E+01  0.7015E+00  0.2462E+01  0.8932E+00
      2.595  0.2909E+01  0.7109E+00  0.2960E+01  0.1015E+01
      2.766  0.2624E+01  0.7264E+00  0.3409E+01  0.1139E+01
      2.937  0.2037E+01  0.8497E+00  0.3757E+01  0.1284E+01
      3.108  0.2154E+01  0.1105E+01  0.4125E+01  0.1473E+01
      3.279  0.2760E+01  0.1299E+01  0.4597E+01  0.1695E+01
      3.450  0.2784E+01  0.1174E+01  0.5073E+01  0.1896E+01
      3.621  0.1805E+01  0.8577E+00  0.5382E+01  0.2043E+01
      3.793  0.9873E+00  0.5819E+00  0.5551E+01  0.2142E+01
      3.964  0.8304E+00  0.8731E+00  0.5693E+01  0.2292E+01
      4.135  0.9022E+00  0.2024E+01  0.5847E+01  0.2638E+01
      4.306  0.1158E+01  0.2625E+01  0.6045E+01  0.3087E+01
      4.477  0.1942E+01  0.2466E+01  0.6377E+01  0.3508E+01
      4.648  0.3106E+01  0.2286E+01  0.6908E+01  0.3899E+01
      4.819  0.4376E+01  0.2250E+01  0.7657E+01  0.4284E+01
      4.990  0.5032E+01  0.2442E+01  0.8517E+01  0.4702E+01
      5.161  0.3306E+01  0.2325E+01  0.9083E+01  0.5099E+01
      5.332  0.1841E+01  0.1844E+01  0.9398E+01  0.5415E+01
      5.503  0.1554E+01  0.1219E+01  0.9663E+01  0.5623E+01
      5.674  0.1497E+01  0.6396E+00  0.9919E+01  0.5733E+01
      5.845  0.1518E+01  0.4940E+00  0.1018E+02  0.5817E+01
      6.016  0.1383E+01  0.5002E+00  0.1042E+02  0.5903E+01
      6.187  0.8324E+00  0.5468E+00  0.1056E+02  0.5996E+01
      6.358  0.3777E+00  0.6574E+00  0.1062E+02  0.6108E+01
      6.529  0.2747E+00  0.9333E+00  0.1067E+02  0.6268E+01
      6.700  0.2928E+00  0.1310E+01  0.1072E+02  0.6492E+01
      6.871  0.3088E+00  0.1578E+01  0.1077E+02  0.6762E+01
      7.042  0.2790E+00  0.1914E+01  0.1082E+02  0.7089E+01
      7.213  0.2900E+00  0.2478E+01  0.1087E+02  0.7513E+01
      7.384  0.3015E+00  0.2665E+01  0.1092E+02  0.7969E+01
      7.555  0.2738E+00  0.2574E+01  0.1097E+02  0.8409E+01
      7.726  0.2735E+00  0.4110E+01  0.1101E+02  0.9112E+01
      7.897  0.2854E+00  0.4423E+01  0.1106E+02  0.9868E+01
      8.068  0.2811E+00  0.2264E+01  0.1111E+02  0.1026E+02
      8.239  0.2463E+00  0.1355E+01  0.1115E+02  0.1049E+02
      8.410  0.2664E+00  0.8183E+00  0.1120E+02  0.1063E+02
      8.581  0.2710E+00  0.4995E+00  0.1125E+02  0.1071E+02
      8.752  0.2506E+00  0.4261E+00  0.1129E+02  0.1079E+02
      8.923  0.2239E+00  0.4053E+00  0.1133E+02  0.1085E+02
      9.094  0.2539E+00  0.3934E+00  0.1137E+02  0.1092E+02
      9.265  0.2438E+00  0.3633E+00  0.1141E+02  0.1098E+02
      9.436  0.2190E+00  0.3670E+00  0.1145E+02  0.1105E+02
      9.607  0.2105E+00  0.3416E+00  0.1149E+02  0.1110E+02
      9.778  0.2214E+00  0.3243E+00  0.1152E+02  0.1116E+02
      9.949  0.2126E+00  0.3323E+00  0.1156E+02  0.1122E+02
     10.120  0.1994E+00  0.3036E+00  0.1159E+02  0.1127E+02
     10.291  0.1808E+00  0.2873E+00  0.1162E+02  0.1132E+02
     10.462  0.1873E+00  0.3008E+00  0.1166E+02  0.1137E+02
     10.633  0.1870E+00  0.2705E+00  0.1169E+02  0.1142E+02
     10.804  0.1609E+00  0.2557E+00  0.1172E+02  0.1146E+02
     10.975  0.1588E+00  0.2592E+00  0.1174E+02  0.1150E+02
     11.146  0.1553E+00  0.2474E+00  0.1177E+02  0.1155E+02
     11.317  0.1453E+00  0.2273E+00  0.1179E+02  0.1159E+02
     11.488  0.1323E+00  0.2112E+00  0.1182E+02  0.1162E+02
     11.659  0.1185E+00  0.2247E+00  0.1184E+02  0.1166E+02
     11.830  0.1303E+00  0.1979E+00  0.1186E+02  0.1169E+02
     12.001  0.1103E+00  0.1779E+00  0.1188E+02  0.1172E+02
     12.172  0.7923E-01  0.1830E+00  0.1189E+02  0.1176E+02
     12.343  0.9319E-01  0.1706E+00  0.1191E+02  0.1178E+02
     12.514  0.8691E-01  0.1525E+00  0.1192E+02  0.1181E+02
     12.685  0.6746E-01  0.1407E+00  0.1193E+02  0.1183E+02
     12.856  0.5320E-01  0.1368E+00  0.1194E+02  0.1186E+02
     13.027  0.3740E-01  0.1251E+00  0.1195E+02  0.1188E+02
     13.198  0.8403E-01  0.9858E-01  0.1196E+02  0.1190E+02
     13.369  0.2860E+00  0.1081E+00  0.1201E+02  0.1191E+02
     13.540  0.4849E+00  0.8816E-01  0.1210E+02  0.1193E+02
     13.711  0.5029E+00  0.5933E-01  0.1218E+02  0.1194E+02
     13.882  0.4635E+00  0.6948E-01  0.1226E+02  0.1195E+02
     14.053  0.4412E+00  0.6240E-01  0.1234E+02  0.1196E+02
     14.224  0.3758E+00  0.5158E-01  0.1240E+02  0.1197E+02
     14.395  0.3752E+00  0.4052E-01  0.1247E+02  0.1198E+02
     14.566  0.3427E+00  0.1853E+00  0.1252E+02  0.1201E+02
     14.737  0.3249E+00  0.5902E+00  0.1258E+02  0.1211E+02
     14.908  0.3411E+00  0.6647E+00  0.1264E+02  0.1222E+02
     15.079  0.2866E+00  0.5433E+00  0.1269E+02  0.1232E+02
     15.250  0.2871E+00  0.4759E+00  0.1274E+02  0.1240E+02
     15.421  0.3275E+00  0.4202E+00  0.1279E+02  0.1247E+02
     15.592  0.3660E+00  0.4055E+00  0.1285E+02  0.1254E+02
     15.763  0.3584E+00  0.3493E+00  0.1292E+02  0.1260E+02
     15.934  0.4042E+00  0.3725E+00  0.1298E+02  0.1266E+02
     16.105  0.4095E+00  0.3312E+00  0.1305E+02  0.1272E+02
     16.276  0.3682E+00  0.3371E+00  0.1312E+02  0.1278E+02
     16.447  0.3752E+00  0.4495E+00  0.1318E+02  0.1285E+02
     16.618  0.4019E+00  0.4243E+00  0.1325E+02  0.1293E+02
     16.789  0.3791E+00  0.3945E+00  0.1332E+02  0.1299E+02
     16.960  0.3444E+00  0.4438E+00  0.1337E+02  0.1307E+02
     17.131  0.3926E+00  0.4140E+00  0.1344E+02  0.1314E+02
     17.302  0.3883E+00  0.3650E+00  0.1351E+02  0.1320E+02
     17.473  0.3514E+00  0.4236E+00  0.1357E+02  0.1328E+02
     17.644  0.3648E+00  0.4070E+00  0.1363E+02  0.1335E+02
     17.815  0.3772E+00  0.3692E+00  0.1370E+02  0.1341E+02
     17.986  0.3657E+00  0.3920E+00  0.1376E+02  0.1348E+02
     18.157  0.3681E+00  0.4058E+00  0.1382E+02  0.1355E+02
     18.328  0.3460E+00  0.3861E+00  0.1388E+02  0.1361E+02
     18.499  0.3548E+00  0.3633E+00  0.1394E+02  0.1367E+02
     18.670  0.3883E+00  0.3877E+00  0.1401E+02  0.1374E+02
     18.841  0.3416E+00  0.4023E+00  0.1407E+02  0.1381E+02
     19.012  0.3328E+00  0.3589E+00  0.1412E+02  0.1387E+02
     19.183  0.3692E+00  0.3592E+00  0.1419E+02  0.1393E+02
     19.354  0.3643E+00  0.4020E+00  0.1425E+02  0.1400E+02
     19.525  0.3295E+00  0.3639E+00  0.1430E+02  0.1406E+02
     19.696  0.3432E+00  0.3552E+00  0.1436E+02  0.1412E+02
     19.867  0.3639E+00  0.3763E+00  0.1442E+02  0.1419E+02
     20.038  0.3258E+00  0.3699E+00  0.1448E+02  0.1425E+02
     20.209  0.3392E+00  0.3460E+00  0.1454E+02  0.1431E+02
     20.380  0.3630E+00  0.3825E+00  0.1460E+02  0.1438E+02
     20.552  0.3259E+00  0.3558E+00  0.1466E+02  0.1444E+02
     20.723  0.3093E+00  0.3298E+00  0.1471E+02  0.1449E+02
     20.894  0.3486E+00  0.3724E+00  0.1477E+02  0.1456E+02
     21.065  0.3710E+00  0.3879E+00  0.1483E+02  0.1462E+02
     21.236  0.2971E+00  0.3122E+00  0.1488E+02  0.1468E+02
     21.407  0.2934E+00  0.3214E+00  0.1493E+02  0.1473E+02
     21.578  0.3610E+00  0.4002E+00  0.1500E+02  0.1480E+02
     21.749  0.3878E+00  0.3643E+00  0.1506E+02  0.1486E+02
     21.920  0.3305E+00  0.2866E+00  0.1512E+02  0.1491E+02
     22.091  0.3243E+00  0.3278E+00  0.1517E+02  0.1497E+02
     22.262  0.4152E+00  0.4044E+00  0.1524E+02  0.1504E+02
     22.433  0.4331E+00  0.3410E+00  0.1532E+02  0.1509E+02
     22.604  0.3701E+00  0.2792E+00  0.1538E+02  0.1514E+02
     22.775  0.3728E+00  0.3689E+00  0.1545E+02  0.1521E+02
     22.946  0.4454E+00  0.4524E+00  0.1552E+02  0.1528E+02
     23.117  0.4958E+00  0.3884E+00  0.1561E+02  0.1535E+02
     23.288  0.4251E+00  0.3691E+00  0.1568E+02  0.1541E+02
     23.459  0.4142E+00  0.4519E+00  0.1575E+02  0.1549E+02
     23.630  0.4940E+00  0.5187E+00  0.1583E+02  0.1558E+02
     23.801  0.5456E+00  0.4784E+00  0.1593E+02  0.1566E+02
     23.972  0.4729E+00  0.4642E+00  0.1601E+02  0.1574E+02
     24.143  0.4747E+00  0.5681E+00  0.1609E+02  0.1584E+02
     24.314  0.5223E+00  0.6202E+00  0.1618E+02  0.1594E+02
     24.485  0.5459E+00  0.5248E+00  0.1627E+02  0.1603E+02
     24.656  0.4943E+00  0.4601E+00  0.1636E+02  0.1611E+02
     24.827  0.4279E+00  0.5114E+00  0.1643E+02  0.1620E+02
     24.998  0.4680E+00  0.5581E+00  0.1651E+02  0.1629E+02
     25.169  0.5476E+00  0.4747E+00  0.1660E+02  0.1637E+02
     25.340  0.5045E+00  0.4425E+00  0.1669E+02  0.1645E+02
     25.511  0.4675E+00  0.5087E+00  0.1677E+02  0.1654E+02
     25.682  0.5206E+00  0.5478E+00  0.1686E+02  0.1663E+02
     25.853  0.6064E+00  0.5061E+00  0.1696E+02  0.1672E+02
     26.024  0.5501E+00  0.4895E+00  0.1706E+02  0.1680E+02
     26.195  0.4774E+00  0.5831E+00  0.1714E+02  0.1690E+02
     26.366  0.4790E+00  0.5943E+00  0.1722E+02  0.1700E+02
     26.537  0.4976E+00  0.5072E+00  0.1731E+02  0.1709E+02
     26.708  0.4830E+00  0.4992E+00  0.1739E+02  0.1717E+02
     26.879  0.4357E+00  0.5139E+00  0.1746E+02  0.1726E+02
     27.050  0.4306E+00  0.5023E+00  0.1754E+02  0.1735E+02
     27.221  0.4252E+00  0.4438E+00  0.1761E+02  0.1742E+02
     27.392  0.3944E+00  0.4247E+00  0.1768E+02  0.1750E+02
     27.563  0.4201E+00  0.4634E+00  0.1775E+02  0.1758E+02
     27.734  0.3989E+00  0.4068E+00  0.1782E+02  0.1765E+02
     27.905  0.3417E+00  0.3709E+00  0.1787E+02  0.1771E+02
     28.076  0.3229E+00  0.4126E+00  0.1793E+02  0.1778E+02
     28.247  0.3594E+00  0.3983E+00  0.1799E+02  0.1785E+02
     28.418  0.3671E+00  0.3449E+00  0.1805E+02  0.1791E+02
     28.589  0.2797E+00  0.3066E+00  0.1810E+02  0.1796E+02
     28.760  0.2499E+00  0.3647E+00  0.1814E+02  0.1802E+02
     28.931  0.3266E+00  0.3491E+00  0.1820E+02  0.1808E+02
     29.102  0.2847E+00  0.2724E+00  0.1825E+02  0.1813E+02
     29.273  0.2531E+00  0.2930E+00  0.1829E+02  0.1818E+02
     29.444  0.2656E+00  0.2774E+00  0.1834E+02  0.1823E+02
     29.615  0.2947E+00  0.2876E+00  0.1839E+02  0.1827E+02
     29.786  0.3229E+00  0.2940E+00  0.1844E+02  0.1833E+02
     29.957  0.3462E+00  0.2868E+00  0.1850E+02  0.1837E+02
     30.128  0.3808E+00  0.3307E+00  0.1857E+02  0.1843E+02
     30.299  0.4190E+00  0.3724E+00  0.1864E+02  0.1849E+02
     30.470  0.4198E+00  0.3892E+00  0.1871E+02  0.1856E+02
     30.641  0.6106E+00  0.4603E+00  0.1882E+02  0.1864E+02
     30.812  0.7675E+00  0.4637E+00  0.1895E+02  0.1872E+02
     30.983  0.6457E+00  0.5224E+00  0.1906E+02  0.1881E+02
     31.154  0.5397E+00  0.7453E+00  0.1915E+02  0.1894E+02
     31.325  0.4873E+00  0.6827E+00  0.1923E+02  0.1905E+02
     31.496  0.4271E+00  0.5232E+00  0.1931E+02  0.1914E+02
     31.667  0.3773E+00  0.5089E+00  0.1937E+02  0.1923E+02
     31.838  0.3258E+00  0.4376E+00  0.1943E+02  0.1930E+02
     32.009  0.3174E+00  0.3821E+00  0.1948E+02  0.1937E+02
     32.180  0.2877E+00  0.3667E+00  0.1953E+02  0.1943E+02
     32.351  0.2581E+00  0.3110E+00  0.1957E+02  0.1949E+02
     32.522  0.2123E+00  0.3158E+00  0.1961E+02  0.1954E+02
     32.693  0.1530E+00  0.2861E+00  0.1964E+02  0.1959E+02
     32.864  0.1285E+00  0.1865E+00  0.1966E+02  0.1962E+02
     33.035  0.1102E+00  0.1589E+00  0.1968E+02  0.1965E+02
     33.206  0.1164E+00  0.1356E+00  0.1970E+02  0.1967E+02
     33.377  0.1128E+00  0.1154E+00  0.1972E+02  0.1969E+02
     33.548  0.9292E-01  0.1282E+00  0.1973E+02  0.1971E+02
     33.719  0.8244E-01  0.1139E+00  0.1975E+02  0.1973E+02
     33.890  0.6128E-01  0.8647E-01  0.1976E+02  0.1975E+02
     34.061  0.6629E-01  0.7777E-01  0.1977E+02  0.1976E+02
     34.232  0.6657E-01  0.7266E-01  0.1978E+02  0.1977E+02
     34.403  0.8388E-01  0.8515E-01  0.1979E+02  0.1979E+02
     34.574  0.7985E-01  0.9231E-01  0.1981E+02  0.1980E+02
     34.745  0.5807E-01  0.5962E-01  0.1982E+02  0.1981E+02
     34.916  0.4190E-01  0.4595E-01  0.1982E+02  0.1982E+02
     35.087  0.5294E-01  0.5220E-01  0.1983E+02  0.1983E+02
     35.258  0.4956E-01  0.5639E-01  0.1984E+02  0.1984E+02
     35.429  0.6235E-01  0.6896E-01  0.1985E+02  0.1985E+02
     35.600  0.6831E-01  0.7334E-01  0.1986E+02  0.1986E+02
     35.771  0.4130E-01  0.4304E-01  0.1987E+02  0.1987E+02
     35.942  0.3430E-01  0.3312E-01  0.1988E+02  0.1988E+02
     36.113  0.3724E-01  0.3742E-01  0.1988E+02  0.1988E+02
     36.284  0.3563E-01  0.3973E-01  0.1989E+02  0.1989E+02
     36.455  0.4609E-01  0.4754E-01  0.1990E+02  0.1990E+02
     36.626  0.5309E-01  0.5708E-01  0.1991E+02  0.1991E+02
     36.797  0.4129E-01  0.3879E-01  0.1991E+02  0.1991E+02
     36.968  0.2099E-01  0.2036E-01  0.1992E+02  0.1992E+02
     37.139  0.2906E-01  0.2646E-01  0.1992E+02  0.1992E+02
     37.311  0.2386E-01  0.2763E-01  0.1993E+02  0.1993E+02
     37.482  0.2512E-01  0.2992E-01  0.1993E+02  0.1993E+02
     37.653  0.3677E-01  0.4183E-01  0.1994E+02  0.1994E+02
     37.824  0.4068E-01  0.3937E-01  0.1994E+02  0.1995E+02
     37.995  0.2575E-01  0.1812E-01  0.1995E+02  0.1995E+02
     38.166  0.1275E-01  0.1244E-01  0.1995E+02  0.1995E+02
     38.337  0.1724E-01  0.1963E-01  0.1995E+02  0.1995E+02
     38.508  0.1758E-01  0.2038E-01  0.1996E+02  0.1996E+02
     38.679  0.1879E-01  0.1910E-01  0.1996E+02  0.1996E+02
     38.850  0.2301E-01  0.3010E-01  0.1996E+02  0.1997E+02
     39.021  0.2538E-01  0.2412E-01  0.1997E+02  0.1997E+02
     39.192  0.2139E-01  0.1285E-01  0.1997E+02  0.1997E+02
     39.363  0.5420E-02  0.7387E-02  0.1997E+02  0.1997E+02
     39.534  0.1064E-01  0.1104E-01  0.1997E+02  0.1998E+02
     39.705  0.1177E-01  0.1084E-01  0.1998E+02  0.1998E+02
     39.876  0.1048E-01  0.1539E-01  0.1998E+02  0.1998E+02
     40.047  0.1022E-01  0.1669E-01  0.1998E+02  0.1998E+02
     40.218  0.2006E-01  0.1709E-01  0.1998E+02  0.1999E+02
     40.389  0.1760E-01  0.7165E-02  0.1999E+02  0.1999E+02
     40.560  0.3935E-02  0.2811E-02  0.1999E+02  0.1999E+02
     40.731  0.4317E-02  0.7045E-02  0.1999E+02  0.1999E+02
     40.902  0.8535E-02  0.6164E-02  0.1999E+02  0.1999E+02
     41.073  0.3742E-02  0.4832E-02  0.1999E+02  0.1999E+02
     41.244  0.5671E-02  0.1051E-01  0.1999E+02  0.1999E+02
     41.415  0.7981E-02  0.1181E-01  0.1999E+02  0.1999E+02
     41.586  0.1216E-01  0.5750E-02  0.1999E+02  0.2000E+02
     41.757  0.5629E-02  0.8766E-03  0.2000E+02  0.2000E+02
     41.928  0.1374E-02  0.1650E-02  0.2000E+02  0.2000E+02
     42.099  0.1632E-02  0.2547E-02  0.2000E+02  0.2000E+02
     42.270  0.2651E-02  0.4612E-02  0.2000E+02  0.2000E+02
     42.441  0.2299E-02  0.2873E-02  0.2000E+02  0.2000E+02
     42.612  0.2757E-02  0.1708E-02  0.2000E+02  0.2000E+02
     42.783  0.3745E-02  0.5675E-02  0.2000E+02  0.2000E+02
     42.954  0.5291E-02  0.2642E-02  0.2000E+02  0.2000E+02
     43.125  0.2130E-02 -0.1932E-03  0.2000E+02  0.2000E+02
     43.296 -0.1564E-03 -0.7632E-04  0.2000E+02  0.2000E+02
     43.467 -0.6534E-04 -0.4246E-04  0.2000E+02  0.2000E+02
     43.638 -0.2555E-04  0.2253E-04  0.2000E+02  0.2000E+02
     43.809 -0.8515E-04  0.1175E-02  0.2000E+02  0.2000E+02
     43.980  0.9103E-03  0.1714E-02  0.2000E+02  0.2000E+02
     44.151  0.2015E-02  0.3491E-03  0.2000E+02  0.2000E+02
     44.322  0.4239E-03 -0.6806E-04  0.2000E+02  0.2000E+02
     44.493 -0.8922E-04 -0.9448E-05  0.2000E+02  0.2000E+02
     44.664 -0.9752E-05 -0.1875E-06  0.2000E+02  0.2000E+02
     44.835 -0.1510E-06 -0.7567E-09  0.2000E+02  0.2000E+02
     45.006 -0.4691E-09 -0.6639E-12  0.2000E+02  0.2000E+02
     45.177 -0.3154E-12 -0.1301E-15  0.2000E+02  0.2000E+02
     45.348 -0.4742E-16  0.0000E+00  0.2000E+02  0.2000E+02
     45.519  0.0000E+00  0.0000E+00  0.2000E+02  0.2000E+02
     45.690  0.0000E+00  0.0000E+00  0.2000E+02  0.2000E+02
     45.861  0.0000E+00  0.0000E+00  0.2000E+02  0.2000E+02
     46.032  0.0000E+00  0.0000E+00  0.2000E+02  0.2000E+02
     46.203  0.0000E+00  0.0000E+00  0.2000E+02  0.2000E+02
     46.374  0.0000E+00  0.0000E+00  0.2000E+02  0.2000E+02
     46.37405141     -4.92901603  301      5.84667741      1.00000000
     -4.929  0.0000E+00  0.0000E+00  0.0000E+00  0.0000E+00  0.0000E+00  0.0000E+00  0.0000E+00  0.0000E+00  0.0000E+00  0.0000E+00  0.0000E+00  0.0000E+00  0.0000E+00  0.0000E+00  0.0000E+00  0.0000E+00  0.0000E+00  0.0000E+00
     -4.758  0.0000E+00  0.0000E+00  0.0000E+00  0.0000E+00  0.0000E+00  0.0000E+00  0.0000E+00  0.0000E+00  0.0000E+00  0.0000E+00  0.0000E+00  0.0000E+00  0.0000E+00  0.0000E+00  0.0000E+00  0.0000E+00  0.0000E+00  0.0000E+00
     -4.587  0.0000E+00  0.0000E+00  0.0000E+00  0.0000E+00  0.0000E+00  0.0000E+00  0.0000E+00  0.0000E+00  0.0000E+00  0.0000E+00  0.0000E+00  0.0000E+00  0.0000E+00  0.0000E+00  0.0000E+00  0.0000E+00  0.0000E+00  0.0000E+00
     -4.416  0.0000E+00  0.0000E+00  0.0000E+00  0.0000E+00  0.0000E+00  0.0000E+00  0.0000E+00  0.0000E+00  0.0000E+00  0.0000E+00  0.0000E+00  0.0000E+00  0.0000E+00  0.0000E+00  0.0000E+00  0.0000E+00  0.0000E+00  0.0000E+00
     -4.245 -0.1301E-32  0.0000E+00 -0.6948E-36  0.0000E+00 -0.6948E-36  0.0000E+00 -0.6948E-36  0.0000E+00 -0.1172E-38  0.0000E+00 -0.1172E-38  0.0000E+00 -0.1435E-38  0.0000E+00 -0.1172E-38  0.0000E+00 -0.1435E-38  0.0000E+00
     -4.074 -0.8604E-27 -0.2132E-32 -0.5327E-30 -0.1144E-35 -0.5327E-30 -0.1144E-35 -0.5327E-30 -0.1144E-35 -0.1048E-32 -0.1388E-38 -0.1048E-32 -0.1388E-38 -0.1095E-32 -0.1665E-38 -0.1048E-32 -0.1388E-38 -0.1095E-32 -0.1665E-38
     -3.903 -0.1333E-21 -0.1339E-26 -0.9560E-25 -0.8330E-30 -0.9560E-25 -0.8330E-30 -0.9560E-25 -0.8330E-30 -0.2178E-27 -0.1179E-32 -0.2178E-27 -0.1179E-32 -0.1998E-27 -0.1206E-32 -0.2178E-27 -0.1179E-32 -0.1998E-27 -0.1206E-32
     -3.732 -0.4687E-17 -0.1971E-21 -0.3922E-20 -0.1420E-24 -0.3922E-20 -0.1420E-24 -0.3922E-20 -0.1420E-24 -0.1047E-22 -0.2330E-27 -0.1047E-22 -0.2330E-27 -0.8675E-23 -0.2089E-27 -0.1047E-22 -0.2330E-27 -0.8675E-23 -0.2089E-27
     -3.561 -0.3964E-13 -0.6605E-17 -0.3899E-16 -0.5569E-20 -0.3899E-16 -0.5569E-20 -0.3899E-16 -0.5569E-20 -0.1215E-18 -0.1072E-22 -0.1215E-18 -0.1072E-22 -0.9506E-19 -0.8650E-23 -0.1215E-18 -0.1072E-22 -0.9506E-19 -0.8650E-23
     -3.390 -0.7811E-10 -0.5285E-13 -0.9253E-13 -0.5230E-16 -0.9253E-13 -0.5230E-16 -0.9253E-13 -0.5230E-16 -0.3458E-15 -0.1174E-18 -0.3458E-15 -0.1174E-18 -0.2641E-15 -0.8970E-19 -0.3458E-15 -0.1174E-18 -0.2641E-15 -0.8970E-19
     -3.219 -0.3585E-07 -0.9890E-10 -0.5313E-10 -0.1180E-12 -0.5313E-10 -0.1180E-12 -0.5313E-10 -0.1180E-12 -0.2460E-12 -0.3176E-15 -0.2460E-12 -0.3176E-15 -0.1875E-12 -0.2369E-15 -0.2460E-12 -0.3176E-15 -0.1875E-12 -0.2369E-15
     -3.048 -0.3779E-05 -0.4309E-07 -0.7467E-08 -0.6442E-10 -0.7467E-08 -0.6442E-10 -0.7467E-08 -0.6442E-10 -0.4512E-10 -0.2149E-12 -0.4512E-10 -0.2149E-12 -0.3445E-10 -0.1599E-12 -0.4512E-10 -0.2149E-12 -0.3445E-10 -0.1599E-12
     -2.877 -0.8508E-04 -0.4308E-05 -0.2552E-06 -0.8611E-08 -0.2552E-06 -0.8611E-08 -0.2552E-06 -0.8611E-08 -0.2201E-08 -0.3751E-10 -0.2201E-08 -0.3751E-10 -0.1683E-08 -0.2795E-10 -0.2201E-08 -0.3751E-10 -0.1683E-08 -0.2795E-10
     -2.706 -0.2002E-03 -0.9141E-04 -0.1820E-05 -0.2794E-06 -0.1820E-05 -0.2794E-06 -0.1820E-05 -0.2794E-06 -0.2847E-07 -0.1740E-08 -0.2847E-07 -0.1740E-08 -0.2187E-07 -0.1297E-08 -0.2847E-07 -0.1740E-08 -0.2187E-07 -0.1297E-08
     -2.535  0.2265E-02 -0.1818E-03  0.3471E-05 -0.1861E-05  0.3471E-05 -0.1861E-05  0.3471E-05 -0.1861E-05 -0.6000E-07 -0.2125E-07 -0.6000E-07 -0.2125E-07 -0.4707E-07 -0.1589E-07 -0.6000E-07 -0.2125E-07 -0.4707E-07 -0.1589E-07
     -2.364  0.8544E-02  0.2429E-02  0.4813E-04  0.4160E-05  0.4813E-04  0.4160E-05  0.4813E-04  0.4160E-05  0.5222E-06 -0.3793E-07  0.5222E-06 -0.3793E-07  0.3980E-06 -0.2885E-07  0.5222E-06 -0.3793E-07  0.3980E-06 -0.2885E-07
     -2.193  0.1359E-01  0.8692E-02  0.1445E-03  0.5031E-04  0.1445E-03  0.5031E-04  0.1445E-03  0.5031E-04  0.3236E-05  0.4073E-06  0.3236E-05  0.4073E-06  0.2489E-05  0.3034E-06  0.3236E-05  0.4073E-06  0.2489E-05  0.3034E-06
     -2.022  0.1689E-01  0.1357E-01  0.2780E-03  0.1471E-03  0.2780E-03  0.1471E-03  0.2780E-03  0.1471E-03  0.9759E-05  0.2361E-05  0.9759E-05  0.2361E-05  0.7587E-05  0.1766E-05  0.9759E-05  0.2361E-05  0.7587E-05  0.1766E-05
     -1.851  0.1959E-01  0.1675E-01  0.4398E-03  0.2794E-03  0.4398E-03  0.2794E-03  0.4398E-03  0.2794E-03  0.2171E-04  0.6892E-05  0.2171E-04  0.6892E-05  0.1705E-04  0.5198E-05  0.2171E-04  0.6892E-05  0.1705E-04  0.5198E-05
     -1.680  0.2204E-01  0.1933E-01  0.6287E-03  0.4382E-03  0.6287E-03  0.4382E-03  0.6287E-03  0.4382E-03  0.4102E-04  0.1493E-04  0.4102E-04  0.1493E-04  0.3222E-04  0.1134E-04  0.4102E-04  0.1493E-04  0.3222E-04  0.1134E-04
     -1.509  0.2426E-01  0.2164E-01  0.8457E-03  0.6223E-03  0.8457E-03  0.6223E-03  0.8457E-03  0.6223E-03  0.6983E-04  0.2754E-04  0.6983E-04  0.2754E-04  0.5626E-04  0.2085E-04  0.6983E-04  0.2754E-04  0.5626E-04  0.2085E-04
     -1.338  0.2623E-01  0.2369E-01  0.1079E-02  0.8315E-03  0.1079E-02  0.8315E-03  0.1079E-02  0.8315E-03  0.1112E-03  0.4571E-04  0.1112E-03  0.4571E-04  0.8810E-04  0.3543E-04  0.1112E-03  0.4571E-04  0.8810E-04  0.3543E-04
     -1.167  0.2839E-01  0.2549E-01  0.1359E-02  0.1054E-02  0.1359E-02  0.1054E-02  0.1359E-02  0.1054E-02  0.1684E-03  0.7095E-04  0.1684E-03  0.7095E-04  0.1391E-03  0.5373E-04  0.1684E-03  0.7095E-04  0.1391E-03  0.5373E-04
     -0.996  0.2995E-01  0.2740E-01  0.1629E-02  0.1318E-02  0.1629E-02  0.1318E-02  0.1629E-02  0.1318E-02  0.2465E-03  0.1043E-03  0.2465E-03  0.1043E-03  0.1976E-03  0.8260E-04  0.2465E-03  0.1043E-03  0.1976E-03  0.8260E-04
     -0.825  0.3227E-01  0.2875E-01  0.1985E-02  0.1570E-02  0.1985E-02  0.1570E-02  0.1985E-02  0.1570E-02  0.3519E-03  0.1484E-03  0.3519E-03  0.1484E-03  0.2973E-03  0.1125E-03  0.3519E-03  0.1484E-03  0.2973E-03  0.1125E-03
     -0.654  0.3354E-01  0.3064E-01  0.2292E-02  0.1894E-02  0.2292E-02  0.1894E-02  0.2292E-02  0.1894E-02  0.4925E-03  0.2043E-03  0.4925E-03  0.2043E-03  0.3999E-03  0.1644E-03  0.4925E-03  0.2043E-03  0.3999E-03  0.1644E-03
     -0.483  0.3603E-01  0.3174E-01  0.2735E-02  0.2174E-02  0.2735E-02  0.2174E-02  0.2735E-02  0.2174E-02  0.6804E-03  0.2758E-03  0.6804E-03  0.2758E-03  0.5868E-03  0.2109E-03  0.6804E-03  0.2758E-03  0.5868E-03  0.2109E-03
     -0.312  0.3735E-01  0.3344E-01  0.3099E-02  0.2549E-02  0.3099E-02  0.2549E-02  0.3099E-02  0.2549E-02  0.9349E-03  0.3645E-03  0.9349E-03  0.3645E-03  0.7718E-03  0.2948E-03  0.9349E-03  0.3645E-03  0.7718E-03  0.2948E-03
     -0.141  0.3993E-01  0.3480E-01  0.3635E-02  0.2896E-02  0.3635E-02  0.2896E-02  0.3635E-02  0.2896E-02  0.1276E-02  0.4785E-03  0.1276E-02  0.4785E-03  0.1116E-02  0.3748E-03  0.1276E-02  0.4785E-03  0.1116E-02  0.3748E-03
      0.030  0.4171E-01  0.3571E-01  0.4100E-02  0.3257E-02  0.4100E-02  0.3257E-02  0.4100E-02  0.3257E-02  0.1752E-02  0.6131E-03  0.1752E-02  0.6131E-03  0.1479E-02  0.4879E-03  0.1752E-02  0.6131E-03  0.1479E-02  0.4879E-03
      0.201  0.4447E-01  0.3799E-01  0.4745E-02  0.3755E-02  0.4745E-02  0.3755E-02  0.4745E-02  0.3755E-02  0.2414E-02  0.7923E-03  0.2414E-02  0.7923E-03  0.2124E-02  0.6467E-03  0.2414E-02  0.7923E-03  0.2124E-02  0.6467E-03
      0.372  0.4722E-01  0.3798E-01  0.5387E-02  0.4057E-02  0.5387E-02  0.4057E-02  0.5387E-02  0.4057E-02  0.3385E-02  0.1003E-02  0.3385E-02  0.1003E-02  0.2920E-02  0.7782E-03  0.3385E-02  0.1003E-02  0.2920E-02  0.7782E-03
      0.543  0.5070E-01  0.4075E-01  0.6211E-02  0.4704E-02  0.6211E-02  0.4704E-02  0.6211E-02  0.4704E-02  0.4733E-02  0.1274E-02  0.4733E-02  0.1274E-02  0.4154E-02  0.1069E-02  0.4733E-02  0.1274E-02  0.4154E-02  0.1069E-02
      0.714  0.5563E-01  0.4097E-01  0.7196E-02  0.5045E-02  0.7196E-02  0.5045E-02  0.7196E-02  0.5045E-02  0.6987E-02  0.1618E-02  0.6987E-02  0.1618E-02  0.5643E-02  0.1261E-02  0.6987E-02  0.1618E-02  0.5643E-02  0.1261E-02
      0.885  0.6925E-01  0.4294E-01  0.8642E-02  0.5689E-02  0.8642E-02  0.5689E-02  0.8642E-02  0.5689E-02  0.1805E-01  0.2036E-02  0.1805E-01  0.2036E-02  0.1492E-01  0.1685E-02  0.1805E-01  0.2036E-02  0.1492E-01  0.1685E-02
      1.056  0.9056E-01  0.4465E-01  0.1035E-01  0.6274E-02  0.1035E-01  0.6274E-02  0.1035E-01  0.6274E-02  0.4223E-01  0.2600E-02  0.4223E-01  0.2600E-02  0.4835E-01  0.2104E-02  0.4223E-01  0.2600E-02  0.4835E-01  0.2104E-02
      1.227  0.9322E-01  0.4546E-01  0.1195E-01  0.6793E-02  0.1195E-01  0.6793E-02  0.1195E-01  0.6793E-02  0.5457E-01  0.3307E-02  0.5457E-01  0.3307E-02  0.9109E-01  0.2646E-02  0.5457E-01  0.3307E-02  0.9109E-01  0.2646E-02
      1.398  0.8493E-01  0.4847E-01  0.1390E-01  0.7676E-02  0.1390E-01  0.7676E-02  0.1390E-01  0.7676E-02  0.5773E-01  0.4266E-02  0.5773E-01  0.4266E-02  0.1281E+00  0.3537E-02  0.5773E-01  0.4266E-02  0.1281E+00  0.3537E-02
      1.569  0.8000E-01  0.4937E-01  0.1816E-01  0.8183E-02  0.1816E-01  0.8183E-02  0.1816E-01  0.8183E-02  0.6396E-01  0.5567E-02  0.6396E-01  0.5567E-02  0.1892E+00  0.4395E-02  0.6396E-01  0.5567E-02  0.1892E+00  0.4395E-02
      1.740  0.7172E-01  0.5295E-01  0.2206E-01  0.9233E-02  0.2206E-01  0.9233E-02  0.2206E-01  0.9233E-02  0.6989E-01  0.7401E-02  0.6989E-01  0.7401E-02  0.2404E+00  0.6070E-02  0.6989E-01  0.7401E-02  0.2404E+00  0.6070E-02
      1.911  0.4714E-01  0.5565E-01  0.1685E-01  0.9961E-02  0.1685E-01  0.9961E-02  0.1685E-01  0.9961E-02  0.7031E-01  0.1019E-01  0.7031E-01  0.1019E-01  0.1790E+00  0.8031E-02  0.7031E-01  0.1019E-01  0.1790E+00  0.8031E-02
      2.082  0.2621E-01  0.6254E-01  0.1092E-01  0.1109E-01  0.1092E-01  0.1109E-01  0.1092E-01  0.1109E-01  0.7030E-01  0.1632E-01  0.7030E-01  0.1632E-01  0.1138E+00  0.1281E-01  0.7030E-01  0.1632E-01  0.1138E+00  0.1281E-01
      2.253  0.1233E-01  0.7370E-01  0.8269E-02  0.1200E-01  0.8269E-02  0.1200E-01  0.8269E-02  0.1200E-01  0.4919E-01  0.2897E-01  0.4919E-01  0.2897E-01  0.9183E-01  0.2208E-01  0.4919E-01  0.2897E-01  0.9183E-01  0.2208E-01
      2.424  0.4029E-02  0.7733E-01  0.1282E-01  0.1280E-01  0.1282E-01  0.1280E-01  0.1282E-01  0.1280E-01  0.1333E+00  0.3804E-01  0.1333E+00  0.3804E-01  0.1073E+00  0.2965E-01  0.1333E+00  0.3804E-01  0.1073E+00  0.2965E-01
      2.595  0.3056E-02  0.7117E-01  0.2203E-01  0.1341E-01  0.2203E-01  0.1341E-01  0.2203E-01  0.1341E-01  0.3247E+00  0.3977E-01  0.3247E+00  0.3977E-01  0.1533E+00  0.3186E-01  0.3247E+00  0.3977E-01  0.1533E+00  0.3186E-01
      2.766  0.5244E-02  0.6417E-01  0.1785E-01  0.1402E-01  0.1785E-01  0.1402E-01  0.1785E-01  0.1402E-01  0.2939E+00  0.4091E-01  0.2939E+00  0.4091E-01  0.1401E+00  0.3669E-01  0.2939E+00  0.4091E-01  0.1401E+00  0.3669E-01
      2.937  0.8215E-02  0.5773E-01  0.1637E-01  0.1513E-01  0.1637E-01  0.1513E-01  0.1637E-01  0.1513E-01  0.2257E+00  0.4261E-01  0.2257E+00  0.4261E-01  0.1063E+00  0.6262E-01  0.2257E+00  0.4261E-01  0.1063E+00  0.6262E-01
      3.108  0.1212E-01  0.5201E-01  0.2416E-01  0.1811E-01  0.2416E-01  0.1811E-01  0.2416E-01  0.1811E-01  0.2370E+00  0.4498E-01  0.2370E+00  0.4498E-01  0.1008E+00  0.1123E+00  0.2370E+00  0.4498E-01  0.1008E+00  0.1123E+00
      3.279  0.1801E-01  0.4437E-01  0.3359E-01  0.2004E-01  0.3359E-01  0.2004E-01  0.3359E-01  0.2004E-01  0.2999E+00  0.4861E-01  0.2999E+00  0.4861E-01  0.1298E+00  0.1502E+00  0.2999E+00  0.4861E-01  0.1298E+00  0.1502E+00
      3.450  0.1881E-01  0.3155E-01  0.3137E-01  0.1647E-01  0.3137E-01  0.1647E-01  0.3137E-01  0.1647E-01  0.3098E+00  0.5168E-01  0.3098E+00  0.5168E-01  0.1266E+00  0.1333E+00  0.3098E+00  0.5168E-01  0.1266E+00  0.1333E+00
      3.621  0.1295E-01  0.1792E-01  0.2152E-01  0.1131E-01  0.2152E-01  0.1131E-01  0.2152E-01  0.1131E-01  0.2048E+00  0.4670E-01  0.2048E+00  0.4670E-01  0.7469E-01  0.8975E-01  0.2048E+00  0.4670E-01  0.7469E-01  0.8975E-01