    2    2    1    2
  0.1133275E+02  0.2830013E-09  0.2830013E-09  0.2830013E-09  0.5000000E-15
  1.000000000000000E-004
  CAR 
 unknown system                          
     16    816     20
 
  0.0000000E+00  0.0000000E+00  0.0000000E+00  0.3356718E-04
    1       -2.597058     -2.432098   1.000000   1.000000
    2        0.988768      2.804634   1.000000   1.000000
    3        0.988768      2.804775   1.000000   1.000000
    4        3.544061      5.443505   1.000000   1.007593
    5        3.544062      5.443638   1.000000   1.007609
    6        3.544062      5.443648   1.000000   1.007610
    7        4.757831      7.504224   1.000000  -0.000000
    8        4.757832      7.504387   1.000000  -0.000000
    9        5.971513      8.144375   0.069430  -0.000000
   10        5.971515      8.144499   0.069427  -0.000000
   11        5.971515      8.144510   0.069427  -0.000000
   12       15.803687     16.071366   0.000000   0.000000
   13       15.803687     16.071366   0.000000   0.000000
   14       15.803687     16.071369   0.000000   0.000000
   15       21.522582     22.577715   0.000000   0.000000
   16       21.522584     22.577728   0.000000   0.000000
   17       26.668296     27.769979   0.000000   0.000000
   18       30.896340     30.643505   0.000000   0.000000
   19       30.896340     30.643505   0.000000   0.000000
   20       30.896340     30.643505   0.000000   0.000000
 
  0.3225806E-01  0.7703720E-33  0.0000000E+00  0.2014031E-03
    1       -2.575360     -2.410340   1.000000   1.000000
    2        0.998042      2.812712   1.000000   1.000000
    3        0.998532      2.815673   1.000000   1.000000
    4        3.543699      5.442271   1.000000   1.007440
    5        3.543700      5.442415   1.000000   1.007458
    6        3.549888      5.450014   1.000000   1.008434
    7        4.748038      7.491543   1.000000  -0.000000
    8        4.761596      7.509185   1.000000  -0.000000
    9        5.952817      8.119561   0.113509  -0.000000
   10        5.952819      8.119696   0.113505  -0.000000
   11        5.965020      8.137200   0.083738  -0.000000
   12       15.632813     15.932596   0.000000   0.000000
   13       15.845138     16.119104   0.000000   0.000000
   14       15.845138     16.119105   0.000000   0.000000
   15       21.528787     22.582013   0.000000   0.000000
   16       21.657098     22.684088   0.000000   0.000000
   17       26.736294     27.834789   0.000000   0.000000
   18       30.729984     30.500940   0.000000   0.000000
   19       30.879358     30.635349   0.000000   0.000000
   20       30.879358     30.635349   0.000000   0.000000
 
  0.6451613E-01  0.1540744E-32  0.0000000E+00  0.2014031E-03
    1       -2.510352     -2.345052   1.000000   1.000000
    2        1.025788      2.835991   1.000000   1.000000
    3        1.027436      2.848629   1.000000   1.000000
    4        3.543175      5.439331   1.000000   1.007087
    5        3.543176      5.439474   1.000000   1.007104
    6        3.567688      5.469619   1.000000   1.011375
    7        4.719006      7.453704   1.000000  -0.000000
    8        4.773086      7.523690   1.000000  -0.000000
    9        5.897940      8.047223   0.290790  -0.000000
   10        5.897941      8.047358   0.290784  -0.000000
   11        5.945630      8.115409   0.132793  -0.000000
   12       15.171348     15.549609   0.000000   0.000000
   13       15.968265     16.260195   0.000000   0.000000
   14       15.968265     16.260196   0.000000   0.000000
   15       21.547491     22.594991   0.000000   0.000000
   16       22.001635     22.963256   0.000000   0.000000
   17       26.948574     28.036480   0.000000   0.000000
   18       30.298041     30.123624   0.000000   0.000000
   19       30.821401     30.605655   0.000000   0.000000
   20       30.821401     30.605656   0.000000   0.000000
 
  0.9677419E-01  0.0000000E+00  0.0000000E+00  0.2014031E-03
    1       -2.402713     -2.236841   1.000000   1.000000
    2        1.071781      2.872638   1.000000   1.000000
    3        1.074221      2.903306   1.000000   1.000000
    4        3.542810      5.435071   1.000000   1.006598
    5        3.542811      5.435214   1.000000   1.006614
    6        3.597191      5.502119   1.000000   1.017565
    7        4.670912      7.391053   1.000000  -0.000000
    8        4.792014      7.547373   1.000000  -0.000000
    9        5.810197      7.933041   0.651550  -0.000000
   10        5.810199      7.933175   0.651544  -0.000000
   11        5.913563      8.079380   0.233766  -0.000000
   12       14.520573     14.995071   0.000000   0.000000
   13       16.169592     16.488788   0.000000   0.000000
   14       16.169593     16.488790   0.000000   0.000000
   15       21.578955     22.616915   0.000000   0.000000
   16       22.435914     23.326760   0.000000   0.000000
   17       27.325778     28.393254   0.000000   0.000000
   18       29.720497     29.608420   0.000000   0.000000
   19       30.702273     30.538847   0.000000   0.000000
   20       30.702274     30.538849   0.000000   0.000000
 
  0.1290323E+00  0.3081488E-32  0.0000000E+00  0.2014031E-03
    1       -2.253423     -2.086514   1.000000   1.000000
    2        1.135636      2.919332   1.000000   1.000000
    3        1.136777      2.979320   1.000000   1.000000
    4        3.543279      5.430355   1.000000   1.006087
    5        3.543280      5.430497   1.000000   1.006102
    6        3.638134      5.547238   1.000000   1.027776
    7        4.604172      7.304196   1.000000  -0.000000
    8        4.818105      7.579535   1.000000  -0.000000
    9        5.694500      7.785020   0.979353  -0.000000
   10        5.694502      7.785153   0.979351  -0.000000
   11        5.869186      8.029534   0.405423  -0.000000
   12       13.764970     14.338942   0.000000   0.000000
   13       16.443941     16.796589   0.000000   0.000000
   14       16.443941     16.796592   0.000000   0.000000
   15       21.623611     22.648215   0.000000   0.000000
   16       22.858366     23.690378   0.000000   0.000000
   17       27.887527     28.923184   0.000000   0.000000
   18       29.083328     29.032332   0.000000   0.000000
   19       30.493184     30.410550   0.000000   0.000000
   20       30.493184     30.410553   0.000000   0.000000
 
  0.1612903E+00  0.6162976E-32  0.0000000E+00  0.2014031E-03
    1       -2.064007     -1.895321   1.000000   1.000000
    2        1.212165      2.971434   1.000000   1.000000
    3        1.216800      3.076094   1.000000   1.000000
    4        3.545536      5.426383   1.000000   1.005682
    5        3.545537      5.426525   1.000000   1.005696
    6        3.690152      5.604582   1.000000   1.035426
    7        4.519407      7.194022   1.000000  -0.000000
    8        4.851049      7.611977   1.000000  -0.000000
    9        5.556606      7.612109   1.029797  -0.000000
   10        5.556608      7.619236   1.029797  -0.000000
   11        5.812987      7.966436   0.640339  -0.000000
   12       12.958577     13.632788   0.000000   0.000000
   13       16.785105     17.174298   0.000000   0.000000
   14       16.785105     17.174302   0.000000   0.000000
   15       21.682059     22.689488   0.000000   0.000000
   16       23.216360     24.003818   0.000000   0.000000
   17       28.433635     28.441459   0.000000   0.000000
   18       28.636181     29.630729   0.000000   0.000000
   19       30.168462     30.193049   0.000000   0.000000
   20       30.168462     30.193053   0.000000   0.000000
 
  0.1935484E+00  0.0000000E+00  0.0000000E+00  0.2014031E-03
    1       -1.836530     -1.664902   1.000000   1.000000
    2        1.296552      3.022732   1.000000   1.000000
    3        1.314551      3.192918   1.000000   1.000000
    4        3.550727      5.424596   1.000000   1.005506
    5        3.550728      5.424737   1.000000   1.005520
    6        3.752774      5.673651   1.000000   1.004885
    7        4.417417      7.061687   1.000000  -0.000000
    8        4.890669      7.422613   1.000000  -0.000000
    9        5.402676      7.422744   1.003687  -0.000000
   10        5.402677      7.665410   1.003687  -0.000000
   11        5.745616      7.890832   0.872998  -0.000000
   12       12.134317     12.912046   0.000000   0.000000
   13       17.186521     17.612770   0.000000   0.000000
   14       17.186522     17.612774   0.000000   0.000000
   15       21.755067     22.741520   0.000000   0.000000
   16       23.501395     24.253370   0.000000   0.000000
   17       27.795994     27.861324   0.000000   0.000000
   18       29.720400     29.865821   0.000000   0.000000
   19       29.720401     29.865826   0.000000   0.000000
   20       31.958451     32.391046   0.000000   0.000000
 
  0.2258065E+00  0.0000000E+00  0.0000000E+00  0.2014031E-03
    1       -1.573673     -1.397308   1.000000   1.000000
    2        1.385013      3.065311   1.000000   1.000000
    3        1.428117      3.329001   1.000000   1.000000
    4        3.560078      5.426526   1.000000   1.005696
    5        3.560079      5.426667   1.000000   1.005710
    6        3.825434      5.753837   1.000000   0.849808
    7        4.299170      6.908591   1.000000  -0.000000
    8        4.936871      7.224642   1.000000  -0.000000
    9        5.238572      7.224773   1.000074  -0.000000
   10        5.238573      7.716698   1.000074  -0.000000
   11        5.667817      7.803577   1.010398  -0.000000
   12       11.313007     12.201629   0.000000   0.000000
   13       17.641775     18.103690   0.000000   0.000000
   14       17.641775     18.103694   0.000000   0.000000
   15       21.843597     22.805297   0.000000   0.000000
   16       23.729507     24.449191   0.000000   0.000000
   17       27.183431     27.305910   0.000000   0.000000
   18       29.163502     29.425375   0.000000   0.000000
   19       29.163503     29.425381   0.000000   0.000000
   20       31.144673     31.575451   0.000000   0.000000
 
  0.2580645E+00  0.6162976E-32  0.0000000E+00  0.2014031E-03
    1       -1.279042     -1.095206   1.000000   1.000000
    2        1.471634      3.089722   1.000000   1.000000
    3        1.556457      3.483253   1.000000   1.000000
    4        3.574961      5.433925   1.000000   1.006471
    5        3.574962      5.434065   1.000000   1.006486
    6        3.907470      5.844429   1.000000   0.509515
    7        4.165839      6.736426   1.000000  -0.000000
    8        4.990556      7.024488   1.000000  -0.000000
    9        5.069536      7.024618   1.000000  -0.000000
   10        5.069538      7.705697   1.000000  -0.000000
   11        5.580486      7.772482   1.033960  -0.000000
   12       10.509263     11.520617  -0.000000   0.000000
   13       18.144802     18.639735   0.000000   0.000000
   14       18.144803     18.639740   0.000000   0.000000
   15       21.948737     22.881936   0.000000   0.000000
   16       23.923308     24.610377   0.000000   0.000000
   17       26.602944     26.782813   0.000000   0.000000
   18       28.524389     28.885653   0.000000   0.000000
   19       28.524390     28.885660   0.000000   0.000000
   20       30.354994     30.780822   0.000000   0.000000
 
  0.2903226E+00  0.6162976E-32  0.0000000E+00  0.2014031E-03
    1       -0.957170     -0.761780   1.000000   1.000000
    2        1.549270      3.085074   1.000000   1.000000
    3        1.698399      3.654444   1.000000   1.000000
    4        3.596647      5.448385   1.000000   1.008218
    5        3.596648      5.448525   1.000000   1.008236
    6        3.998108      5.944582   1.000000   0.135712
    7        4.018790      6.547115   1.000000  -0.000004
    8        4.900134      6.827382   1.000000  -0.000000
    9        4.900135      6.827512   1.000000  -0.000000
   10        5.052980      7.598296   1.000000  -0.000000
   11        5.484587      7.831822   1.014033  -0.000000
   12        9.734428     10.884617  -0.000000  -0.000000
   13       18.690184     19.214719   0.000000   0.000000
   14       18.690184     19.214723   0.000000   0.000000
   15       22.071760     22.972763   0.000000   0.000000
   16       24.103497     24.756460   0.000000   0.000000
   17       26.058184     26.295926   0.000000   0.000000
   18       27.829665     28.269392   0.000000   0.000000
   19       27.829666     28.269399   0.000000   0.000000
   20       29.597896     30.017840   0.000000   0.000000
 
  0.3225806E+00  0.0000000E+00  0.0000000E+00  0.2014031E-03
    1       -0.614147     -0.401093   1.000000   1.000000
    2        1.609444      3.039727   1.000000   1.000000
    3        1.852634      3.841172   1.000000   1.000000
    4        3.626850      5.472009   1.000000   1.011776
    5        3.626851      5.472148   1.000000   1.011799
    6        3.859597      6.053525   1.000000  -0.028325
    7        4.096589      6.342926   1.000000  -0.001259
    8        4.734184      6.637423   1.000000  -0.000000
    9        4.734186      6.637553   1.000000  -0.000000
   10        5.127002      7.482575   1.000002  -0.000000
   11        5.381178      7.894712   1.002417  -0.000000
   12        8.998592     10.306980  -0.000000  -0.000000
   13       19.273062     19.823350   0.000000   0.000000
   14       19.273062     19.823354   0.000000   0.000000
   15       22.214088     23.079280   0.000000   0.000000
   16       24.286897     24.904502   0.000000   0.000000
   17       25.550872     25.846950   0.000000   0.000000
   18       27.100570     27.599504   0.000000   0.000000
   19       27.100571     27.599510   0.000000   0.000000
   20       28.880501     29.295269   0.000000   0.000000
 
  0.3548387E+00  0.1232595E-31  0.0000000E+00  0.2014031E-03
    1       -0.257673     -0.018056   1.000000   1.000000
    2        1.642803      2.943070   1.000000   1.000000
    3        2.017688      4.041848   1.000000   1.000000
    4        3.666491      5.506031   1.000000   1.018407
    5        3.666492      5.506169   1.000000   1.018437
    6        3.689913      6.126170   1.000000  -0.031864
    7        4.201839      6.170028   1.000000  -0.022293
    8        4.574862      6.457937   1.000000  -0.000068
    9        4.574863      6.458067   1.000000  -0.000068
   10        5.217097      7.359845   1.000040  -0.000000
   11        5.271393      7.961923   1.000183  -0.000000
   12        8.311733      9.798751  -0.000000  -0.000000
   13       19.889126     20.461105   0.000000   0.000000
   14       19.889126     20.461108   0.000000   0.000000
   15       22.377275     23.203149   0.000000   0.000000
   16       24.486860     25.068807   0.000000   0.000000
   17       25.081464     25.436117   0.000000   0.000000
   18       26.352325     26.894694   0.000000   0.000000
   19       26.352326     26.894700   0.000000   0.000000
   20       28.208399     28.620126   0.000000   0.000000
 
  0.3870968E+00  0.0000000E+00  0.0000000E+00  0.2014031E-03
    1        0.102154      0.381060   1.000000   1.000000
    2        1.638446      2.786776   1.000000   1.000000
    3        2.191950      4.254664   1.000000   1.000000
    4        3.511482      5.551966   1.000000   1.028813
    5        3.716770      5.552103   1.000000   1.028843
    6        3.716771      5.899272   1.000000   0.285759
    7        4.312895      6.290964   1.000000  -0.003667
    8        4.424421      6.291095   1.000000  -0.003658
    9        4.424422      6.293056   1.000000  -0.003523
   10        5.156425      7.231429   1.000006  -0.000000
   11        5.330235      8.035691   1.000796  -0.000000
   12        7.683496      9.366624  -0.000000  -0.000000
   13       20.534530     21.124003   0.000000   0.000000
   14       20.534530     21.124005   0.000000   0.000000
   15       22.563003     23.346202   0.000000   0.000000
   16       24.649602     25.062728   0.000000   0.000000
   17       24.714023     25.261245   0.000000   0.000000
   18       25.595695     26.169060   0.000000   0.000000
   19       25.595696     26.169065   0.000000   0.000000
   20       27.585976     27.997986   0.000000   0.000000
 
  0.4193548E+00  0.3697785E-31  0.0000000E+00  0.2014031E-03
    1        0.452892      0.788658   1.000000   1.000000
    2        1.585719      2.567719   1.000000   1.000000
    3        2.373683      4.477668   1.000000   1.000000
    4        3.326492      5.611408   1.000000   1.035073
    5        3.778918      5.611544   1.000000   1.035061
    6        3.778919      5.665135   1.000000   1.012710
    7        4.284816      6.138338   1.000000  -0.029464
    8        4.284817      6.138470   1.000000  -0.029437
    9        4.428733      6.421520   1.000000  -0.000185
   10        5.037550      7.098778   1.000000  -0.000000
   11        5.476190      8.120135   1.012499  -0.000000
   12        7.123854      9.012517  -0.000000  -0.000000
   13       21.205799     21.808468   0.000000   0.000000
   14       21.205799     21.808469   0.000000   0.000000
   15       22.773062     23.510423   0.000000   0.000000
   16       24.254331     24.725403   0.000000   0.000000
   17       24.838293     25.432834   0.000000   0.000000
   18       24.838294     25.432838   0.000000   0.000000
   19       24.976983     25.491661   0.000000   0.000000
   20       27.016398     27.432915   0.000000   0.000000
 
  0.4516129E+00  0.0000000E+00  0.0000000E+00  0.2014031E-03
    1        0.779819      1.195277   1.000000   1.000000
    2        1.475275      2.288746   1.000000   1.000000
    3        2.561027      4.708714   1.000000   1.000000
    4        3.136862      5.426331   1.000000   1.005677
    5        3.853669      5.685385   1.000000   0.991682
    6        3.853670      5.685520   1.000000   0.991513
    7        4.157308      6.001096   1.000000   0.017441
    8        4.157309      6.001228   1.000000   0.017255
    9        4.548258      6.554194   1.000000  -0.000003
   10        4.916019      6.963300   1.000000  -0.000000
   11        5.667375      8.221696   1.010788  -0.000000
   12        6.641048      8.731975  -0.000000  -0.000000
   13       21.899700     22.511119   0.000000   0.000000
   14       21.899701     22.511119   0.000000   0.000000
   15       23.009316     23.697921   0.000000   0.000000
   16       23.894343     24.422381   0.000000   0.000000
   17       24.085886     24.693680   0.000000   0.000000
   18       24.085886     24.693683   0.000000   0.000000
   19       25.282627     25.768102   0.000000   0.000000
   20       26.501507     26.927441   0.000000   0.000000
 
  0.4838710E+00  0.2465190E-31  0.0000000E+00  0.2014031E-03
    1        1.067429      1.589569   1.000000   1.000000
    2        1.302085      1.958614   1.000000   1.000000
    3        2.752042      4.945508   1.000000   1.000000
    4        2.944683      5.185577   1.000000   1.000015
    5        3.941528      5.774692   1.000000   0.783824
    6        3.941529      5.774826   1.000000   0.783369
    7        4.042736      5.879826   1.000000   0.361849
    8        4.042737      5.879960   1.000000   0.361310
    9        4.670099      6.689590   1.000000  -0.000000
   10        4.793105      6.826426   1.000000  -0.000000
   11        5.917688      8.349599   0.219496  -0.000000
   12        6.239525      8.515261  -0.008959  -0.000000
   13       22.613091     23.228576   0.000000   0.000000
   14       22.613091     23.228577   0.000000   0.000000
   15       23.273666     23.910891   0.000000   0.000000
   16       23.342917     23.957399   0.000000   0.000000
   17       23.342918     23.957400   0.000000   0.000000
   18       23.568049     24.151620   0.000000   0.000000
   19       25.636277     26.096841   0.000000   0.000000
   20       26.041778     26.482385   0.000000   0.000000
 
  0.3225806E-01  0.3225806E-01  0.0000000E+00  0.4028062E-03
    1       -2.553666     -2.388553   1.000000   1.000000
    2        1.007473      2.822312   1.000000   1.000000
    3        1.008106      2.825014   1.000000   1.000000
    4        3.532033      5.429125   1.000000   1.005959
    5        3.543347      5.441108   1.000000   1.007299
    6        3.567313      5.468871   1.000000   1.011252
    7        4.745371      7.487890   1.000000  -0.000000
    8        4.758678      7.505350   1.000000  -0.000000
    9        5.918738      8.077788   0.215918  -0.000000
   10        5.934131      8.094770   0.166275  -0.000000
   11        5.974252      8.147556   0.063715  -0.000000
   12       15.635311     15.946824   0.000000   0.000000
   13       15.711942     16.012542   0.000000   0.000000
   14       15.886276     16.166313   0.000000   0.000000
   15       21.598839     22.636973   0.000000   0.000000
   16       21.730349     22.742162   0.000000   0.000000
   17       26.803145     27.898872   0.000000   0.000000
   18       30.586669     30.385776   0.000000   0.000000
   19       30.836879     30.597288   0.000000   0.000000
   20       30.864118     30.628290   0.000000   0.000000
 
  0.6451613E-01  0.3225806E-01  0.0000000E+00  0.8056124E-03
    1       -2.488765     -2.323356   1.000000   1.000000
    2        1.035101      2.846296   1.000000   1.000000
    3        1.037022      2.857156   1.000000   1.000000
    4        3.521927      5.416104   1.000000   1.004731
    5        3.542440      5.437783   1.000000   1.006906
    6        3.594642      5.498524   1.000000   1.016808
    7        4.719571      7.454113   1.000000  -0.000000
    8        4.767673      7.516597   1.000000  -0.000000
    9        5.852321      7.993431   0.476132  -0.000000
   10        5.879255      8.022484   0.364158  -0.000000
   11        5.967334      8.139320   0.078518  -0.000000
   12       15.201722     15.587389   0.000000   0.000000
   13       15.803740     16.126532   0.000000   0.000000
   14       16.008495     16.305899   0.000000   0.000000
   15       21.642725     22.670096   0.000000   0.000000
   16       22.057075     23.007957   0.000000   0.000000
   17       27.019317     28.096905   0.000000   0.000000
   18       30.164669     30.020311   0.000000   0.000000
   19       30.761400     30.548146   0.000000   0.000000
   20       30.811266     30.601830   0.000000   0.000000
 
  0.9677419E-01  0.3225806E-01  0.0000000E+00  0.8056124E-03
    1       -2.381335     -2.215328   1.000000   1.000000
    2        1.080742      2.883162   1.000000   1.000000
    3        1.083971      2.911412   1.000000   1.000000
    4        3.515102      5.405294   1.000000   1.003874
    5        3.541355      5.432796   1.000000   1.006348
    6        3.630504      5.537492   1.000000   1.025566
    7        4.672791      7.392947   1.000000  -0.000000
    8        4.786466      7.540089   1.000000  -0.000000
    9        5.758450      7.873885   0.836078  -0.000000
   10        5.791554      7.908469   0.723715  -0.000000
   11        5.942842      8.110963   0.140616  -0.000000
   12       14.551004     15.032159   0.000000   0.000000
   13       15.999867     16.350538   0.000000   0.000000
   14       16.208417     16.532236   0.000000   0.000000
   15       21.680323     22.696996   0.000000   0.000000
   16       22.496622     23.376893   0.000000   0.000000
   17       27.381754     28.447867   0.000000   0.000000
   18       29.586547     29.505011   0.000000   0.000000
   19       30.629692     30.468449   0.000000   0.000000
   20       30.700047     30.540203   0.000000   0.000000
 
  0.1290323E+00  0.3225806E-01  0.0000000E+00  0.8056124E-03
    1       -2.232326     -2.065236   1.000000   1.000000
    2        1.143818      2.930041   1.000000   1.000000
    3        1.147013      2.986907   1.000000   1.000000
    4        3.511246      5.396369   1.000000   1.003267
    5        3.540872      5.427145   1.000000   1.005758
    6        3.675667      5.586760   1.000000   1.034680
    7        4.607540      7.307628   1.000000  -0.000000
    8        4.812773      7.572534   1.000000  -0.000000
    9        5.639904      7.724184   1.028294  -0.000000
   10        5.675960      7.760799   1.002515  -0.000000
   11        5.903123      8.065577   0.271378  -0.000000
   12       13.794645     14.374597   0.000000   0.000000
   13       16.268222     16.652924   0.000000   0.000000
   14       16.480994     16.837309   0.000000   0.000000
   15       21.729520     22.732038   0.000000   0.000000
   16       22.928879     23.749870   0.000000   0.000000
   17       27.935378     28.924982   0.000000   0.000000
   18       28.944763     28.970750   0.000000   0.000000
   19       30.406565     30.325297   0.000000   0.000000
   20       30.500134     30.418400   0.000000   0.000000
 
  0.1612903E+00  0.3225806E-01  0.0000000E+00  0.8056124E-03
    1       -2.043307     -1.874369   1.000000   1.000000
    2        1.221055      2.982329   1.000000   1.000000
    3        1.225930      3.083018   1.000000   1.000000
    4        3.510543      5.389616   1.000000   1.002862
    5        3.541846      5.421959   1.000000   1.005255
    6        3.730499      5.646793   1.000000   1.025067
    7        4.524709      7.199333   1.000000  -0.000000
    8        4.846019      7.551419   1.000000  -0.000000
    9        5.501100      7.588516   1.017349  -0.000000
   10        5.538389      7.612668   1.025772  -0.000000
   11        5.849918      8.005241   0.486289  -0.000000
   12       12.987448     13.666943   0.000000   0.000000
   13       16.601608     17.023520   0.000000   0.000000
   14       16.820160     17.212082   0.000000   0.000000
   15       21.792975     22.777480   0.000000   0.000000
   16       23.297792     24.073855   0.000000   0.000000
   17       28.287451     28.327638   0.000000   0.000000
   18       28.675812     29.670846   0.000000   0.000000
   19       30.067209     30.090102   0.000000   0.000000
   20       30.183424     30.207405   0.000000   0.000000
 
  0.1935484E+00  0.3225806E-01  0.0000000E+00  0.8056124E-03
    1       -1.816332     -1.644350   1.000000   1.000000
    2        1.305946      3.033767   1.000000   1.000000
    3        1.322659      3.199043   1.000000   1.000000
    4        3.513649      5.385934   1.000000   1.002660
    5        3.545260      5.418606   1.000000   1.004949
    6        3.795021      5.717634   1.000000   0.939273
    7        4.425318      7.069339   1.000000  -0.000000
    8        4.885935      7.363271   1.000000  -0.000000
    9        5.347328      7.400465   1.001175  -0.000000
   10        5.385067      7.659321   1.002614  -0.000000
   11        5.784562      7.931456   0.749305  -0.000000
   12       12.162411     12.944653   0.000000   0.000000
   13       16.993020     17.452765   0.000000   0.000000
   14       17.219473     17.647611   0.000000   0.000000
   15       21.872104     22.834641   0.000000   0.000000
   16       23.593364     24.333896   0.000000   0.000000
   17       27.639008     27.738458   0.000000   0.000000
   18       29.584479     29.744655   0.000000   0.000000
   19       29.607917     29.885139   0.000000   0.000000
   20       29.740330     30.534627   0.000000   0.000000
 
  0.2258065E+00  0.3225806E-01  0.0000000E+00  0.8056124E-03
    1       -1.554128     -1.377262   1.000000   1.000000
    2        1.394536      3.076396   1.000000   1.000000
    3        1.435366      3.334092   1.000000   1.000000
    4        3.521481      5.386526   1.000000   1.002691
    5        3.552058      5.418554   1.000000   1.004945
    6        3.868969      5.798993   1.000000   0.695548
    7        4.310722      6.919205   1.000000  -0.000000
    8        4.932397      7.166948   1.000000  -0.000000
    9        5.183990      7.204436   1.000015  -0.000000
   10        5.221861      7.711094   1.000046  -0.000000
   11        5.708222      7.845513   0.957148  -0.000000
   12       11.340299     12.232522   0.000000   0.000000
   13       17.435529     17.931848   0.000000   0.000000
   14       17.672620     18.135718   0.000000   0.000000
   15       21.968286     22.904860   0.000000   0.000000
   16       23.831326     24.539813   0.000000   0.000000
   17       27.011728     27.170843   0.000000   0.000000
   18       29.048010     29.290117   0.000000   0.000000
   19       29.185302     29.447275   0.000000   0.000000
   20       30.630448     31.536239   0.000000   0.000000
 
  0.2580645E+00  0.3225806E-01  0.0000000E+00  0.8056124E-03
    1       -1.260310     -1.075777   1.000000   1.000000
    2        1.481123      3.100716   1.000000   1.000000
    3        1.562779      3.487087   1.000000   1.000000
    4        3.535149      5.392871   1.000000   1.003051
    5        3.562734      5.423227   1.000000   1.005375
    6        3.951851      5.890328   1.000000   0.320089
    7        4.182890      6.750840   1.000000  -0.000000
    8        4.986257      6.968566   1.000000  -0.000000
    9        5.016023      7.007128   1.000000  -0.000000
   10        5.054189      7.748599   1.000000  -0.000000
   11        5.621966      7.767307   1.033654  -0.000000
   12       10.535649     11.549469  -0.000000   0.000000
   13       17.922565     18.452951   0.000000   0.000000
   14       18.173614     18.669164   0.000000   0.000000
   15       22.083099     22.989697   0.000000   0.000000
   16       24.034649     24.710980   0.000000   0.000000
   17       26.411326     26.631311   0.000000   0.000000
   18       28.418056     28.745918   0.000000   0.000000
   19       28.546107     28.908060   0.000000   0.000000
   20       30.660125     31.080564   0.000000   0.000000
 
  0.2903226E+00  0.3225806E-01  0.0000000E+00  0.8056124E-03
    1       -0.939440     -0.743062   1.000000   1.000000
    2        1.558567      3.095805   1.000000   1.000000
    3        1.703664      3.656742   1.000000   1.000000
    4        3.555970      5.406616   1.000000   1.003971
    5        3.576616      5.433956   1.000000   1.006474
    6        4.043109      5.991048   1.000000   0.032729