 running on    4 total cores
 distrk:  each k-point on    4 cores,    1 groups
 distr:  one band on    1 cores,    4 groups
 vasp.6.2.0 18Jan21 (build Aug 12 2022 13:00:08) complex                        
  
 POSCAR found type information on POSCAR Fe
 POSCAR found :  1 types and       2 ions
 scaLAPACK will be used
 LDA part: xc-table for Pade appr. of Perdew
 found WAVECAR, reading the header
  number of k-points has changed, file:   286 present:   816
  trying to continue reading WAVECAR, but it might fail
 WARNING: stress and forces are not correct
 POSCAR, INCAR and KPOINTS ok, starting setup
 FFT: planning ...
 reading WAVECAR
 the WAVECAR file was read successfully
 charge-density read from file: unknown                                 
 magnetization density read from file 1
 entering main loop
       N       E                     dE             d eps       ncg     rms          rms(c)
DAV:   1    -0.150146423581E+02   -0.15015E+02   -0.20508E+02 88868   0.889E+01
DAV:   2    -0.164749889119E+02   -0.14603E+01   -0.14239E+01 70776   0.239E+01
DAV:   3    -0.164846650372E+02   -0.96761E-02   -0.96488E-02 70776   0.203E+00
DAV:   4    -0.164847368325E+02   -0.71795E-04   -0.71795E-04 71268   0.154E-01
DAV:   5    -0.164847380583E+02   -0.12258E-05   -0.12251E-05 67896   0.198E-02
DAV:   6    -0.164847380827E+02   -0.24324E-07   -0.24609E-07 49336   0.279E-03
   1 F= -.16484738E+02 E0= -.16484301E+02  d E =-.131271E-02  mag=     4.3620
 writing wavefunctions
