   1   1   0   0
  0.1386300E+02  0.2621157E-09  0.2621157E-09  0.2621157E-09  0.5000000E-15
  1.000000000000000E-004
  CAR 
 unknown system                          
     35.98129779     -6.13830077  301      9.79484636      1.00000000
     -6.138  0.0000E+00  0.0000E+00
     -5.998  0.0000E+00  0.0000E+00
     -5.858  0.0000E+00  0.0000E+00
     -5.717  0.0000E+00  0.0000E+00
     -5.577  0.0000E+00  0.0000E+00
     -5.436  0.0000E+00  0.0000E+00
     -5.296  0.0000E+00  0.0000E+00
     -5.156  0.0000E+00  0.0000E+00
     -5.015  0.0000E+00  0.0000E+00
     -4.875  0.0000E+00  0.0000E+00
     -4.734  0.0000E+00  0.0000E+00
     -4.594  0.0000E+00  0.0000E+00
     -4.454  0.2011E-13  0.2824E-14
     -4.313  0.2845E-05  0.3994E-06
     -4.173  0.4550E-03  0.6428E-04
     -4.032  0.2222E-03  0.9548E-04
     -3.892  0.4831E-03  0.1633E-03
     -3.752  0.1802E-02  0.4162E-03
     -3.611  0.1679E-03  0.4398E-03
     -3.471  0.1015E-04  0.4412E-03
     -3.330  0.2235E-02  0.7550E-03
     -3.190  0.7238E-03  0.8567E-03
     -3.050  0.1489E-02  0.1066E-02
     -2.909  0.1782E-02  0.1316E-02
     -2.769  0.1894E-03  0.1343E-02
     -2.628  0.1534E-04  0.1345E-02
     -2.488  0.3564E-02  0.1845E-02
     -2.348  0.8789E-03  0.1969E-02
     -2.207  0.1493E-02  0.2178E-02
     -2.067  0.3582E-02  0.2681E-02
     -1.926  0.3587E-03  0.2731E-02
     -1.786  0.1215E-04  0.2733E-02
     -1.646  0.2257E-02  0.3050E-02
     -1.505  0.9580E-03  0.3185E-02
     -1.365  0.1919E-02  0.3454E-02
     -1.224  0.5477E-02  0.4223E-02
     -1.084  0.4230E-03  0.4282E-02
     -0.944  0.3240E-04  0.4287E-02
     -0.803  0.3695E-02  0.4806E-02
     -0.663  0.1663E-02  0.5039E-02
     -0.522  0.2545E-02  0.5397E-02
     -0.382  0.1866E-02  0.5658E-02
     -0.242  0.9149E-04  0.5671E-02
     -0.101  0.1345E-03  0.5690E-02
      0.039  0.7525E-02  0.6747E-02
      0.180  0.1202E-02  0.6915E-02
      0.320  0.1189E-02  0.7082E-02
      0.460  0.5654E-02  0.7876E-02
      0.601  0.1231E-03  0.7894E-02
      0.741  0.1838E-03  0.7919E-02
      0.882  0.4212E-02  0.8511E-02
      1.022  0.2625E-02  0.8879E-02
      1.162  0.1807E-02  0.9133E-02
      1.303  0.5480E-02  0.9902E-02
      1.443  0.3703E-04  0.9907E-02
      1.584  0.4159E-03  0.9966E-02
      1.724  0.3535E-02  0.1046E-01
      1.864  0.4862E-02  0.1114E-01
      2.005  0.2234E-02  0.1146E-01
      2.145  0.4775E-02  0.1213E-01
      2.286  0.6019E-05  0.1213E-01
      2.426  0.2481E-02  0.1248E-01
      2.566  0.5447E-02  0.1324E-01
      2.707  0.1846E-02  0.1350E-01
      2.847  0.3489E-02  0.1399E-01
      2.988  0.4553E-02  0.1463E-01
      3.128  0.9282E-03  0.1476E-01
      3.268  0.2016E-02  0.1504E-01
      3.409  0.2035E-02  0.1533E-01
      3.549  0.1566E-02  0.1555E-01
      3.690  0.6949E-02  0.1653E-01
      3.830  0.3071E-02  0.1696E-01
      3.970  0.2831E-02  0.1735E-01
      4.111  0.3446E-02  0.1784E-01
      4.251  0.2052E-02  0.1813E-01
      4.392  0.3969E-02  0.1868E-01
      4.532  0.4881E-02  0.1937E-01
      4.672  0.1379E-02  0.1956E-01
      4.813  0.1727E-02  0.1980E-01
      4.953  0.8348E-02  0.2098E-01
      5.094  0.2594E-02  0.2134E-01
      5.234  0.1192E-02  0.2151E-01
      5.374  0.5302E-02  0.2225E-01
      5.515  0.9839E-03  0.2239E-01
      5.655  0.1681E-02  0.2263E-01
      5.796  0.1880E-02  0.2289E-01
      5.936  0.2047E-02  0.2318E-01
      6.076  0.4460E-02  0.2380E-01
      6.217  0.1293E-01  0.2562E-01
      6.357  0.2266E-02  0.2594E-01
      6.498  0.1733E-02  0.2618E-01
      6.638  0.1402E-02  0.2638E-01
      6.778  0.8193E-02  0.2753E-01
      6.919  0.3789E-02  0.2806E-01
      7.059  0.2449E-02  0.2840E-01
      7.200  0.1728E-02  0.2865E-01
      7.340  0.3116E-02  0.2908E-01
      7.480  0.4920E-02  0.2977E-01
      7.621  0.4536E-03  0.2984E-01
      7.761  0.1078E-01  0.3135E-01
      7.902  0.8494E-03  0.3147E-01
      8.042  0.2585E-02  0.3183E-01
      8.182  0.4030E-02  0.3240E-01
      8.323  0.2028E-02  0.3268E-01
      8.463  0.4021E-02  0.3325E-01
      8.604  0.9366E-02  0.3456E-01
      8.744  0.3059E-02  0.3499E-01
      8.884  0.5024E-02  0.3570E-01
      9.025  0.3436E-02  0.3618E-01
      9.165  0.9987E-02  0.3758E-01
      9.306  0.1792E-02  0.3784E-01
      9.446  0.2919E-02  0.3824E-01
      9.586  0.2545E-02  0.3860E-01
      9.727  0.7526E-02  0.3966E-01
      9.867  0.4025E-02  0.4022E-01
     10.008  0.4459E-02  0.4085E-01
     10.148  0.5755E-02  0.4166E-01
     10.288  0.1023E-02  0.4180E-01
     10.429  0.2393E-02  0.4214E-01
     10.569  0.5994E-02  0.4298E-01
     10.710  0.3667E-02  0.4349E-01
     10.850  0.3892E-02  0.4404E-01
     10.990  0.7628E-02  0.4511E-01
     11.131  0.5282E-02  0.4585E-01
     11.271  0.2812E-02  0.4625E-01
     11.412  0.7350E-02  0.4728E-01
     11.552  0.3481E-02  0.4777E-01
     11.692  0.1027E-02  0.4791E-01
     11.833  0.5061E-02  0.4862E-01
     11.973  0.6291E-02  0.4951E-01
     12.114  0.3735E-02  0.5003E-01
     12.254  0.5335E-02  0.5078E-01
     12.394  0.8425E-02  0.5196E-01
     12.535  0.2424E-02  0.5230E-01
     12.675  0.9343E-03  0.5243E-01
     12.816  0.2453E-02  0.5278E-01
     12.956  0.4666E-02  0.5343E-01
     13.096  0.6575E-02  0.5436E-01
     13.237  0.6261E-02  0.5524E-01
     13.377  0.2408E-02  0.5557E-01
     13.518  0.1674E-02  0.5581E-01
     13.658  0.7584E-02  0.5687E-01
     13.798  0.1971E-02  0.5715E-01
     13.939  0.7735E-02  0.5824E-01
     14.079  0.9306E-02  0.5954E-01
     14.220  0.2059E-02  0.5983E-01
     14.360  0.5207E-02  0.6056E-01
     14.500  0.5189E-02  0.6129E-01
     14.641  0.8858E-02  0.6254E-01
     14.781  0.6390E-02  0.6343E-01
     14.921  0.2669E-02  0.6381E-01
     15.062  0.3094E-02  0.6424E-01
     15.202  0.6077E-02  0.6509E-01
     15.343  0.5767E-02  0.6590E-01
     15.483  0.6260E-02  0.6678E-01
     15.623  0.4552E-02  0.6742E-01
     15.764  0.3881E-02  0.6797E-01
     15.904  0.2102E-02  0.6826E-01
     16.045  0.5049E-02  0.6897E-01
     16.185  0.6571E-02  0.6989E-01
     16.325  0.3822E-02  0.7043E-01
     16.466  0.5668E-02  0.7123E-01
     16.606  0.6715E-02  0.7217E-01
     16.747  0.5617E-02  0.7296E-01
     16.887  0.6185E-02  0.7383E-01
     17.027  0.7232E-02  0.7484E-01
     17.168  0.1204E-01  0.7653E-01
     17.308  0.1902E-02  0.7680E-01
     17.449  0.5779E-02  0.7761E-01
     17.589  0.7950E-02  0.7873E-01
     17.729  0.1302E-01  0.8055E-01
     17.870  0.2641E-02  0.8092E-01
     18.010  0.5355E-03  0.8100E-01
     18.151  0.1927E-02  0.8127E-01
     18.291  0.3472E-02  0.8176E-01
     18.431  0.4127E-02  0.8234E-01
     18.572  0.7904E-02  0.8345E-01
     18.712  0.6537E-03  0.8354E-01
     18.853  0.2019E-02  0.8382E-01
     18.993  0.5235E-02  0.8456E-01
     19.133  0.6514E-02  0.8547E-01
     19.274  0.4850E-02  0.8615E-01
     19.414  0.6976E-02  0.8713E-01
     19.555  0.3273E-02  0.8759E-01
     19.695  0.3833E-02  0.8813E-01
     19.835  0.2185E-02  0.8844E-01
     19.976  0.5242E-02  0.8917E-01
     20.116  0.3922E-02  0.8972E-01
     20.257  0.1347E-01  0.9161E-01
     20.397  0.6958E-02  0.9259E-01
     20.537  0.7863E-02  0.9370E-01
     20.678  0.4522E-02  0.9433E-01
     20.818  0.3399E-02  0.9481E-01
     20.959  0.6594E-02  0.9573E-01
     21.099  0.2431E-02  0.9607E-01
     21.239  0.3918E-02  0.9663E-01
     21.380  0.1676E-02  0.9686E-01
     21.520  0.1142E-01  0.9846E-01
     21.661  0.1073E-01  0.9997E-01
     21.801  0.1215E-01  0.1017E+00
     21.941  0.6979E-02  0.1027E+00
     22.082  0.8633E-02  0.1039E+00
     22.222  0.3126E-02  0.1043E+00
     22.363  0.1355E-01  0.1062E+00
     22.503  0.9223E-02  0.1075E+00
     22.643  0.6344E-02  0.1084E+00
     22.784  0.9404E-03  0.1085E+00
     22.924  0.3171E-02  0.1090E+00
     23.065  0.3537E-02  0.1095E+00
     23.205  0.4767E-02  0.1101E+00
     23.345  0.3132E-02  0.1106E+00
     23.486  0.6021E-02  0.1114E+00
     23.626  0.5589E-02  0.1122E+00
     23.767  0.8658E-02  0.1134E+00
     23.907  0.7488E-02  0.1145E+00
     24.047  0.5734E-02  0.1153E+00
     24.188  0.4462E-02  0.1159E+00
     24.328  0.3896E-02  0.1165E+00
     24.469  0.7605E-02  0.1175E+00
     24.609  0.7772E-02  0.1186E+00
     24.749  0.2706E-02  0.1190E+00
     24.890  0.3827E-02  0.1195E+00
     25.030  0.1106E-01  0.1211E+00
     25.171  0.1129E-01  0.1227E+00
     25.311  0.1116E-01  0.1242E+00
     25.451  0.5735E-02  0.1250E+00
     25.592  0.4262E-02  0.1256E+00
     25.732  0.7366E-03  0.1257E+00
     25.873  0.2022E-02  0.1260E+00
     26.013  0.3809E-02  0.1266E+00
     26.153  0.1086E-01  0.1281E+00
     26.294  0.8767E-02  0.1293E+00
     26.434  0.4239E-02  0.1299E+00
     26.575  0.3169E-02  0.1304E+00
     26.715  0.6388E-02  0.1313E+00
     26.855  0.4621E-02  0.1319E+00
     26.996  0.7364E-02  0.1329E+00
     27.136  0.4516E-02  0.1336E+00
     27.277  0.9537E-02  0.1349E+00
     27.417  0.5389E-02  0.1357E+00
     27.557  0.8722E-02  0.1369E+00
     27.698  0.8340E-02  0.1381E+00
     27.838  0.6641E-02  0.1390E+00
     27.979  0.3986E-02  0.1396E+00
     28.119  0.3798E-02  0.1401E+00
     28.259  0.9817E-02  0.1415E+00
     28.400  0.1248E-01  0.1432E+00
     28.540  0.7301E-02  0.1442E+00
     28.681  0.7413E-03  0.1443E+00
     28.821  0.4423E-02  0.1450E+00
     28.961  0.6835E-02  0.1459E+00
     29.102  0.6455E-02  0.1468E+00
     29.242  0.4732E-02  0.1475E+00
     29.383  0.7203E-02  0.1485E+00
     29.523  0.3730E-02  0.1490E+00
     29.663  0.6575E-02  0.1500E+00
     29.804  0.6327E-02  0.1508E+00
     29.944  0.8121E-02  0.1520E+00
     30.085  0.1218E-01  0.1537E+00
     30.225  0.1165E-01  0.1553E+00
     30.365  0.2841E-02  0.1557E+00
     30.506  0.3934E-02  0.1563E+00
     30.646  0.2575E-02  0.1566E+00
     30.787  0.8560E-03  0.1568E+00
     30.927  0.5878E-02  0.1576E+00
     31.067  0.1960E-02  0.1579E+00
     31.208  0.1441E-02  0.1581E+00
     31.348  0.2164E-02  0.1584E+00
     31.489  0.2374E-02  0.1587E+00
     31.629  0.3314E-03  0.1587E+00
     31.769  0.1198E-08  0.1588E+00
     31.910  0.2721E-03  0.1588E+00
     32.050  0.2876E-02  0.1592E+00
     32.191  0.2426E-02  0.1595E+00
     32.331  0.9794E-03  0.1597E+00
     32.471  0.4179E-04  0.1597E+00
     32.612  0.2562E-07  0.1597E+00
     32.752  0.3349E-03  0.1597E+00
     32.893  0.3246E-03  0.1598E+00
     33.033  0.2173E-07  0.1598E+00
     33.173  0.0000E+00  0.1598E+00
     33.314  0.0000E+00  0.1598E+00
     33.454  0.4838E-16  0.1598E+00
     33.595  0.1788E-06  0.1598E+00
     33.735  0.3572E-03  0.1598E+00
     33.875  0.2024E-03  0.1598E+00
     34.016  0.4774E-03  0.1599E+00
     34.156  0.6077E-03  0.1600E+00
     34.297  0.3793E-05  0.1600E+00
     34.437  0.2682E-13  0.1600E+00
     34.577  0.0000E+00  0.1600E+00
     34.718  0.0000E+00  0.1600E+00
     34.858  0.0000E+00  0.1600E+00
     34.999  0.0000E+00  0.1600E+00
     35.139  0.0000E+00  0.1600E+00
     35.279  0.0000E+00  0.1600E+00
     35.420  0.0000E+00  0.1600E+00
     35.560  0.0000E+00  0.1600E+00
     35.701  0.0000E+00  0.1600E+00
     35.841  0.0000E+00  0.1600E+00
     35.981  0.0000E+00  0.1600E+00
