    1    1  100    1
  0.1386300E+02  0.2621157E-09  0.2621157E-09  0.2621157E-09  0.5000000E-15
  1.000000000000000E-004
  CAR 
 unknown system                          
      4     68      8
 
  0.4166667E-01  0.4166667E-01  0.4166667E-01  0.4629630E-02
    1       -4.011834   1.000000
    2       18.542326   0.000000
    3       19.513169   0.000000
    4       19.513169   0.000000
    5       22.845538   0.000000
    6       22.845538   0.000000
    7       24.824397   0.000000
    8       25.358942   0.000000
 
  0.1250000E+00  0.4166667E-01  0.4166667E-01  0.1388889E-01
    1       -3.377281   1.000000
    2       15.660209   0.000000
    3       17.387741   0.000000
    4       18.293424   0.000000
    5       22.213314   0.000000
    6       23.176982   0.000000
    7       25.357673   0.000000
    8       25.959699   0.000000
 
  0.2083333E+00  0.4166667E-01  0.4166667E-01  0.1388889E-01
    1       -2.324082   1.000000
    2       12.201051   0.000000
    3       16.074873   0.000000
    4       17.119318   0.000000
    5       21.429076   0.000000
    6       22.227508   0.000000
    7       26.666852   0.000000
    8       26.727512   0.000000
 
  0.2916667E+00  0.4166667E-01  0.4166667E-01  0.1388889E-01
    1       -0.858853   1.000000
    2        8.911019   1.000000
    3       15.157684   0.000000
    4       16.216337   0.000000
    5       20.720997   0.000000
    6       21.414250   0.000000
    7       27.760843   0.000000
    8       28.278395   0.000000
 
  0.3750000E+00  0.4166667E-01  0.4166667E-01  0.1388889E-01
    1        1.007206   1.000000
    2        5.925378   1.000000
    3       14.608438   0.000000
    4       15.658094   0.000000
    5       20.252715   0.000000
    6       20.896610   0.000000
    7       29.150444   0.000000
    8       29.863735   0.000000
 
  0.4583333E+00  0.4166667E-01  0.4166667E-01  0.6944444E-02
    1        3.070978   1.000000
    2        3.485771   1.000000
    3       14.425311   0.000000
    4       15.469131   0.000000
    5       20.090352   0.000000
    6       20.720167   0.000000
    7       30.160103   0.000000
    8       30.762079   0.000000
 
 -0.4166667E-01  0.4166667E-01  0.4166667E-01  0.3472222E-02
    1       -4.223774   1.000000
    2       20.126118   0.000000
    3       20.126118   0.000000
    4       20.752056   0.000000
    5       22.510941   0.000000
    6       23.181044   0.000000
    7       23.181044   0.000000
    8       24.796453   0.000000
 
  0.1250000E+00  0.1250000E+00  0.4166667E-01  0.1388889E-01
    1       -2.534275   1.000000
    2       13.988225   0.000000
    3       14.529594   0.000000
    4       16.568017   0.000000
    5       22.874655   0.000000
    6       23.929614   0.000000
    7       25.575633   0.000000
    8       26.761417   0.000000
 
  0.2083333E+00  0.1250000E+00  0.4166667E-01  0.2777778E-01
    1       -1.276259   1.000000
    2       10.851220   0.000000
    3       13.149897   0.000000
    4       15.475691   0.000000
    5       22.580700   0.000000
    6       23.902075   0.000000
    7       26.364335   0.000000
    8       28.383027   0.000000
 
  0.2916667E+00  0.1250000E+00  0.4166667E-01  0.2777778E-01
    1        0.388380   1.000000
    2        7.722227   1.000000
    3       12.375401   0.000000
    4       14.735290   0.000000
    5       22.057138   0.000000
    6       23.754255   0.000000
    7       27.407408   0.000000
    8       30.085585   0.000000
 
  0.3750000E+00  0.1250000E+00  0.4166667E-01  0.2777778E-01
    1        2.441706   1.000000
    2        4.922869   1.000000
    3       11.989259   0.000000
    4       14.360797   0.000000
    5       21.749829   0.000000
    6       23.596865   0.000000
    7       28.889349   0.000000
    8       30.360003   0.000000
 
 -0.1250000E+00  0.1250000E+00  0.4166667E-01  0.1388889E-01
    1       -3.800069   1.000000
    2       17.351868   0.000000
    3       18.488548   0.000000
    4       20.184352   0.000000
    5       21.606602   0.000000
    6       22.980033   0.000000
    7       24.163154   0.000000
    8       25.319396   0.000000
 
  0.2083333E+00  0.2083333E+00  0.4166667E-01  0.1388889E-01
    1        0.181510   1.000000
    2        9.714919   0.988111
    3       10.076711   0.000000
    4       14.546833   0.000000
    5       23.398258   0.000000
    6       24.403415   0.000000
    7       27.996785   0.000000
    8       28.773495   0.000000
 
  0.2916667E+00  0.2083333E+00  0.4166667E-01  0.2777778E-01
    1        2.038167   1.000000
    2        6.920854   1.000000
    3        9.318881   1.000000
    4       13.987673   0.000000
    5       23.401554   0.000000
    6       25.287858   0.000000
    7       28.226983   0.000000
    8       29.890748   0.000000
 
  0.3750000E+00  0.2083333E+00  0.4166667E-01  0.1388889E-01
    1        4.099443   1.000000
    2        4.491427   1.000000
    3        9.117201   1.000000
    4       13.800015   0.000000
    5       23.299834   0.000000
    6       25.921146   0.000000
    7       28.186905   0.000000
    8       29.727576   0.000000
 
 -0.2083333E+00  0.2083333E+00  0.4166667E-01  0.1388889E-01
    1       -2.955312   1.000000
    2       13.880660   0.000000
    3       17.067741   0.000000
    4       19.360382   0.000000
    5       20.315318   0.000000
    6       21.956465   0.000000
    7       24.661395   0.000000
    8       27.696494   0.000000
 
 -0.1250000E+00  0.2083333E+00  0.4166667E-01  0.1388889E-01
    1       -3.166155   1.000000
    2       15.590682   0.000000
    3       15.994055   0.000000
    4       19.279571   0.000000
    5       21.435363   0.000000
    6       21.987495   0.000000
    7       24.975746   0.000000
    8       26.087925   0.000000
 
  0.2916667E+00  0.2916667E+00  0.4166667E-01  0.1388889E-01
    1        4.069585   1.000000
    2        6.379931   1.000000
    3        6.696343   1.000000
    4       13.614986   0.000000
    5       24.584980   0.000000
    6       25.818215   0.000000
    7       27.509297   0.000000
    8       31.227682   0.000000
 
 -0.2916667E+00  0.2916667E+00  0.4166667E-01  0.1388889E-01
    1       -1.694748   1.000000
    2       10.472051   0.000000
    3       15.986497   0.000000
    4       18.495381   0.000000
    5       19.227274   0.000000
    6       21.149980   0.000000
    7       25.530303   0.000000
    8       28.958736   0.000000
 
 -0.2083333E+00  0.2916667E+00  0.4166667E-01  0.2777778E-01
    1       -2.113999   1.000000
    2       12.364679   0.000000
    3       14.522742   0.000000
    4       18.423649   0.000000
    5       20.525757   0.000000
    6       21.953664   0.000000
    7       25.038725   0.000000
    8       28.198768   0.000000
 
 -0.3750000E+00  0.3750000E+00  0.4166667E-01  0.1388889E-01
    1       -0.026905   1.000000
    2        7.324303   1.000000
    3       15.261747   0.000000
    4       17.846547   0.000000
    5       18.470582   0.000000
    6       20.547432   0.000000
    7       26.851253   0.000000
    8       30.202751   0.000000
 
 -0.2916667E+00  0.3750000E+00  0.4166667E-01  0.2777778E-01
    1       -0.650293   1.000000
    2        9.099759   1.000000
    3       13.576113   0.000000
    4       17.652591   0.000000
    5       19.644176   0.000000
    6       22.292871   0.000000
    7       25.156279   0.000000
    8       30.076463   0.000000
 
 -0.2083333E+00  0.3750000E+00  0.4166667E-01  0.1388889E-01
    1       -0.858511   1.000000
    2       11.054138   0.000000
    3       11.400974   0.000000
    4       17.701197   0.000000
    5       20.945746   0.000000
    6       21.475313   0.000000
    7       27.153341   0.000000
    8       27.958057   0.000000
 
 -0.4583333E+00  0.4583333E+00  0.4166667E-01  0.1388889E-01
    1        2.030049   1.000000
    2        4.518056   1.000000
    3       14.898810   0.000000
    4       17.507304   0.000000
    5       18.086168   0.000000
    6       20.227575   0.000000
    7       28.502284   0.000000
    8       30.137506   0.000000
 
 -0.3750000E+00  0.4583333E+00  0.4166667E-01  0.2777778E-01
    1        1.213845   1.000000
    2        6.123556   1.000000
    3       13.006513   0.000000
    4       17.153670   0.000000
    5       19.085092   0.000000
    6       22.350775   0.000000
    7       26.162610   0.000000
    8       29.622983   0.000000
 
 -0.2916667E+00  0.4583333E+00  0.4166667E-01  0.2777778E-01
    1        0.802518   1.000000
    2        8.105971   1.000000
    3       10.460933   0.000000
    4       17.091066   0.000000
    5       20.505633   0.000000
    6       22.450702   0.000000
    7       26.913420   0.000000
    8       29.005128   0.000000
 
 -0.4583333E+00 -0.4583333E+00  0.4166667E-01  0.1388889E-01
    1        3.278385   1.000000
    2        3.684951   1.000000
    3       12.816227   0.000000
    4       16.983427   0.000000
    5       18.895360   0.000000
    6       22.317354   0.000000
    7       27.592811   0.000000
    8       28.083147   0.000000
 
 -0.3750000E+00 -0.4583333E+00  0.4166667E-01  0.2777778E-01
    1        2.851291   1.000000
    2        5.322198   1.000000
    3       10.064779   0.000000
    4       16.762207   0.000000
    5       20.166421   0.000000
    6       23.748358   0.000000
    7       26.156746   0.000000
    8       28.416434   0.000000
 
 -0.2916667E+00 -0.4583333E+00  0.4166667E-01  0.1388889E-01
    1        2.652005   1.000000
    2        7.365757   1.000000
    3        7.677160   1.000000
    4       16.649173   0.000000
    5       21.702073   0.000000
    6       22.376633   0.000000
    7       26.181348   0.000000
    8       30.142978   0.000000
 
 -0.3750000E+00 -0.3750000E+00  0.4166667E-01  0.1388889E-01
    1        4.705691   1.000000
    2        5.086761   1.000000
    3        7.336500   1.000000
    4       16.489666   0.000000
    5       21.788046   0.000000
    6       23.646902   0.000000
    7       24.482421   0.000000
    8       30.880981   0.000000
 
  0.1250000E+00  0.1250000E+00  0.1250000E+00  0.4629630E-02
    1       -1.485396   1.000000
    2       12.523856   0.000000
    3       13.247364   0.000000
    4       13.247364   0.000000
    5       24.936473   0.000000
    6       24.936473   0.000000
    7       26.981636   0.000000
    8       26.981636   0.000000
 
  0.2083333E+00  0.1250000E+00  0.1250000E+00  0.1388889E-01
    1       -0.026004   1.000000
    2        9.682445   0.999262
    3       11.852895   0.000000
    4       12.296808   0.000000
    5       25.121716   0.000000
    6       25.453760   0.000000
    7       28.330314   0.000000
    8       28.410437   0.000000
 
  0.2916667E+00  0.1250000E+00  0.1250000E+00  0.1388889E-01
    1        1.832878   1.000000
    2        6.726852   1.000000
    3       11.257248   0.000000
    4       11.716470   0.000000
    5       25.040227   0.000000
    6       25.229616   0.000000
    7       29.736514   0.000000
    8       30.144037   0.000000
 
  0.3750000E+00  0.1250000E+00  0.1250000E+00  0.6944444E-02
    1        3.895213   1.000000
    2        4.292495   1.000000
    3       11.061797   0.000000
    4       11.521836   0.000000
    5       24.981972   0.000000
    6       25.119215   0.000000
    7       30.528484   0.000000
    8       31.094294   0.000000
 
 -0.1250000E+00  0.1250000E+00  0.1250000E+00  0.3472222E-02
    1       -3.377218   1.000000
    2       16.888954   0.000000
    3       16.888954   0.000000
    4       18.440578   0.000000
    5       20.839263   0.000000
    6       23.330041   0.000000
    7       24.813442   0.000000
    8       24.813442   0.000000
 
  0.2083333E+00  0.2083333E+00  0.1250000E+00  0.1388889E-01
    1        1.628349   1.000000
    2        8.732322   1.000000
    3        9.105649   1.000000
    4       11.323254   0.000000
    5       26.259899   0.000000
    6       27.101312   0.000000
    7       29.182463   0.000000
    8       29.672079   0.000000
 
  0.2916667E+00  0.2083333E+00  0.1250000E+00  0.2777778E-01
    1        3.668836   1.000000
    2        6.127142   1.000000
    3        8.537783   1.000000
    4       10.929923   0.000000
    5       26.570586   0.000000
    6       27.763049   0.000000
    7       30.002268   0.000000
    8       30.855686   0.000000
 
 -0.2083333E+00  0.2083333E+00  0.1250000E+00  0.1388889E-01
    1       -2.534123   1.000000
    2       14.131456   0.000000
    3       15.447551   0.000000
    4       17.711991   0.000000
    5       19.864189   0.000000
    6       22.631429   0.000000
    7       24.961751   0.000000
    8       27.117000   0.000000
 
  0.2916667E+00  0.2916667E+00  0.1250000E+00  0.4629630E-02
    1        5.562693   1.000000
    2        6.103146   1.000000
    3        6.103146   1.000000
    4       10.731066   0.000000
    5       27.411287   0.000000
    6       29.123383   0.000000
    7       29.123384   0.000000
    8       32.276943   0.000000
 
 -0.2916667E+00  0.2916667E+00  0.1250000E+00  0.1388889E-01
    1       -1.276067   1.000000
    2       10.829555   0.000000
    3       14.340937   0.000000
    4       16.873980   0.000000
    5       20.300296   0.000000
    6       21.622534   0.000000
    7       24.552093   0.000000
    8       29.871911   0.000000
 
 -0.2083333E+00  0.2916667E+00  0.1250000E+00  0.1388889E-01
    1       -1.485076   1.000000
    2       12.689149   0.000000
    3       12.958957   0.000000
    4       17.379797   0.000000
    5       18.864127   0.000000
    6       22.349433   0.000000
    7       26.643111   0.000000
    8       27.332620   0.000000
 
 -0.3750000E+00  0.3750000E+00  0.1250000E+00  0.1388889E-01
    1        0.388327   1.000000
    2        7.712502   1.000000
    3       13.596069   0.000000
    4       16.175658   0.000000
    5       20.897589   0.000000
    6       21.079359   0.000000
    7       24.474939   0.000000
    8       28.979592   0.000000
 
 -0.2916667E+00  0.3750000E+00  0.1250000E+00  0.2777778E-01
    1       -0.025930   1.000000
    2        9.654220   0.999965
    3       11.879991   0.000000
    4       16.955485   0.000000
    5       19.342632   0.000000
    6       21.674219   0.000000
    7       26.122826   0.000000
    8       28.353593   0.000000
 
 -0.4583333E+00  0.4583333E+00  0.1250000E+00  0.1388889E-01
    1        2.441104   1.000000
    2        4.918965   1.000000
    3       13.222594   0.000000
    4       15.808899   0.000000
    5       20.527739   0.000000
    6       21.536842   0.000000
    7       25.219269   0.000000
    8       27.209671   0.000000
 
 -0.3750000E+00  0.4583333E+00  0.1250000E+00  0.2777778E-01
    1        1.832042   1.000000
    2        6.714049   1.000000
    3       11.298793   0.000000
    4       16.479039   0.000000
    5       20.193410   0.000000
    6       21.667181   0.000000
    7       24.898075   0.000000
    8       27.575669   0.000000
 
 -0.2916667E+00  0.4583333E+00  0.1250000E+00  0.1388889E-01
    1        1.627509   1.000000
    2        8.732265   1.000000
    3        9.021160   1.000000
    4       17.634691   0.000000
    5       19.167987   0.000000
    6       21.212989   0.000000
    7       25.262458   0.000000
    8       29.311649   0.000000
 
 -0.4583333E+00 -0.4583333E+00  0.1250000E+00  0.1388889E-01
    1        3.897679   1.000000
    2        4.281146   1.000000
    3       11.105143   0.000000
    4       16.305817   0.000000
    5       20.346288   0.000000
    6       22.493295   0.000000
    7       23.759950   0.000000
    8       27.201036   0.000000
 
 -0.3750000E+00 -0.4583333E+00  0.1250000E+00  0.2777778E-01
    1        3.665972   1.000000
    2        6.113005   1.000000
    3        8.492039   1.000000
    4       17.654688   0.000000
    5       19.945871   0.000000
    6       21.416071   0.000000
    7       23.075269   0.000000
    8       29.988625   0.000000
 
 -0.3750000E+00 -0.3750000E+00  0.1250000E+00  0.4629630E-02
    1        5.578533   1.000000
    2        6.071866   1.000000
    3        6.071866   1.000000
    4       18.209867   0.000000
    5       20.866107   0.000000
    6       20.866107   0.000000
    7       21.550894   0.000000
    8       32.751438   0.000000
 
  0.2083333E+00  0.2083333E+00  0.2083333E+00  0.4629630E-02
    1        3.470183   1.000000
    2        8.001156   1.000000
    3        8.516346   1.000000
    4        8.516346   1.000000
    5       28.781032   0.000000
    6       28.781032   0.000000
    7       30.449185   0.000000
    8       30.449185   0.000000
 
  0.2916667E+00  0.2083333E+00  0.2083333E+00  0.6944444E-02
    1        5.503056   1.000000
    2        5.904727   1.000000
    3        8.009487   1.000000
    4        8.319152   1.000000
    5       29.304600   0.000000
    6       29.677585   0.000000
    7       30.975169   0.000000
    8       31.368013   0.000000
 
 -0.2083333E+00  0.2083333E+00  0.2083333E+00  0.3472222E-02
    1       -1.694303   1.000000
    2       13.986925   0.000000
    3       13.986925   0.000000
    4       15.895782   0.000000
    5       17.475096   0.000000
    6       24.974064   0.000000
    7       26.473525   0.000000
    8       26.473525   0.000000
 
 -0.2916667E+00  0.2916667E+00  0.2083333E+00  0.1388889E-01
    1       -0.441439   1.000000
    2       11.478084   0.000000
    3       12.866468   0.000000
    4       15.283240   0.000000
    5       17.090129   0.000000
    6       24.562609   0.000000
    7       26.101269   0.000000
    8       27.918948   0.000000
 
 -0.3750000E+00  0.3750000E+00  0.2083333E+00  0.1388889E-01
    1        1.215719   1.000000
    2        8.474511   1.000000
    3       12.113880   0.000000
    4       14.643220   0.000000
    5       18.235648   0.000000
    6       23.893469   0.000000
    7       24.298850   0.000000
    8       27.516313   0.000000
 
 -0.2916667E+00  0.3750000E+00  0.2083333E+00  0.1388889E-01
    1        1.009725   1.000000
    2       10.407811   0.000000
    3       10.628456   0.000000
    4       15.369148   0.000000
    5       16.415269   0.000000
    6       23.996658   0.000000
    7       25.115277   0.000000
    8       28.804923   0.000000
 
 -0.4583333E+00  0.4583333E+00  0.2083333E+00  0.1388889E-01
    1        3.259144   1.000000
    2        5.714853   1.000000
    3       11.736369   0.000000
    4       14.272359   0.000000
    5       19.812210   0.000000
    6       22.330165   0.000000
    7       23.539725   0.000000
    8       27.179459   0.000000
 
 -0.3750000E+00  0.4583333E+00  0.2083333E+00  0.2777778E-01
    1        2.856417   1.000000
    2        7.678511   1.000000
    3        9.943538   0.000013
    4       15.188529   0.000000
    5       17.525805   0.000000
    6       21.854911   0.000000
    7       24.381733   0.000000
    8       29.360260   0.000000
 
 -0.4583333E+00 -0.4583333E+00  0.2083333E+00  0.1388889E-01
    1        4.918746   1.000000
    2        5.268233   1.000000
    3        9.746728   0.913242
    4       15.029452   0.000000
    5       18.980419   0.000000
    6       20.087211   0.000000
    7       24.176225   0.000000
    8       29.378451   0.000000
 
 -0.3750000E+00 -0.4583333E+00  0.2083333E+00  0.1388889E-01
    1        4.873561   1.000000
    2        7.158842   1.000000
    3        7.425985   1.000000
    4       16.447927   0.000000
    5       17.572482   0.000000
    6       19.480541   0.000000
    7       24.158795   0.000000
    8       31.948345   0.000000
 
 -0.2916667E+00  0.2916667E+00  0.2916667E+00  0.3472222E-02
    1        0.803332   1.000000
    2       11.738453   0.000000
    3       11.738453   0.000000
    4       13.750930   0.000000
    5       14.919381   0.000000
    6       24.295062   0.000000
    7       27.402080   0.000000
    8       28.633457   0.000000
 
 -0.3750000E+00  0.3750000E+00  0.2916667E+00  0.1388889E-01
    1        2.448570   1.000000
    2        9.538947   1.000000
    3       10.980593   0.000000
    4       13.386169   0.000000
    5       15.074468   0.000000
    6       21.562800   0.000000
    7       27.242237   0.000000
    8       29.419761   0.000000
 
 -0.4583333E+00  0.4583333E+00  0.2916667E+00  0.1388889E-01
    1        4.474304   1.000000
    2        6.887561   1.000000
    3       10.600955   0.000000
    4       13.064647   0.000000
    5       16.707264   0.000000
    6       19.074848   0.000000
    7       26.917010   0.000000
    8       29.597644   0.000000
 
 -0.3750000E+00  0.4583333E+00  0.2916667E+00  0.1388889E-01
    1        4.275691   1.000000
    2        8.855618   1.000000
    3        9.059372   1.000000
    4       13.903493   0.000000
    5       14.760756   0.000000
    6       18.850582   0.000000
    7       27.612028   0.000000
    8       31.454433   0.000000
 
 -0.4583333E+00 -0.4583333E+00  0.2916667E+00  0.1388889E-01
    1        6.318371   1.000000
    2        6.627016   1.000000
    3        8.771501   1.000000
    4       14.013390   0.000000
    5       16.100856   0.000000
    6       16.766447   0.000000
    7       27.530432   0.000000
    8       32.041889   0.000000
 
 -0.3750000E+00  0.3750000E+00  0.3750000E+00  0.3472222E-02
    1        4.074354   1.000000
    2       10.220993   0.000000
    3       10.220993   0.000000
    4       12.225523   0.000000
    5       13.205593   0.000000
    6       18.650970   0.000000
    7       30.506300   0.000000
    8       31.289000   0.000000
 
 -0.4583333E+00  0.4583333E+00  0.3750000E+00  0.1388889E-01
    1        6.064878   1.000000
    2        8.365767   1.000000
    3        9.840271   0.099429
    4       12.182969   0.000000
    5       13.842715   0.000000
    6       16.059638   0.000000
    7       30.531740   0.000000
    8       32.158866   0.000000
 
 -0.4583333E+00 -0.4583333E+00  0.3750000E+00  0.4629630E-02
    1        7.949270   1.000000
    2        8.272120   1.000000
    3        8.272121   1.000000
    4       12.871365   0.000000
    5       13.931156   0.000000
    6       13.931156   0.000000
    7       31.030039   0.000000
    8       34.066771   0.000000
 
 -0.4583333E+00  0.4583333E+00  0.4583333E+00  0.3472222E-02
    1        7.956322   1.000000
    2        9.459043   1.000000
    3        9.459043   1.000000
    4       11.358171   0.000000
    5       12.345688   0.000000
    6       13.515229   0.000000
    7       33.714045   0.000000
    8       33.914837   0.000000
