 vasp.6.2.0 18Jan21 (build Aug 12 2022 13:00:08) complex                        
  
 executed on             LinuxIFC date 2024.11.03  21:51:57
 running on    4 total cores
 distrk:  each k-point on    4 cores,    1 groups
 distr:  one band on NCORE=   1 cores,    4 groups


--------------------------------------------------------------------------------------------------------


 INCAR:
   ISTART = 0            (Read existing wavefunction, if there)
   ISPIN = 1            (Non-Spin polarised DFT)
   LREAL = .FALSE.       (Projection operators: automatic)
   LWAVE = .FALSE.        (Write WAVECAR or not)
   LCHARG = .FALSE.        (Write CHGCAR or not)
   ADDGRID = .TRUE.        (Increase grid, helps GGA convergence)
   LASPH = .TRUE.        (Give more accurate total energies and band structure calculations)
   PREC = Accurate      (Accurate strictly avoids any aliasing or wrap around errors)
   ENCUT = 350          (Cut-off energy for plane wave basis set, in eV)
   ISMEAR = 0            (Gaussian smearing, metals:1)
   SIGMA = 0.05         (Smearing value in eV, metals:0.2)
   NELM = 90           (Max electronic SCF steps)
   NELMIN = 6            (Min electronic SCF steps)
   EDIFF = 1E-06        (SCF energy convergence, in eV)
   NSW = 100          (Max ionic steps)
   IBRION = 2            (Algorithm: 0-MD, 1-Quasi-New, 2-CG)
   ISIF = 3            (Stress/relaxation: 2-Ions, 3-Shape/Ions/V, 4-Shape/Ions)
   EDIFFG = -2E-03        (Ionic convergence, eV/AA)
   ISYM = 2              (Symmetry: 0\=none, 2\=GGA, 3\=hybrids)

 POTCAR:    PAW_PBE Si 05Jan2001                  
 POTCAR:    PAW_PBE Si 05Jan2001                  
   VRHFIN =Si: s2p2                                                                                 
   LEXCH  = PE                                                                                      
   EATOM  =   103.0669 eV,    7.5752 Ry                                                             
                                                                                                    
   TITEL  = PAW_PBE Si 05Jan2001                                                                    
   LULTRA =        F    use ultrasoft PP ?                                                          
   IUNSCR =        1    unscreen: 0-lin 1-nonlin 2-no                                               
   RPACOR =    1.500    partial core radius                                                         
   POMASS =   28.085; ZVAL   =    4.000    mass and valenz                                          
   RCORE  =    1.900    outmost cutoff radius                                                       
   RWIGS  =    2.480; RWIGS  =    1.312    wigner-seitz radius (au A)                               
   ENMAX  =  245.345; ENMIN  =  184.009 eV                                                          
   ICORE  =        2    local potential                                                             
   LCOR   =        T    correct aug charges                                                         
   LPAW   =        T    paw PP                                                                      
   EAUG   =  322.069                                                                                
   DEXC   =    0.000                                                                                
   RMAX   =    1.950    core radius for proj-oper                                                   
   RAUG   =    1.300    factor for augmentation sphere                                              
   RDEP   =    1.993    radius for radial grids                                                     
   RDEPT  =    1.837    core radius for aug-charge                                                  
                                                                                                    
   Atomic configuration                                                                             
    6 entries                                                                                       
     n  l   j            E        occ.                                                              
     1  0  0.50     -1785.8828   2.0000                                                             
     2  0  0.50      -139.4969   2.0000                                                             
     2  1  1.50       -95.5546   6.0000                                                             
     3  0  0.50       -10.8127   2.0000                                                             
     3  1  0.50        -4.0811   2.0000                                                             
     3  2  1.50        -4.0817   0.0000                                                             
   Description                                                                                      
     l       E           TYP  RCUT    TYP  RCUT                                                     
     0    -10.8127223     23  1.900                                                                 
     0     -7.6451159     23  1.900                                                                 
     1     -4.0811372     23  1.900                                                                 
     1      2.4879257     23  1.900                                                                 
     2     -4.0817478      7  1.900                                                                 
  local pseudopotential read in
  partial core-charges read in
  partial kinetic energy density read in
  atomic valenz-charges read in
  non local Contribution for L=           0  read in
    real space projection operators read in
  non local Contribution for L=           0  read in
    real space projection operators read in
  non local Contribution for L=           1  read in
    real space projection operators read in
  non local Contribution for L=           1  read in
    real space projection operators read in
    PAW grid and wavefunctions read in
 
   number of l-projection  operators is LMAX  =           4
   number of lm-projection operators is LMMAX =           8
 
  PAW_PBE Si 05Jan2001                  :
 energy of atom  1       EATOM= -103.0669
 kinetic energy error for atom=    0.0013 (will be added to EATOM!!)
 
 
 POSCAR: Si1
  positions in direct lattice
  No initial velocities read in
 exchange correlation table for  LEXCH =        8
   RHO(1)=    0.500       N(1)  =     2000
   RHO(2)=  100.500       N(2)  =     4000
 


--------------------------------------------------------------------------------------------------------


 ion  position               nearest neighbor table
   1  0.000  0.000  0.000-
 
  LATTYP: Found a body centered cubic cell.
 ALAT       =     3.0266512600
  
  Lattice vectors:
  
 A1 = (   1.5133256300,   1.5133256300,   1.5133256300)
 A2 = (   1.5133256300,  -1.5133256300,  -1.5133256300)
 A3 = (  -1.5133256300,   1.5133256300,  -1.5133256300)


Analysis of symmetry for initial positions (statically):
=====================================================================
 Subroutine PRICEL returns:
 Original cell was already a primitive cell.
 

 Routine SETGRP: Setting up the symmetry group for a 
 body centered cubic supercell.


 Subroutine GETGRP returns: Found 48 space group operations
 (whereof 48 operations were pure point group operations)
 out of a pool of 48 trial point group operations.


The static configuration has the point symmetry O_h .


Analysis of symmetry for dynamics (positions and initial velocities):
=====================================================================
 Subroutine PRICEL returns:
 Original cell was already a primitive cell.
 

 Routine SETGRP: Setting up the symmetry group for a 
 body centered cubic supercell.


 Subroutine GETGRP returns: Found 48 space group operations
 (whereof 48 operations were pure point group operations)
 out of a pool of 48 trial point group operations.


The dynamic configuration has the point symmetry O_h .


 Subroutine INISYM returns: Found 48 space group operations
 (whereof 48 operations are pure point group operations),
 and found     1 'primitive' translations


----------------------------------------------------------------------------------------

                                     Primitive cell                                     

  volume of cell :      13.8630

  direct lattice vectors                    reciprocal lattice vectors
     1.513325630  1.513325630  1.513325630     0.330398158  0.330398158  0.000000000
     1.513325630 -1.513325630 -1.513325630     0.330398158  0.000000000 -0.330398158
    -1.513325630  1.513325630 -1.513325630     0.000000000  0.330398158 -0.330398158

  length of vectors
     2.621156880  2.621156880  2.621156880     0.467253555  0.467253555  0.467253555

  position of ions in fractional coordinates (direct lattice)
     0.000000000  0.000000000  0.000000000

  ion indices of the primitive-cell ions
   primitive index   ion index
                 1           1

----------------------------------------------------------------------------------------

 
 
 KPOINTS: Automatic                               

Automatic generation of k-mesh.
 Grid dimensions read from file:
 generate k-points for:   12   12   12

 Generating k-lattice:

  Cartesian coordinates                     Fractional coordinates (reciprocal lattice)
     0.027533180  0.027533180  0.000000000     0.083333333  0.000000000  0.000000000
     0.027533180  0.000000000 -0.027533180     0.000000000  0.083333333  0.000000000
     0.000000000  0.027533180 -0.027533180     0.000000000  0.000000000  0.083333333

  Length of vectors
     0.038937796  0.038937796  0.038937796

  Shift w.r.t. Gamma in fractional coordinates (k-lattice)
     0.500000000  0.500000000  0.500000000

 
 Subroutine IBZKPT returns following result:
 ===========================================
 
 Found     68 irreducible k-points:
 
 Following reciprocal coordinates:
            Coordinates               Weight
  0.041667  0.041667  0.041667      8.000000
  0.125000  0.041667  0.041667     24.000000
  0.208333  0.041667  0.041667     24.000000
  0.291667  0.041667  0.041667     24.000000
  0.375000  0.041667  0.041667     24.000000
  0.458333  0.041667  0.041667     12.000000
 -0.041667  0.041667  0.041667      6.000000
  0.125000  0.125000  0.041667     24.000000
  0.208333  0.125000  0.041667     48.000000
  0.291667  0.125000  0.041667     48.000000
  0.375000  0.125000  0.041667     48.000000
 -0.125000  0.125000  0.041667     24.000000
  0.208333  0.208333  0.041667     24.000000
  0.291667  0.208333  0.041667     48.000000
  0.375000  0.208333  0.041667     24.000000
 -0.208333  0.208333  0.041667     24.000000
 -0.125000  0.208333  0.041667     24.000000
  0.291667  0.291667  0.041667     24.000000
 -0.291667  0.291667  0.041667     24.000000
 -0.208333  0.291667  0.041667     48.000000
 -0.375000  0.375000  0.041667     24.000000
 -0.291667  0.375000  0.041667     48.000000
 -0.208333  0.375000  0.041667     24.000000
 -0.458333  0.458333  0.041667     24.000000
 -0.375000  0.458333  0.041667     48.000000
 -0.291667  0.458333  0.041667     48.000000
 -0.458333 -0.458333  0.041667     24.000000
 -0.375000 -0.458333  0.041667     48.000000
 -0.291667 -0.458333  0.041667     24.000000
 -0.375000 -0.375000  0.041667     24.000000
  0.125000  0.125000  0.125000      8.000000
  0.208333  0.125000  0.125000     24.000000
  0.291667  0.125000  0.125000     24.000000
  0.375000  0.125000  0.125000     12.000000
 -0.125000  0.125000  0.125000      6.000000
  0.208333  0.208333  0.125000     24.000000
  0.291667  0.208333  0.125000     48.000000
 -0.208333  0.208333  0.125000     24.000000
  0.291667  0.291667  0.125000      8.000000
 -0.291667  0.291667  0.125000     24.000000
 -0.208333  0.291667  0.125000     24.000000
 -0.375000  0.375000  0.125000     24.000000
 -0.291667  0.375000  0.125000     48.000000
 -0.458333  0.458333  0.125000     24.000000
 -0.375000  0.458333  0.125000     48.000000
 -0.291667  0.458333  0.125000     24.000000
 -0.458333 -0.458333  0.125000     24.000000
 -0.375000 -0.458333  0.125000     48.000000
 -0.375000 -0.375000  0.125000      8.000000
  0.208333  0.208333  0.208333      8.000000
  0.291667  0.208333  0.208333     12.000000
 -0.208333  0.208333  0.208333      6.000000
 -0.291667  0.291667  0.208333     24.000000
 -0.375000  0.375000  0.208333     24.000000
 -0.291667  0.375000  0.208333     24.000000
 -0.458333  0.458333  0.208333     24.000000
 -0.375000  0.458333  0.208333     48.000000
 -0.458333 -0.458333  0.208333     24.000000
 -0.375000 -0.458333  0.208333     24.000000
 -0.291667  0.291667  0.291667      6.000000
 -0.375000  0.375000  0.291667     24.000000
 -0.458333  0.458333  0.291667     24.000000
 -0.375000  0.458333  0.291667     24.000000
 -0.458333 -0.458333  0.291667     24.000000
 -0.375000  0.375000  0.375000      6.000000
 -0.458333  0.458333  0.375000     24.000000
 -0.458333 -0.458333  0.375000      8.000000
 -0.458333  0.458333  0.458333      6.000000
 
 Following cartesian coordinates:
            Coordinates               Weight
  0.027533  0.027533 -0.027533      8.000000
  0.055066  0.055066 -0.027533     24.000000
  0.082600  0.082600 -0.027533     24.000000
  0.110133  0.110133 -0.027533     24.000000
  0.137666  0.137666 -0.027533     24.000000
  0.165199  0.165199 -0.027533     12.000000
  0.000000  0.000000 -0.027533      6.000000
  0.082600  0.055066 -0.055066     24.000000
  0.110133  0.082600 -0.055066     48.000000
  0.137666  0.110133 -0.055066     48.000000
  0.165199  0.137666 -0.055066     48.000000
  0.000000 -0.027533 -0.055066     24.000000
  0.137666  0.082600 -0.082600     24.000000
  0.165199  0.110133 -0.082600     48.000000
  0.192732  0.137666 -0.082600     24.000000
  0.000000 -0.055066 -0.082600     24.000000
  0.027533 -0.027533 -0.082600     24.000000
  0.192732  0.110133 -0.110133     24.000000
  0.000000 -0.082600 -0.110133     24.000000
  0.027533 -0.055066 -0.110133     48.000000
  0.000000 -0.110133 -0.137666     24.000000
  0.027533 -0.082600 -0.137666     48.000000
  0.055066 -0.055066 -0.137666     24.000000
  0.000000 -0.137666 -0.165199     24.000000
  0.027533 -0.110133 -0.165199     48.000000
  0.055066 -0.082600 -0.165199     48.000000
 -0.302865 -0.137666  0.137666     24.000000
 -0.275332 -0.110133  0.137666     48.000000
 -0.247799 -0.082600  0.137666     24.000000
 -0.247799 -0.110133  0.110133     24.000000
  0.082600  0.082600 -0.082600      8.000000
  0.110133  0.110133 -0.082600     24.000000
  0.137666  0.137666 -0.082600     24.000000
  0.165199  0.165199 -0.082600     12.000000
  0.000000  0.000000 -0.082600      6.000000
  0.137666  0.110133 -0.110133     24.000000
  0.165199  0.137666 -0.110133     48.000000
  0.000000 -0.027533 -0.110133     24.000000
  0.192732  0.137666 -0.137666      8.000000
  0.000000 -0.055066 -0.137666     24.000000
  0.027533 -0.027533 -0.137666     24.000000
  0.000000 -0.082600 -0.165199     24.000000
  0.027533 -0.055066 -0.165199     48.000000
  0.000000 -0.110133 -0.192732     24.000000
  0.027533 -0.082600 -0.192732     48.000000
  0.055066 -0.055066 -0.192732     24.000000
 -0.302865 -0.110133  0.110133     24.000000
 -0.275332 -0.082600  0.110133     48.000000
 -0.247799 -0.082600  0.082600      8.000000
  0.137666  0.137666 -0.137666      8.000000
  0.165199  0.165199 -0.137666     12.000000
  0.000000  0.000000 -0.137666      6.000000
  0.000000 -0.027533 -0.165199     24.000000
  0.000000 -0.055066 -0.192732     24.000000
  0.027533 -0.027533 -0.192732     24.000000
  0.000000 -0.082600 -0.220265     24.000000
  0.027533 -0.055066 -0.220265     48.000000
 -0.302865 -0.082600  0.082600     24.000000
 -0.275332 -0.055066  0.082600     24.000000
  0.000000  0.000000 -0.192732      6.000000
  0.000000 -0.027533 -0.220265     24.000000
  0.000000 -0.055066 -0.247799     24.000000
  0.027533 -0.027533 -0.247799     24.000000
 -0.302865 -0.055066  0.055066     24.000000
  0.000000  0.000000 -0.247799      6.000000
  0.000000 -0.027533 -0.275332     24.000000
 -0.302865 -0.027533  0.027533      8.000000
  0.000000  0.000000 -0.302865      6.000000
 


--------------------------------------------------------------------------------------------------------




 Dimension of arrays:
   k-points           NKPTS =     68   k-points in BZ     NKDIM =     68   number of bands    NBANDS=      8
   number of dos      NEDOS =    301   number of ions     NIONS =      1
   non local maximal  LDIM  =      4   non local SUM 2l+1 LMDIM =      8
   total plane-waves  NPLWV =   4096
   max r-space proj   IRMAX =      1   max aug-charges    IRDMAX=  79220
   dimension x,y,z NGX =    16 NGY =   16 NGZ =   16
   dimension x,y,z NGXF=    32 NGYF=   32 NGZF=   32
   support grid    NGXF=    64 NGYF=   64 NGZF=   64
   ions per type =               1
   NGX,Y,Z   is equivalent  to a cutoff of  10.15, 10.15, 10.15 a.u.
   NGXF,Y,Z  is equivalent  to a cutoff of  20.30, 20.30, 20.30 a.u.

 SYSTEM =  unknown system                          
 POSCAR =  Si1                                     

 Startparameter for this run:
   NWRITE =      2    write-flag & timer
   PREC   = accura    normal or accurate (medium, high low for compatibility)
   ISTART =      0    job   : 0-new  1-cont  2-samecut
   ICHARG =      2    charge: 1-file 2-atom 10-const
   ISPIN  =      1    spin polarized calculation?
   LNONCOLLINEAR =      F non collinear calculations
   LSORBIT =      F    spin-orbit coupling
   INIWAV =      1    electr: 0-lowe 1-rand  2-diag
   LASPH  =      T    aspherical Exc in radial PAW
   METAGGA=      F    non-selfconsistent MetaGGA calc.

 Electronic Relaxation 1
   ENCUT  =  350.0 eV  25.72 Ry    5.07 a.u.   4.00  4.00  4.00*2*pi/ulx,y,z
   ENINI  =  350.0     initial cutoff
   ENAUG  =  322.1 eV  augmentation charge cutoff
   NELM   =     90;   NELMIN=  6; NELMDL= -5     # of ELM steps 
   EDIFF  = 0.1E-05   stopping-criterion for ELM
   LREAL  =      F    real-space projection
   NLSPLINE    = F    spline interpolate recip. space projectors
   LCOMPAT=      F    compatible to vasp.4.4
   GGA_COMPAT  = T    GGA compatible to vasp.4.4-vasp.4.6
   LMAXPAW     = -100 max onsite density
   LMAXMIX     =    2 max onsite mixed and CHGCAR
   VOSKOWN=      0    Vosko Wilk Nusair interpolation
   ROPT   =    0.00000
 Ionic relaxation
   EDIFFG = -.2E-02   stopping-criterion for IOM
   NSW    =    100    number of steps for IOM
   NBLOCK =      1;   KBLOCK =    100    inner block; outer block 
   IBRION =      2    ionic relax: 0-MD 1-quasi-New 2-CG
   NFREE  =      1    steps in history (QN), initial steepest desc. (CG)
   ISIF   =      3    stress and relaxation
   IWAVPR =     11    prediction:  0-non 1-charg 2-wave 3-comb
   ISYM   =      2    0-nonsym 1-usesym 2-fastsym
   LCORR  =      T    Harris-Foulkes like correction to forces

   POTIM  = 0.5000    time-step for ionic-motion
   TEIN   =    0.0    initial temperature
   TEBEG  =    0.0;   TEEND  =   0.0 temperature during run
   SMASS  =  -3.00    Nose mass-parameter (am)
   estimated Nose-frequenzy (Omega)   =  0.10E-29 period in steps = 0.13E+47 mass=  -0.157E-27a.u.
   SCALEE = 1.0000    scale energy and forces
   NPACO  =    256;   APACO  = 16.0  distance and # of slots for P.C.
   PSTRESS=    0.0 pullay stress

  Mass of Ions in am
   POMASS =  28.09
  Ionic Valenz
   ZVAL   =   4.00
  Atomic Wigner-Seitz radii
   RWIGS  =  -1.00
  virtual crystal weights 
   VCA    =   1.00
   NELECT =       4.0000    total number of electrons
   NUPDOWN=      -1.0000    fix difference up-down

 DOS related values:
   EMIN   =  10.00;   EMAX   =-10.00  energy-range for DOS
   EFERMI =   0.00
   ISMEAR =     0;   SIGMA  =   0.05  broadening in eV -4-tet -1-fermi 0-gaus

 Electronic relaxation 2 (details)
   IALGO  =     38    algorithm
   LDIAG  =      T    sub-space diagonalisation (order eigenvalues)
   LSUBROT=      F    optimize rotation matrix (better conditioning)
   TURBO    =      0    0=normal 1=particle mesh
   IRESTART =      0    0=no restart 2=restart with 2 vectors
   NREBOOT  =      0    no. of reboots
   NMIN     =      0    reboot dimension
   EREF     =   0.00    reference energy to select bands
   IMIX   =      4    mixing-type and parameters
     AMIX     =   0.40;   BMIX     =  1.00
     AMIX_MAG =   1.60;   BMIX_MAG =  1.00
     AMIN     =   0.10
     WC   =   100.;   INIMIX=   1;  MIXPRE=   1;  MAXMIX= -45

 Intra band minimization:
   WEIMIN = 0.0010     energy-eigenvalue tresh-hold
   EBREAK =  0.31E-07  absolut break condition
   DEPER  =   0.30     relativ break condition  

   TIME   =   0.40     timestep for ELM

  volume/ion in A,a.u.               =      13.86        93.55
  Fermi-wavevector in a.u.,A,eV,Ry     =   1.081789  2.044284 15.922447  1.170267
  Thomas-Fermi vector in A             =   2.217814
 
 Write flags
   LWAVE        =      F    write WAVECAR
   LDOWNSAMPLE  =      F    k-point downsampling of WAVECAR
   LCHARG       =      F    write CHGCAR
   LVTOT        =      F    write LOCPOT, total local potential
   LVHAR        =      F    write LOCPOT, Hartree potential only
   LELF         =      F    write electronic localiz. function (ELF)
   LORBIT       =      0    0 simple, 1 ext, 2 COOP (PROOUT), +10 PAW based schemes


 Dipole corrections
   LMONO  =      F    monopole corrections only (constant potential shift)
   LDIPOL =      F    correct potential (dipole corrections)
   IDIPOL =      0    1-x, 2-y, 3-z, 4-all directions 
   EPSILON=  1.0000000 bulk dielectric constant

 Exchange correlation treatment:
   GGA     =    --    GGA type
   LEXCH   =     8    internal setting for exchange type
   VOSKOWN=      0    Vosko Wilk Nusair interpolation
   LHFCALC =     F    Hartree Fock is set to
   LHFONE  =     F    Hartree Fock one center treatment
   AEXX    =    0.0000 exact exchange contribution

 Linear response parameters
   LEPSILON=     F    determine dielectric tensor
   LRPA    =     F    only Hartree local field effects (RPA)
   LNABLA  =     F    use nabla operator in PAW spheres
   LVEL    =     F    velocity operator in full k-point grid
   LINTERFAST=   F  fast interpolation
   KINTER  =     0    interpolate to denser k-point grid
   CSHIFT  =0.1000    complex shift for real part using Kramers Kronig
   OMEGAMAX=  -1.0    maximum frequency
   DEG_THRESHOLD= 0.2000000E-02 threshold for treating states as degnerate
   RTIME   =   -0.100 relaxation time in fs
  (WPLASMAI=    0.000 imaginary part of plasma frequency in eV, 0.658/RTIME)
   DFIELD  = 0.0000000 0.0000000 0.0000000 field for delta impulse in time
 
 Orbital magnetization related:
   ORBITALMAG=     F  switch on orbital magnetization
   LCHIMAG   =     F  perturbation theory with respect to B field
   DQ        =  0.001000  dq finite difference perturbation B field
   LLRAUG    =     F  two centre corrections for induced B field



--------------------------------------------------------------------------------------------------------


 conjugate gradient relaxation of ions
 charge density and potential will be updated during run
 non-spin polarized calculation
 Variant of blocked Davidson
 Davidson routine will perform the subspace rotation
 perform sub-space diagonalisation
    after iterative eigenvector-optimisation
 modified Broyden-mixing scheme, WC =      100.0
 initial mixing is a Kerker type mixing with AMIX =  0.4000 and BMIX =      1.0000
 Hartree-type preconditioning will be used
 using additional bands            6
 reciprocal scheme for non local part
 use partial core corrections
 calculate Harris-corrections to forces 
   (improved forces if not selfconsistent)
 use gradient corrections 
 use of overlap-Matrix (Vanderbilt PP)
 Gauss-broadening in eV      SIGMA  =   0.05


--------------------------------------------------------------------------------------------------------


  energy-cutoff  :      350.00
  volume of cell :       13.86
      direct lattice vectors                 reciprocal lattice vectors
     1.513325630  1.513325630  1.513325630     0.330398158  0.330398158  0.000000000
     1.513325630 -1.513325630 -1.513325630     0.330398158  0.000000000 -0.330398158
    -1.513325630  1.513325630 -1.513325630     0.000000000  0.330398158 -0.330398158

  length of vectors
     2.621156880  2.621156880  2.621156880     0.467253555  0.467253555  0.467253555


 
 k-points in units of 2pi/SCALE and weight: Automatic                               
   0.02753318  0.02753318 -0.02753318       0.005
   0.05506636  0.05506636 -0.02753318       0.014
   0.08259954  0.08259954 -0.02753318       0.014
   0.11013272  0.11013272 -0.02753318       0.014
   0.13766590  0.13766590 -0.02753318       0.014
   0.16519908  0.16519908 -0.02753318       0.007
   0.00000000  0.00000000 -0.02753318       0.003
   0.08259954  0.05506636 -0.05506636       0.014
   0.11013272  0.08259954 -0.05506636       0.028
   0.13766590  0.11013272 -0.05506636       0.028
   0.16519908  0.13766590 -0.05506636       0.028
   0.00000000 -0.02753318 -0.05506636       0.014
   0.13766590  0.08259954 -0.08259954       0.014
   0.16519908  0.11013272 -0.08259954       0.028
   0.19273226  0.13766590 -0.08259954       0.014
   0.00000000 -0.05506636 -0.08259954       0.014
   0.02753318 -0.02753318 -0.08259954       0.014
   0.19273226  0.11013272 -0.11013272       0.014
   0.00000000 -0.08259954 -0.11013272       0.014
   0.02753318 -0.05506636 -0.11013272       0.028
   0.00000000 -0.11013272 -0.13766590       0.014
   0.02753318 -0.08259954 -0.13766590       0.028
   0.05506636 -0.05506636 -0.13766590       0.014
   0.00000000 -0.13766590 -0.16519908       0.014
   0.02753318 -0.11013272 -0.16519908       0.028
   0.05506636 -0.08259954 -0.16519908       0.028
  -0.30286498 -0.13766590  0.13766590       0.014
  -0.27533180 -0.11013272  0.13766590       0.028
  -0.24779862 -0.08259954  0.13766590       0.014
  -0.24779862 -0.11013272  0.11013272       0.014
   0.08259954  0.08259954 -0.08259954       0.005
   0.11013272  0.11013272 -0.08259954       0.014
   0.13766590  0.13766590 -0.08259954       0.014
   0.16519908  0.16519908 -0.08259954       0.007
   0.00000000  0.00000000 -0.08259954       0.003
   0.13766590  0.11013272 -0.11013272       0.014
   0.16519908  0.13766590 -0.11013272       0.028
   0.00000000 -0.02753318 -0.11013272       0.014
   0.19273226  0.13766590 -0.13766590       0.005
   0.00000000 -0.05506636 -0.13766590       0.014
   0.02753318 -0.02753318 -0.13766590       0.014
   0.00000000 -0.08259954 -0.16519908       0.014
   0.02753318 -0.05506636 -0.16519908       0.028
   0.00000000 -0.11013272 -0.19273226       0.014
   0.02753318 -0.08259954 -0.19273226       0.028
   0.05506636 -0.05506636 -0.19273226       0.014
  -0.30286498 -0.11013272  0.11013272       0.014
  -0.27533180 -0.08259954  0.11013272       0.028
  -0.24779862 -0.08259954  0.08259954       0.005
   0.13766590  0.13766590 -0.13766590       0.005
   0.16519908  0.16519908 -0.13766590       0.007
   0.00000000  0.00000000 -0.13766590       0.003
   0.00000000 -0.02753318 -0.16519908       0.014
   0.00000000 -0.05506636 -0.19273226       0.014
   0.02753318 -0.02753318 -0.19273226       0.014
   0.00000000 -0.08259954 -0.22026544       0.014
   0.02753318 -0.05506636 -0.22026544       0.028
  -0.30286498 -0.08259954  0.08259954       0.014
  -0.27533180 -0.05506636  0.08259954       0.014
   0.00000000  0.00000000 -0.19273226       0.003
   0.00000000 -0.02753318 -0.22026544       0.014
   0.00000000 -0.05506636 -0.24779862       0.014
   0.02753318 -0.02753318 -0.24779862       0.014
  -0.30286498 -0.05506636  0.05506636       0.014
   0.00000000  0.00000000 -0.24779862       0.003
   0.00000000 -0.02753318 -0.27533180       0.014
  -0.30286498 -0.02753318  0.02753318       0.005
   0.00000000  0.00000000 -0.30286498       0.003
 
 k-points in reciprocal lattice and weights: Automatic                               
   0.04166667  0.04166667  0.04166667       0.005
   0.12500000  0.04166667  0.04166667       0.014
   0.20833333  0.04166667  0.04166667       0.014
   0.29166667  0.04166667  0.04166667       0.014
   0.37500000  0.04166667  0.04166667       0.014
   0.45833333  0.04166667  0.04166667       0.007
  -0.04166667  0.04166667  0.04166667       0.003
   0.12500000  0.12500000  0.04166667       0.014
   0.20833333  0.12500000  0.04166667       0.028
   0.29166667  0.12500000  0.04166667       0.028
   0.37500000  0.12500000  0.04166667       0.028
  -0.12500000  0.12500000  0.04166667       0.014
   0.20833333  0.20833333  0.04166667       0.014
   0.29166667  0.20833333  0.04166667       0.028
   0.37500000  0.20833333  0.04166667       0.014
  -0.20833333  0.20833333  0.04166667       0.014
  -0.12500000  0.20833333  0.04166667       0.014
   0.29166667  0.29166667  0.04166667       0.014
  -0.29166667  0.29166667  0.04166667       0.014
  -0.20833333  0.29166667  0.04166667       0.028
  -0.37500000  0.37500000  0.04166667       0.014
  -0.29166667  0.37500000  0.04166667       0.028
  -0.20833333  0.37500000  0.04166667       0.014
  -0.45833333  0.45833333  0.04166667       0.014
  -0.37500000  0.45833333  0.04166667       0.028
  -0.29166667  0.45833333  0.04166667       0.028
  -0.45833333 -0.45833333  0.04166667       0.014
  -0.37500000 -0.45833333  0.04166667       0.028
  -0.29166667 -0.45833333  0.04166667       0.014
  -0.37500000 -0.37500000  0.04166667       0.014
   0.12500000  0.12500000  0.12500000       0.005
   0.20833333  0.12500000  0.12500000       0.014
   0.29166667  0.12500000  0.12500000       0.014
   0.37500000  0.12500000  0.12500000       0.007
  -0.12500000  0.12500000  0.12500000       0.003
   0.20833333  0.20833333  0.12500000       0.014
   0.29166667  0.20833333  0.12500000       0.028
  -0.20833333  0.20833333  0.12500000       0.014
   0.29166667  0.29166667  0.12500000       0.005
  -0.29166667  0.29166667  0.12500000       0.014
  -0.20833333  0.29166667  0.12500000       0.014
  -0.37500000  0.37500000  0.12500000       0.014
  -0.29166667  0.37500000  0.12500000       0.028
  -0.45833333  0.45833333  0.12500000       0.014
  -0.37500000  0.45833333  0.12500000       0.028
  -0.29166667  0.45833333  0.12500000       0.014
  -0.45833333 -0.45833333  0.12500000       0.014
  -0.37500000 -0.45833333  0.12500000       0.028
  -0.37500000 -0.37500000  0.12500000       0.005
   0.20833333  0.20833333  0.20833333       0.005
   0.29166667  0.20833333  0.20833333       0.007
  -0.20833333  0.20833333  0.20833333       0.003
  -0.29166667  0.29166667  0.20833333       0.014
  -0.37500000  0.37500000  0.20833333       0.014
  -0.29166667  0.37500000  0.20833333       0.014
  -0.45833333  0.45833333  0.20833333       0.014
  -0.37500000  0.45833333  0.20833333       0.028
  -0.45833333 -0.45833333  0.20833333       0.014
  -0.37500000 -0.45833333  0.20833333       0.014
  -0.29166667  0.29166667  0.29166667       0.003
  -0.37500000  0.37500000  0.29166667       0.014
  -0.45833333  0.45833333  0.29166667       0.014
  -0.37500000  0.45833333  0.29166667       0.014
  -0.45833333 -0.45833333  0.29166667       0.014
  -0.37500000  0.37500000  0.37500000       0.003
  -0.45833333  0.45833333  0.37500000       0.014
  -0.45833333 -0.45833333  0.37500000       0.005
  -0.45833333  0.45833333  0.45833333       0.003
 
 position of ions in fractional coordinates (direct lattice) 
   0.00000000  0.00000000  0.00000000
 
 position of ions in cartesian coordinates  (Angst):
   0.00000000  0.00000000  0.00000000
 


--------------------------------------------------------------------------------------------------------


 k-point   1 :   0.0417 0.0417 0.0417  plane waves:     204
 k-point   2 :   0.1250 0.0417 0.0417  plane waves:     203
 k-point   3 :   0.2083 0.0417 0.0417  plane waves:     203
 k-point   4 :   0.2917 0.0417 0.0417  plane waves:     199
 k-point   5 :   0.3750 0.0417 0.0417  plane waves:     199
 k-point   6 :   0.4583 0.0417 0.0417  plane waves:     200
 k-point   7 :  -0.0417 0.0417 0.0417  plane waves:     201
 k-point   8 :   0.1250 0.1250 0.0417  plane waves:     206
 k-point   9 :   0.2083 0.1250 0.0417  plane waves:     203
 k-point  10 :   0.2917 0.1250 0.0417  plane waves:     204
 k-point  11 :   0.3750 0.1250 0.0417  plane waves:     206
 k-point  12 :  -0.1250 0.1250 0.0417  plane waves:     203
 k-point  13 :   0.2083 0.2083 0.0417  plane waves:     205
 k-point  14 :   0.2917 0.2083 0.0417  plane waves:     208
 k-point  15 :   0.3750 0.2083 0.0417  plane waves:     210
 k-point  16 :  -0.2083 0.2083 0.0417  plane waves:     202
 k-point  17 :  -0.1250 0.2083 0.0417  plane waves:     204
 k-point  18 :   0.2917 0.2917 0.0417  plane waves:     209
 k-point  19 :  -0.2917 0.2917 0.0417  plane waves:     201
 k-point  20 :  -0.2083 0.2917 0.0417  plane waves:     206
 k-point  21 :  -0.3750 0.3750 0.0417  plane waves:     203
 k-point  22 :  -0.2917 0.3750 0.0417  plane waves:     204
 k-point  23 :  -0.2083 0.3750 0.0417  plane waves:     202
 k-point  24 :  -0.4583 0.4583 0.0417  plane waves:     200
 k-point  25 :  -0.3750 0.4583 0.0417  plane waves:     204
 k-point  26 :  -0.2917 0.4583 0.0417  plane waves:     206
 k-point  27 :  -0.4583-0.4583 0.0417  plane waves:     204
 k-point  28 :  -0.3750-0.4583 0.0417  plane waves:     207
 k-point  29 :  -0.2917-0.4583 0.0417  plane waves:     208
 k-point  30 :  -0.3750-0.3750 0.0417  plane waves:     211
 k-point  31 :   0.1250 0.1250 0.1250  plane waves:     210
 k-point  32 :   0.2083 0.1250 0.1250  plane waves:     202
 k-point  33 :   0.2917 0.1250 0.1250  plane waves:     202
 k-point  34 :   0.3750 0.1250 0.1250  plane waves:     206
 k-point  35 :  -0.1250 0.1250 0.1250  plane waves:     209
 k-point  36 :   0.2083 0.2083 0.1250  plane waves:     202
 k-point  37 :   0.2917 0.2083 0.1250  plane waves:     205
 k-point  38 :  -0.2083 0.2083 0.1250  plane waves:     208
 k-point  39 :   0.2917 0.2917 0.1250  plane waves:     204
 k-point  40 :  -0.2917 0.2917 0.1250  plane waves:     203
 k-point  41 :  -0.2083 0.2917 0.1250  plane waves:     206
 k-point  42 :  -0.3750 0.3750 0.1250  plane waves:     212
 k-point  43 :  -0.2917 0.3750 0.1250  plane waves:     207
 k-point  44 :  -0.4583 0.4583 0.1250  plane waves:     209
 k-point  45 :  -0.3750 0.4583 0.1250  plane waves:     209
 k-point  46 :  -0.2917 0.4583 0.1250  plane waves:     212
 k-point  47 :  -0.4583-0.4583 0.1250  plane waves:     210
 k-point  48 :  -0.3750-0.4583 0.1250  plane waves:     209
 k-point  49 :  -0.3750-0.3750 0.1250  plane waves:     206
 k-point  50 :   0.2083 0.2083 0.2083  plane waves:     204
 k-point  51 :   0.2917 0.2083 0.2083  plane waves:     210
 k-point  52 :  -0.2083 0.2083 0.2083  plane waves:     205
 k-point  53 :  -0.2917 0.2917 0.2083  plane waves:     207
 k-point  54 :  -0.3750 0.3750 0.2083  plane waves:     208
 k-point  55 :  -0.2917 0.3750 0.2083  plane waves:     207
 k-point  56 :  -0.4583 0.4583 0.2083  plane waves:     208
 k-point  57 :  -0.3750 0.4583 0.2083  plane waves:     211
 k-point  58 :  -0.4583-0.4583 0.2083  plane waves:     210
 k-point  59 :  -0.3750-0.4583 0.2083  plane waves:     213
 k-point  60 :  -0.2917 0.2917 0.2917  plane waves:     205
 k-point  61 :  -0.3750 0.3750 0.2917  plane waves:     212
 k-point  62 :  -0.4583 0.4583 0.2917  plane waves:     212
 k-point  63 :  -0.3750 0.4583 0.2917  plane waves:     216
 k-point  64 :  -0.4583-0.4583 0.2917  plane waves:     212
 k-point  65 :  -0.3750 0.3750 0.3750  plane waves:     212
 k-point  66 :  -0.4583 0.4583 0.3750  plane waves:     216
 k-point  67 :  -0.4583-0.4583 0.3750  plane waves:     218
 k-point  68 :  -0.4583 0.4583 0.4583  plane waves:     220

 maximum and minimum number of plane-waves per node :       220      199

 maximum number of plane-waves:       220
 maximum index in each direction: 
   IXMAX=    4   IYMAX=    4   IZMAX=    3
   IXMIN=   -4   IYMIN=   -4   IZMIN=   -4


 serial   3D FFT for wavefunctions
 parallel 3D FFT for charge:
    minimum data exchange during FFTs selected (reduces bandwidth)


 total amount of memory used by VASP MPI-rank0    33282. kBytes
=======================================================================

   base      :      30000. kBytes
   nonl-proj :        960. kBytes
   fftplans  :       1246. kBytes
   grid      :        577. kBytes
   one-center:          3. kBytes
   wavefun   :        496. kBytes
 
     INWAV:  cpu time    0.0000: real time    0.0009
 Broyden mixing: mesh for mixing (old mesh)
   NGX =  7   NGY =  7   NGZ =  7
  (NGX  = 32   NGY  = 32   NGZ  = 32)
  gives a total of    343 points

 initial charge density was supplied:
 charge density of overlapping atoms calculated
 number of electron       4.0000000 magnetization 
 keeping initial charge density in first step


--------------------------------------------------------------------------------------------------------


 Maximum index for augmentation-charges        19203 (set IRDMAX)


--------------------------------------------------------------------------------------------------------


 First call to EWALD:  gamma=   0.738
 Maximum number of real-space cells 3x 3x 3
 Maximum number of reciprocal cells 3x 3x 3

    FEWALD:  cpu time    0.0030: real time    0.0035


--------------------------------------- Iteration      1(   1)  ---------------------------------------


    POTLOK:  cpu time    0.0100: real time    0.0130
    SETDIJ:  cpu time    0.1620: real time    0.1625
     EDDAV:  cpu time    0.2010: real time    0.2006
       DOS:  cpu time    0.0000: real time    0.0014
    --------------------------------------------
      LOOP:  cpu time    0.3739: real time    0.3778

 eigenvalue-minimisations  :  1200
 total energy-change (2. order) :-0.3322727E+01  (-0.1498187E+03)
 number of electron       4.0000000 magnetization 
 augmentation part        4.0000000 magnetization 

 Free energy of the ion-electron system (eV)
  ---------------------------------------------------
  alpha Z        PSCENC =         2.42827211
  Ewald energy   TEWEN  =      -138.51397499
  -Hartree energ DENC   =        -0.48179554
  -exchange      EXHF   =         0.00000000
  -V(xc)+E(xc)   XCENC  =        -8.69332224
  PAW double counting   =        88.12379961      -70.53051779
  entropy T*S    EENTRO =        -0.00075076
  eigenvalues    EBANDS =        21.27993553
  atomic energy  EATOM  =       103.06562707
  Solvation  Ediel_sol  =         0.00000000
  ---------------------------------------------------
  free energy    TOTEN  =        -3.32272699 eV

  energy without entropy =       -3.32197624  energy(sigma->0) =       -3.32235161


--------------------------------------------------------------------------------------------------------




--------------------------------------- Iteration      1(   2)  ---------------------------------------


     EDDAV:  cpu time    0.2910: real time    0.3006
       DOS:  cpu time    0.0000: real time    0.0014
    --------------------------------------------
      LOOP:  cpu time    0.2910: real time    0.3020

 eigenvalue-minimisations  :  1664
 total energy-change (2. order) :-0.1581756E+01  (-0.1531312E+01)
 number of electron       4.0000000 magnetization 
 augmentation part        4.0000000 magnetization 

 Free energy of the ion-electron system (eV)
  ---------------------------------------------------
  alpha Z        PSCENC =         2.42827211
  Ewald energy   TEWEN  =      -138.51397499
  -Hartree energ DENC   =        -0.48179554
  -exchange      EXHF   =         0.00000000
  -V(xc)+E(xc)   XCENC  =        -8.69332224
  PAW double counting   =        88.12379961      -70.53051779
  entropy T*S    EENTRO =        -0.00081792
  eigenvalues    EBANDS =        19.69824717
  atomic energy  EATOM  =       103.06562707
  Solvation  Ediel_sol  =         0.00000000
  ---------------------------------------------------
  free energy    TOTEN  =        -4.90448252 eV

  energy without entropy =       -4.90366460  energy(sigma->0) =       -4.90407356


--------------------------------------------------------------------------------------------------------




--------------------------------------- Iteration      1(   3)  ---------------------------------------


     EDDAV:  cpu time    0.2050: real time    0.2159
       DOS:  cpu time    0.0010: real time    0.0014
    --------------------------------------------
      LOOP:  cpu time    0.2060: real time    0.2173

 eigenvalue-minimisations  :  1224
 total energy-change (2. order) :-0.6670412E-02  (-0.6618441E-02)
 number of electron       4.0000000 magnetization 
 augmentation part        4.0000000 magnetization 

 Free energy of the ion-electron system (eV)
  ---------------------------------------------------
  alpha Z        PSCENC =         2.42827211
  Ewald energy   TEWEN  =      -138.51397499
  -Hartree energ DENC   =        -0.48179554
  -exchange      EXHF   =         0.00000000
  -V(xc)+E(xc)   XCENC  =        -8.69332224
  PAW double counting   =        88.12379961      -70.53051779
  entropy T*S    EENTRO =        -0.00081141
  eigenvalues    EBANDS =        19.69157025
  atomic energy  EATOM  =       103.06562707
  Solvation  Ediel_sol  =         0.00000000
  ---------------------------------------------------
  free energy    TOTEN  =        -4.91115293 eV

  energy without entropy =       -4.91034152  energy(sigma->0) =       -4.91074722


--------------------------------------------------------------------------------------------------------




--------------------------------------- Iteration      1(   4)  ---------------------------------------


     EDDAV:  cpu time    0.2910: real time    0.2974
       DOS:  cpu time    0.0010: real time    0.0013
    --------------------------------------------
      LOOP:  cpu time    0.2910: real time    0.2987

 eigenvalue-minimisations  :  1688
 total energy-change (2. order) :-0.4631137E-05  (-0.4631114E-05)
 number of electron       4.0000000 magnetization 
 augmentation part        4.0000000 magnetization 

 Free energy of the ion-electron system (eV)
  ---------------------------------------------------
  alpha Z        PSCENC =         2.42827211
  Ewald energy   TEWEN  =      -138.51397499
  -Hartree energ DENC   =        -0.48179554
  -exchange      EXHF   =         0.00000000
  -V(xc)+E(xc)   XCENC  =        -8.69332224
  PAW double counting   =        88.12379961      -70.53051779
  entropy T*S    EENTRO =        -0.00081138
  eigenvalues    EBANDS =        19.69156559
  atomic energy  EATOM  =       103.06562707
  Solvation  Ediel_sol  =         0.00000000
  ---------------------------------------------------
  free energy    TOTEN  =        -4.91115756 eV

  energy without entropy =       -4.91034618  energy(sigma->0) =       -4.91075187


--------------------------------------------------------------------------------------------------------




--------------------------------------- Iteration      1(   5)  ---------------------------------------


     EDDAV:  cpu time    0.2060: real time    0.2125
       DOS:  cpu time    0.0010: real time    0.0013
    CHARGE:  cpu time    0.0140: real time    0.0137
    MIXING:  cpu time    0.0000: real time    0.0007
    --------------------------------------------
      LOOP:  cpu time    0.2220: real time    0.2282

 eigenvalue-minimisations  :  1240
 total energy-change (2. order) :-0.1111061E-08  (-0.3159422E-09)
 number of electron       4.0000000 magnetization 
 augmentation part       -0.2404456 magnetization 

 Broyden mixing:
  rms(total) = 0.28633E+00    rms(broyden)= 0.28632E+00
  rms(prec ) = 0.41295E+00
  weight for this iteration     100.00

 Free energy of the ion-electron system (eV)
  ---------------------------------------------------
  alpha Z        PSCENC =         2.42827211
  Ewald energy   TEWEN  =      -138.51397499
  -Hartree energ DENC   =        -0.48179554
  -exchange      EXHF   =         0.00000000
  -V(xc)+E(xc)   XCENC  =        -8.69332224
  PAW double counting   =        88.12379961      -70.53051779
  entropy T*S    EENTRO =        -0.00081138
  eigenvalues    EBANDS =        19.69156559
  atomic energy  EATOM  =       103.06562707
  Solvation  Ediel_sol  =         0.00000000
  ---------------------------------------------------
  free energy    TOTEN  =        -4.91115756 eV

  energy without entropy =       -4.91034618  energy(sigma->0) =       -4.91075187


--------------------------------------------------------------------------------------------------------




--------------------------------------- Iteration      1(   6)  ---------------------------------------


    POTLOK:  cpu time    0.0110: real time    0.0210
    SETDIJ:  cpu time    0.1630: real time    0.1627
     EDDAV:  cpu time    0.1870: real time    0.1881
       DOS:  cpu time    0.0010: real time    0.0012
    CHARGE:  cpu time    0.0130: real time    0.0123
    MIXING:  cpu time    0.0010: real time    0.0007
    --------------------------------------------
      LOOP:  cpu time    0.3749: real time    0.3859

 eigenvalue-minimisations  :  1136
 total energy-change (2. order) : 0.1140186E-01  (-0.3585490E-03)
 number of electron       4.0000000 magnetization 
 augmentation part       -0.2423983 magnetization 

 Broyden mixing:
  rms(total) = 0.15913E+00    rms(broyden)= 0.15913E+00
  rms(prec ) = 0.23895E+00
  weight for this iteration     100.00

 eigenvalues of (default mixing * dielectric matrix)
  average eigenvalue GAMMA=   2.2410
  2.2410

 Free energy of the ion-electron system (eV)
  ---------------------------------------------------
  alpha Z        PSCENC =         2.42827211
  Ewald energy   TEWEN  =      -138.51397499
  -Hartree energ DENC   =        -0.41860408
  -exchange      EXHF   =         0.00000000
  -V(xc)+E(xc)   XCENC  =        -8.66816734
  PAW double counting   =       176.84502451     -159.25864893
  entropy T*S    EENTRO =        -0.00080446
  eigenvalues    EBANDS =        19.62152040
  atomic energy  EATOM  =       103.06562707
  Solvation  Ediel_sol  =         0.00000000
  ---------------------------------------------------
  free energy    TOTEN  =        -4.89975570 eV

  energy without entropy =       -4.89895125  energy(sigma->0) =       -4.89935347


--------------------------------------------------------------------------------------------------------




--------------------------------------- Iteration      1(   7)  ---------------------------------------


    POTLOK:  cpu time    0.0100: real time    0.0237
    SETDIJ:  cpu time    0.1620: real time    0.1620
     EDDAV:  cpu time    0.1900: real time    0.1903
       DOS:  cpu time    0.0010: real time    0.0013
    CHARGE:  cpu time    0.0120: real time    0.0122
    MIXING:  cpu time    0.0010: real time    0.0007
    --------------------------------------------
      LOOP:  cpu time    0.3759: real time    0.3904

 eigenvalue-minimisations  :  1152
 total energy-change (2. order) : 0.6519559E-02  (-0.7163366E-03)
 number of electron       4.0000000 magnetization 
 augmentation part       -0.2452336 magnetization 

 Broyden mixing:
  rms(total) = 0.13356E-01    rms(broyden)= 0.13356E-01
  rms(prec ) = 0.17988E-01
  weight for this iteration     100.00

 eigenvalues of (default mixing * dielectric matrix)
  average eigenvalue GAMMA=   2.4482
  2.4482  2.4482

 Free energy of the ion-electron system (eV)
  ---------------------------------------------------
  alpha Z        PSCENC =         2.42827211
  Ewald energy   TEWEN  =      -138.51397499
  -Hartree energ DENC   =        -0.35430641
  -exchange      EXHF   =         0.00000000
  -V(xc)+E(xc)   XCENC  =        -8.62853792
  PAW double counting   =       351.25887161     -333.68623343
  entropy T*S    EENTRO =        -0.00080179
  eigenvalues    EBANDS =        19.53784761
  atomic energy  EATOM  =       103.06562707
  Solvation  Ediel_sol  =         0.00000000
  ---------------------------------------------------
  free energy    TOTEN  =        -4.89323614 eV

  energy without entropy =       -4.89243436  energy(sigma->0) =       -4.89283525


--------------------------------------------------------------------------------------------------------




--------------------------------------- Iteration      1(   8)  ---------------------------------------


    POTLOK:  cpu time    0.0100: real time    0.0174
    SETDIJ:  cpu time    0.1620: real time    0.1619
     EDDAV:  cpu time    0.2830: real time    0.2836
       DOS:  cpu time    0.0010: real time    0.0014
    CHARGE:  cpu time    0.0140: real time    0.0145
    MIXING:  cpu time    0.0010: real time    0.0007
    --------------------------------------------
      LOOP:  cpu time    0.4719: real time    0.4795

 eigenvalue-minimisations  :  1624
 total energy-change (2. order) : 0.2128189E-04  (-0.3215409E-05)
 number of electron       4.0000000 magnetization 
 augmentation part       -0.2453174 magnetization 

 Broyden mixing:
  rms(total) = 0.11392E-02    rms(broyden)= 0.11391E-02
  rms(prec ) = 0.19311E-02
  weight for this iteration     100.00

 eigenvalues of (default mixing * dielectric matrix)
  average eigenvalue GAMMA=   2.0187
  0.9790  2.4077  2.6692

 Free energy of the ion-electron system (eV)
  ---------------------------------------------------
  alpha Z        PSCENC =         2.42827211
  Ewald energy   TEWEN  =      -138.51397499
  -Hartree energ DENC   =        -0.35605337
  -exchange      EXHF   =         0.00000000
  -V(xc)+E(xc)   XCENC  =        -8.62389603
  PAW double counting   =       336.60958132     -319.04359260
  entropy T*S    EENTRO =        -0.00080180
  eigenvalues    EBANDS =        19.54162343
  atomic energy  EATOM  =       103.06562707
  Solvation  Ediel_sol  =         0.00000000
  ---------------------------------------------------
  free energy    TOTEN  =        -4.89321486 eV

  energy without entropy =       -4.89241306  energy(sigma->0) =       -4.89281396


--------------------------------------------------------------------------------------------------------




--------------------------------------- Iteration      1(   9)  ---------------------------------------


    POTLOK:  cpu time    0.0120: real time    0.0216
    SETDIJ:  cpu time    0.1620: real time    0.1629
     EDDAV:  cpu time    0.1950: real time    0.1952
       DOS:  cpu time    0.0010: real time    0.0014
    --------------------------------------------
      LOOP:  cpu time    0.3699: real time    0.3812

 eigenvalue-minimisations  :  1168
 total energy-change (2. order) :-0.5767565E-06  (-0.3903487E-07)
 number of electron       4.0000000 magnetization 
 augmentation part       -0.2453174 magnetization 

 Free energy of the ion-electron system (eV)
  ---------------------------------------------------
  alpha Z        PSCENC =         2.42827211
  Ewald energy   TEWEN  =      -138.51397499
  -Hartree energ DENC   =        -0.35614173
  -exchange      EXHF   =         0.00000000
  -V(xc)+E(xc)   XCENC  =        -8.62334597
  PAW double counting   =       335.31787912     -317.75241333
  entropy T*S    EENTRO =        -0.00080180
  eigenvalues    EBANDS =        19.54168409
  atomic energy  EATOM  =       103.06562707
  Solvation  Ediel_sol  =         0.00000000
  ---------------------------------------------------
  free energy    TOTEN  =        -4.89321544 eV

  energy without entropy =       -4.89241363  energy(sigma->0) =       -4.89281454


--------------------------------------------------------------------------------------------------------




 average (electrostatic) potential at core
  the test charge radii are     0.9892
  (the norm of the test charge is              1.0000)
       1 -79.2858
 
 
 
 E-fermi :  10.6017     XC(G=0): -11.3699     alpha+bet :-17.3011

 Fermi energy:        10.6017286824

 k-point     1 :       0.0417    0.0417    0.0417
  band No.  band energies     occupation 
      1      -3.7679      2.00000
      2      19.7952      0.00000
      3      20.6741      0.00000
      4      20.6741      0.00000
      5      24.1386      0.00000
      6      24.1386      0.00000
      7      26.1229      0.00000
      8      26.4869      0.00000

 k-point     2 :       0.1250    0.0417    0.0417
  band No.  band energies     occupation 
      1      -3.1081      2.00000
      2      16.7062      0.00000
      3      18.5128      0.00000
      4      19.3267      0.00000
      5      23.4808      0.00000
      6      24.4806      0.00000
      7      26.5378      0.00000
      8      27.1647      0.00000

 k-point     3 :       0.2083    0.0417    0.0417
  band No.  band energies     occupation 
      1      -2.0130      2.00000
      2      13.0771      0.00000
      3      17.1806      0.00000
      4      18.0684      0.00000
      5      22.6287      0.00000
      6      23.4735      0.00000
      7      27.9424      0.00000
      8      28.0067      0.00000

 k-point     4 :       0.2917    0.0417    0.0417
  band No.  band energies     occupation 
      1      -0.4896      2.00000
      2       9.6507      2.00000
      3      16.2410      0.00000
      4      17.1118      0.00000
      5      21.8671      0.00000
      6      22.6367      0.00000
      7      29.0913      0.00000
      8      29.6391      0.00000

 k-point     5 :       0.3750    0.0417    0.0417
  band No.  band energies     occupation 
      1       1.4522      2.00000
      2       6.5449      2.00000
      3      15.6771      0.00000
      4      16.5232      0.00000
      5      21.3676      0.00000
      6      22.1058      0.00000
      7      30.5156      0.00000
      8      31.3157      0.00000

 k-point     6 :       0.4583    0.0417    0.0417
  band No.  band energies     occupation 
      1       3.7084      2.00000
      2       3.8984      2.00000
      3      15.4890      0.00000
      4      16.3244      0.00000
      5      21.1953      0.00000
      6      21.9248      0.00000
      7      31.5131      0.00000
      8      32.2776      0.00000

 k-point     7 :      -0.0417    0.0417    0.0417
  band No.  band energies     occupation 
      1      -3.9884      2.00000
      2      21.3907      0.00000
      3      21.3907      0.00000
      4      22.2437      0.00000
      5      23.5306      0.00000
      6      24.4390      0.00000
      7      24.4390      0.00000
      8      25.8765      0.00000

 k-point     8 :       0.1250    0.1250    0.0417
  band No.  band energies     occupation 
      1      -2.2316      2.00000
      2      15.0486      0.00000
      3      15.3869      0.00000
      4      17.5659      0.00000
      5      24.2153      0.00000
      6      25.2137      0.00000
      7      26.8327      0.00000
      8      27.9976      0.00000

 k-point     9 :       0.2083    0.1250    0.0417
  band No.  band energies     occupation 
      1      -0.9236      2.00000
      2      11.6791      0.00000
      3      14.0505      0.00000
      4      16.4333      0.00000
      5      23.8586      0.00000
      6      25.2015      0.00000
      7      27.6380      0.00000
      8      29.7253      0.00000

 k-point    10 :       0.2917    0.1250    0.0417
  band No.  band energies     occupation 
      1       0.8075      2.00000
      2       8.4164      2.00000
      3      13.2558      0.00000
      4      15.6642      0.00000
      5      23.2829      0.00000
      6      25.0593      0.00000
      7      28.7206      0.00000
      8      31.5093      0.00000

 k-point    11 :       0.3750    0.1250    0.0417
  band No.  band energies     occupation 
      1       2.9494      2.00000
      2       5.4979      2.00000
      3      12.8570      0.00000
      4      15.2754      0.00000
      5      22.9548      0.00000
      6      24.8914      0.00000
      7      30.2533      0.00000
      8      31.8213      0.00000

 k-point    12 :      -0.1250    0.1250    0.0417
  band No.  band energies     occupation 
      1      -3.5477      2.00000
      2      18.4606      0.00000
      3      19.6521      0.00000
      4      21.5860      0.00000
      5      22.6197      0.00000
      6      24.1303      0.00000
      7      25.3731      0.00000
      8      26.6538      0.00000

 k-point    13 :       0.2083    0.2083    0.0417
  band No.  band energies     occupation 
      1       0.5921      2.00000
      2      10.6002      1.03556
      3      10.7415      0.00008
      4      15.4816      0.00000
      5      24.7715      0.00000
      6      25.6082      0.00000
      7      29.4251      0.00000
      8      30.1146      0.00000

 k-point    14 :       0.2917    0.2083    0.0417
  band No.  band energies     occupation 
      1       2.5243      2.00000
      2       7.5871      2.00000
      3      10.0604      2.00000
      4      14.9037      0.00000
      5      24.7138      0.00000
      6      26.5976      0.00000
      7      29.5793      0.00000
      8      31.3563      0.00000

 k-point    15 :       0.3750    0.2083    0.0417
  band No.  band energies     occupation 
      1       4.7841      2.00000
      2       4.9410      2.00000
      3       9.8550      2.00000
      4      14.7094      0.00000
      5      24.5912      0.00000
      6      27.3020      0.00000
      7      29.4849      0.00000
      8      31.2088      0.00000

 k-point    16 :      -0.2083    0.2083    0.0417
  band No.  band energies     occupation 
      1      -2.6694      2.00000
      2      14.8253      0.00000
      3      18.1746      0.00000
      4      20.6421      0.00000
      5      21.2794      0.00000
      6      23.1554      0.00000
      7      25.8725      0.00000
      8      29.0094      0.00000

 k-point    17 :      -0.1250    0.2083    0.0417
  band No.  band energies     occupation 
      1      -2.8886      2.00000
      2      16.6753      0.00000
      3      16.9501      0.00000
      4      20.5828      0.00000
      5      22.5371      0.00000
      6      23.0257      0.00000
      7      26.3284      0.00000
      8      27.3752      0.00000

 k-point    18 :       0.2917    0.2917    0.0417
  band No.  band energies     occupation 
      1       4.6485      2.00000
      2       7.1171      2.00000
      3       7.2288      2.00000
      4      14.5198      0.00000
      5      26.0406      0.00000
      6      27.0454      0.00000
      7      28.8175      0.00000
      8      32.7841      0.00000

 k-point    19 :      -0.2917    0.2917    0.0417
  band No.  band energies     occupation 
      1      -1.3587      2.00000
      2      11.2736      0.00000
      3      17.0540      0.00000
      4      19.6909      0.00000
      5      20.1506      0.00000
      6      22.3592      0.00000
      7      26.7827      0.00000
      8      30.3355      0.00000

 k-point    20 :      -0.2083    0.2917    0.0417
  band No.  band energies     occupation 
      1      -1.7947      2.00000
      2      13.2497      0.00000
      3      15.4755      0.00000
      4      19.6245      0.00000
      5      21.5886      0.00000
      6      23.0993      0.00000
      7      26.3298      0.00000
      8      29.5752      0.00000

 k-point    21 :      -0.3750    0.3750    0.0417
  band No.  band energies     occupation 
      1       0.3757      2.00000
      2       8.0001      2.00000
      3      16.3034      0.00000
      4      18.9936      0.00000
      5      19.3665      0.00000
      6      21.7466      0.00000
      7      28.1621      0.00000
      8      31.6326      0.00000

 k-point    22 :      -0.2917    0.3750    0.0417
  band No.  band energies     occupation 
      1      -0.2729      2.00000
      2       9.8474      2.00000
      3      14.4975      0.00000
      4      18.7915      0.00000
      5      20.6724      0.00000
      6      23.5220      0.00000
      7      26.4094      0.00000
      8      31.5082      0.00000

 k-point    23 :      -0.2083    0.3750    0.0417
  band No.  band energies     occupation 
      1      -0.4895      2.00000
      2      11.9784      0.00000
      3      12.1290      0.00000
      4      18.8323      0.00000
      5      22.1568      0.00000
      6      22.5160      0.00000
      7      28.5762      0.00000
      8      29.2852      0.00000

 k-point    24 :      -0.4583    0.4583    0.0417
  band No.  band energies     occupation 
      1       2.5215      2.00000
      2       5.0760      2.00000
      3      15.9276      0.00000
      4      18.6323      0.00000
      5      18.9684      0.00000
      6      21.4183      0.00000
      7      29.8654      0.00000
      8      31.5828      0.00000

 k-point    25 :      -0.3750    0.4583    0.0417
  band No.  band energies     occupation 
      1       1.6668      2.00000
      2       6.7512      2.00000
      3      13.9074      0.00000
      4      18.2616      0.00000
      5      20.0929      0.00000
      6      23.6039      0.00000
      7      27.4400      0.00000
      8      31.0530      0.00000

 k-point    26 :      -0.2917    0.4583    0.0417
  band No.  band energies     occupation 
      1       1.2378      2.00000
      2       8.8187      2.00000
      3      11.2466      0.00000
      4      18.1791      0.00000
      5      21.6328      0.00000
      6      23.6321      0.00000
      7      28.2465      0.00000
      8      30.4416      0.00000

 k-point    27 :      -0.4583   -0.4583    0.0417
  band No.  band energies     occupation 
      1       3.9241      2.00000
      2       4.1054      2.00000
      3      13.7102      0.00000
      4      18.0819      0.00000
      5      19.8962      0.00000
      6      23.5710      0.00000
      7      28.8582      0.00000
      8      29.5289      0.00000

 k-point    28 :      -0.3750   -0.4583    0.0417
  band No.  band energies     occupation 
      1       3.3747      2.00000
      2       5.9142      2.00000
      3      10.8398      0.00000
      4      17.8310      0.00000
      5      21.2722      0.00000
      6      25.0361      0.00000
      7      27.4001      0.00000
      8      29.8513      0.00000

 k-point    29 :      -0.2917   -0.4583    0.0417
  band No.  band energies     occupation 
      1       3.1630      2.00000
      2       8.1491      2.00000
      3       8.2508      2.00000
      4      17.7067      0.00000
      5      22.9979      0.00000
      6      23.4526      0.00000
      7      27.4634      0.00000
      8      31.6570      0.00000

 k-point    30 :      -0.3750   -0.3750    0.0417
  band No.  band energies     occupation 
      1       5.4212      2.00000
      2       5.5600      2.00000
      3       7.9940      2.00000
      4      17.5378      0.00000
      5      23.0208      0.00000
      6      24.9120      0.00000
      7      25.6349      0.00000
      8      32.4098      0.00000

 k-point    31 :       0.1250    0.1250    0.1250
  band No.  band energies     occupation 
      1      -1.1411      2.00000
      2      13.6060      0.00000
      3      14.0372      0.00000
      4      14.0372      0.00000
      5      26.3941      0.00000
      6      26.3941      0.00000
      7      28.1794      0.00000
      8      28.1794      0.00000

 k-point    32 :       0.2083    0.1250    0.1250
  band No.  band energies     occupation 
      1       0.3763      2.00000
      2      10.4708      1.99979
      3      12.7793      0.00000
      4      13.0415      0.00000
      5      26.5313      0.00000
      6      26.8564      0.00000
      7      29.6614      0.00000
      8      29.7018      0.00000

 k-point    33 :       0.2917    0.1250    0.1250
  band No.  band energies     occupation 
      1       2.3108      2.00000
      2       7.3823      2.00000
      3      12.1816      0.00000
      4      12.4351      0.00000
      5      26.4012      0.00000
      6      26.5978      0.00000
      7      31.0937      0.00000
      8      31.6012      0.00000

 k-point    34 :       0.3750    0.1250    0.1250
  band No.  band energies     occupation 
      1       4.5705      2.00000
      2       4.7342      2.00000
      3      11.9826      0.00000
      4      12.2320      0.00000
      5      26.3263      0.00000
      6      26.4805      0.00000
      7      31.9052      0.00000
      8      32.6283      0.00000

 k-point    35 :      -0.1250    0.1250    0.1250
  band No.  band energies     occupation 
      1      -3.1081      2.00000
      2      17.9401      0.00000
      3      17.9401      0.00000
      4      19.8272      0.00000
      5      21.7493      0.00000
      6      24.3851      0.00000
      7      26.1797      0.00000
      8      26.1797      0.00000

 k-point    36 :       0.2083    0.2083    0.1250
  band No.  band energies     occupation 
      1       2.0971      2.00000
      2       9.5918      2.00000
      3       9.7280      2.00000
      4      12.1199      0.00000
      5      27.7454      0.00000
      6      28.5077      0.00000
      7      30.5866      0.00000
      8      31.0191      0.00000

 k-point    37 :       0.2917    0.2083    0.1250
  band No.  band energies     occupation 
      1       4.2271      2.00000
      2       6.7581      2.00000
      3       9.2515      2.00000
      4      11.7175      0.00000
      5      28.0318      0.00000
      6      29.1949      0.00000
      7      31.3821      0.00000
      8      32.3685      0.00000

 k-point    38 :      -0.2083    0.2083    0.1250
  band No.  band energies     occupation 
      1      -2.2315      2.00000
      2      15.0834      0.00000
      3      16.4349      0.00000
      4      18.9727      0.00000
      5      20.8251      0.00000
      6      23.7259      0.00000
      7      26.3020      0.00000
      8      28.4981      0.00000

 k-point    39 :       0.2917    0.2917    0.1250
  band No.  band energies     occupation 
      1       6.4229      2.00000
      2       6.6115      2.00000
      3       6.6115      2.00000
      4      11.5163      0.00000
      5      28.9813      0.00000
      6      30.4924      0.00000
      7      30.4924      0.00000
      8      33.9042      0.00000

 k-point    40 :      -0.2917    0.2917    0.1250
  band No.  band energies     occupation 
      1      -0.9236      2.00000
      2      11.6457      0.00000
      3      15.2849      0.00000
      4      17.9995      0.00000
      5      21.4071      0.00000
      6      22.6937      0.00000
      7      25.8412      0.00000
      8      31.3027      0.00000

 k-point    41 :      -0.2083    0.2917    0.1250
  band No.  band energies     occupation 
      1      -1.1410      2.00000
      2      13.6465      0.00000
      3      13.7800      0.00000
      4      18.6595      0.00000
      5      19.7558      0.00000
      6      23.4635      0.00000
      7      28.0575      0.00000
      8      28.6555      0.00000

 k-point    42 :      -0.3750    0.3750    0.1250
  band No.  band energies     occupation 
      1       0.8071      2.00000
      2       8.4039      2.00000
      3      14.5122      0.00000
      4      17.2435      0.00000
      5      21.9468      0.00000
      6      22.2878      0.00000
      7      25.7175      0.00000
      8      30.3963      0.00000

 k-point    43 :      -0.2917    0.3750    0.1250
  band No.  band energies     occupation 
      1       0.3759      2.00000
      2      10.4264      2.00000
      3      12.7218      0.00000
      4      18.1100      0.00000
      5      20.3769      0.00000
      6      22.7713      0.00000
      7      27.4437      0.00000
      8      29.7717      0.00000

 k-point    44 :      -0.4583    0.4583    0.1250
  band No.  band energies     occupation 
      1       2.9480      2.00000
      2       5.4934      2.00000
      3      14.1250      0.00000
      4      16.8532      0.00000
      5      21.5651      0.00000
      6      22.8037      0.00000
      7      26.4330      0.00000
      8      28.5921      0.00000

 k-point    45 :      -0.3750    0.4583    0.1250
  band No.  band energies     occupation 
      1       2.3088      2.00000
      2       7.3660      2.00000
      3      12.1214      0.00000
      4      17.5730      0.00000
      5      21.3067      0.00000
      6      22.7852      0.00000
      7      26.1354      0.00000
      8      28.9844      0.00000

 k-point    46 :      -0.2917    0.4583    0.1250
  band No.  band energies     occupation 
      1       2.0952      2.00000
      2       9.5624      2.00000
      3       9.6561      2.00000
      4      18.9143      0.00000
      5      20.1019      0.00000
      6      22.3027      0.00000
      7      26.5240      0.00000
      8      30.7976      0.00000

 k-point    47 :      -0.4583   -0.4583    0.1250
  band No.  band energies     occupation 
      1       4.5678      2.00000
      2       4.7251      2.00000
      3      11.9209      0.00000
      4      17.3847      0.00000
      5      21.4515      0.00000
      6      23.7372      0.00000
      7      24.8783      0.00000
      8      28.6021      0.00000

 k-point    48 :      -0.3750   -0.4583    0.1250
  band No.  band energies     occupation 
      1       4.2211      2.00000
      2       6.7404      2.00000
      3       9.1997      2.00000
      4      18.8762      0.00000
      5      20.9791      0.00000
      6      22.5169      0.00000
      7      24.2511      0.00000
      8      31.4812      0.00000

 k-point    49 :      -0.3750   -0.3750    0.1250
  band No.  band energies     occupation 
      1       6.4199      2.00000
      2       6.5858      2.00000
      3       6.5858      2.00000
      4      19.5248      0.00000
      5      21.8722      0.00000
      6      21.8722      0.00000
      7      22.7379      0.00000
      8      34.3310      0.00000

 k-point    50 :       0.2083    0.2083    0.2083
  band No.  band energies     occupation 
      1       4.0163      2.00000
      2       8.9207      2.00000
      3       9.1140      2.00000
      4       9.1140      2.00000
      5      30.3487      0.00000
      6      30.3487      0.00000
      7      31.8334      0.00000
      8      31.8334      0.00000

 k-point    51 :       0.2917    0.2083    0.2083
  band No.  band energies     occupation 
      1       6.2712      2.00000
      2       6.4051      2.00000
      3       8.7839      2.00000
      4       8.9087      2.00000
      5      30.9046      0.00000
      6      31.1765      0.00000
      7      32.3800      0.00000
      8      32.9243      0.00000

 k-point    52 :      -0.2083    0.2083    0.2083
  band No.  band energies     occupation 
      1      -1.3586      2.00000
      2      14.9079      0.00000
      3      14.9079      0.00000
      4      17.1951      0.00000
      5      18.2485      0.00000
      6      26.0971      0.00000
      7      27.8843      0.00000
      8      27.8843      0.00000

 k-point    53 :      -0.2917    0.2917    0.2083
  band No.  band energies     occupation 
      1      -0.0563      2.00000
      2      12.3183      0.00000
      3      13.7433      0.00000
      4      16.4098      0.00000
      5      17.9849      0.00000
      6      25.7429      0.00000
      7      27.4403      0.00000
      8      29.3310      0.00000

 k-point    54 :      -0.3750    0.3750    0.2083
  band No.  band energies     occupation 
      1       1.6665      2.00000
      2       9.1966      2.00000
      3      12.9626      0.00000
      4      15.6571      0.00000
      5      19.2754      0.00000
      6      25.0636      0.00000
      7      25.5405      0.00000
      8      28.9347      0.00000

 k-point    55 :      -0.2917    0.3750    0.2083
  band No.  band energies     occupation 
      1       1.4520      2.00000
      2      11.2755      0.00000
      3      11.3544      0.00000
      4      16.5729      0.00000
      5      17.2091      0.00000
      6      25.2157      0.00000
      7      26.3504      0.00000
      8      30.2739      0.00000

 k-point    56 :      -0.4583    0.4583    0.2083
  band No.  band energies     occupation 
      1       3.7967      2.00000
      2       6.3220      2.00000
      3      12.5713      0.00000
      4      15.2543      0.00000
      5      20.9762      0.00000
      6      23.4498      0.00000
      7      24.7000      0.00000
      8      28.5905      0.00000

 k-point    57 :      -0.3750    0.4583    0.2083
  band No.  band energies     occupation 
      1       3.3728      2.00000
      2       8.3712      2.00000
      3      10.7100      0.00220
      4      16.2419      0.00000
      5      18.5223      0.00000
      6      22.9935      0.00000
      7      25.5925      0.00000
      8      30.8326      0.00000

 k-point    58 :      -0.4583   -0.4583    0.2083
  band No.  band energies     occupation 
      1       5.6283      2.00000
      2       5.7525      2.00000
      3      10.5074      1.99238
      4      16.0534      0.00000
      5      20.1570      0.00000
      6      21.0603      0.00000
      7      25.3816      0.00000
      8      30.8478      0.00000

 k-point    59 :      -0.3750   -0.4583    0.2083
  band No.  band energies     occupation 
      1       5.4784      2.00000
      2       7.9167      2.00000
      3       8.0003      2.00000
      4      17.7149      0.00000
      5      18.4407      0.00000
      6      20.4970      0.00000
      7      25.3726      0.00000
      8      33.4983      0.00000

 k-point    60 :      -0.2917    0.2917    0.2917
  band No.  band energies     occupation 
      1       1.2372      2.00000
      2      12.5709      0.00000
      3      12.5709      0.00000
      4      14.9745      0.00000
      5      15.5904      0.00000
      6      25.5397      0.00000
      7      28.6267      0.00000
      8      30.0969      0.00000

 k-point    61 :      -0.3750    0.3750    0.2917
  band No.  band energies     occupation 
      1       2.9471      2.00000
      2      10.3027      2.00000
      3      11.7851      0.00000
      4      14.4071      0.00000
      5      15.9288      0.00000
      6      22.7072      0.00000
      7      28.5315      0.00000
      8      30.9018      0.00000

 k-point    62 :      -0.4583    0.4583    0.2917
  band No.  band energies     occupation 
      1       5.0577      2.00000
      2       7.5430      2.00000
      3      11.3917      0.00000
      4      14.0086      0.00000
      5      17.7178      0.00000
      6      20.0995      0.00000
      7      28.2040      0.00000
      8      31.0842      0.00000

 k-point    63 :      -0.3750    0.4583    0.2917
  band No.  band energies     occupation 
      1       4.8474      2.00000
      2       9.6635      2.00000
      3       9.7239      2.00000
      4      15.0611      0.00000
      5      15.4917      0.00000
      6      19.8862      0.00000
      7      28.9395      0.00000
      8      32.9858      0.00000

 k-point    64 :      -0.4583   -0.4583    0.2917
  band No.  band energies     occupation 
      1       7.0805      2.00000
      2       7.1714      2.00000
      3       9.4913      2.00000
      4      15.0395      0.00000
      5      17.1407      0.00000
      6      17.6026      0.00000
      7      28.8604      0.00000
      8      33.5816      0.00000

 k-point    65 :      -0.3750    0.3750    0.3750
  band No.  band energies     occupation 
      1       4.6365      2.00000
      2      10.9975      0.00000
      3      10.9975      0.00000
      4      13.3970      0.00000
      5      13.8086      0.00000
      6      19.6883      0.00000
      7      31.8658      0.00000
      8      32.8140      0.00000

 k-point    66 :      -0.4583    0.4583    0.3750
  band No.  band energies     occupation 
      1       6.7089      2.00000
      2       9.0819      2.00000
      3      10.6032      0.96780
      4      13.1535      0.00000
      5      14.6799      0.00000
      6      16.9756      0.00000
      7      31.9495      0.00000
      8      33.7035      0.00000

 k-point    67 :      -0.4583   -0.4583    0.3750
  band No.  band energies     occupation 
      1       8.8197      2.00000
      2       8.9064      2.00000
      3       8.9064      2.00000
      4      14.1392      0.00000
      5      14.6309      0.00000
      6      14.6309      0.00000
      7      32.4823      0.00000
      8      35.6365      0.00000

 k-point    68 :      -0.4583    0.4583    0.4583
  band No.  band energies     occupation 
      1       8.6724      2.00000
      2      10.2084      2.00000
      3      10.2084      2.00000
      4      12.5670      0.00000
      5      12.9148      0.00000
      6      14.2880      0.00000
      7      35.2352      0.00000
      8      35.4770      0.00000


--------------------------------------------------------------------------------------------------------


 soft charge-density along one line, spin component           1
         0         1         2         3         4         5         6         7         8         9
 total charge-density along one line
 
 pseudopotential strength for first ion, spin component:           1
 17.903  24.975   0.000  -0.000   0.000   0.000  -0.000   0.000
 24.975  34.846   0.000  -0.000   0.000   0.000  -0.000   0.000
  0.000   0.000   4.089  -0.000   0.000   7.617  -0.000   0.000
 -0.000  -0.000  -0.000   4.089  -0.000  -0.000   7.617  -0.000
  0.000   0.000   0.000  -0.000   4.089   0.000  -0.000   7.617
  0.000   0.000   7.617  -0.000   0.000  14.199  -0.000   0.000
 -0.000  -0.000  -0.000   7.617  -0.000  -0.000  14.199  -0.000
  0.000   0.000   0.000  -0.000   7.617   0.000  -0.000  14.199
 total augmentation occupancy for first ion, spin component:           1
  5.202  -2.182   0.000   0.000   0.000   0.000   0.000   0.000
 -2.182   1.338   0.000   0.000   0.000   0.000   0.000   0.000
  0.000   0.000   2.489   0.000  -0.000  -0.599   0.000   0.000
  0.000   0.000   0.000   2.489   0.000   0.000  -0.599  -0.000
  0.000   0.000  -0.000   0.000   2.489  -0.000   0.000  -0.599
  0.000   0.000  -0.599   0.000  -0.000   0.159   0.000   0.000
  0.000   0.000   0.000  -0.599   0.000  -0.000   0.159   0.000
  0.000   0.000   0.000   0.000  -0.599   0.000   0.000   0.159


------------------------ aborting loop because EDIFF is reached ----------------------------------------


    CHARGE:  cpu time    0.0120: real time    0.0124
    FORLOC:  cpu time    0.0000: real time    0.0005
    FORNL :  cpu time    0.0350: real time    0.0361
    STRESS:  cpu time    0.2240: real time    0.2235
    FORCOR:  cpu time    0.0090: real time    0.0093
    FORHAR:  cpu time    0.0020: real time    0.0019
    MIXING:  cpu time    0.0000: real time    0.0005
    OFIELD:  cpu time    0.0000: real time    0.0002

  FORCE on cell =-STRESS in cart. coord.  units (eV):
  Direction    XX          YY          ZZ          XY          YZ          ZX
  --------------------------------------------------------------------------------------
  Alpha Z     2.42827     2.42827     2.42827
  Ewald     -46.17132   -46.17132   -46.17132     0.00000     0.00000     0.00000
  Hartree     0.11871     0.11871     0.11871    -0.00000     0.00000     0.00000
  E(xc)     -12.84931   -12.84931   -12.84931     0.00000    -0.00000    -0.00000
  Local      -4.68384    -4.68384    -4.68384    -0.00001     0.00001     0.00001
  n-local    39.32666    38.48994    38.15411    -1.04615    -1.73240     0.57431
  augment    -6.24292    -6.24292    -6.24292     0.00001    -0.00001    -0.00001
  Kinetic    21.83298    35.65690    30.25051    10.18323    16.70353    -5.67293
  Fock        0.00000     0.00000     0.00000     0.00000     0.00000     0.00000
  -------------------------------------------------------------------------------------
  Total       0.50329     0.50329     0.50329     0.00000    -0.00000    -0.00000
  in kB      58.16584    58.16584    58.16584     0.00000    -0.00000    -0.00000
[...]
      1       1.8329      2.00000
      2       6.7269      2.00000
      3      11.2572      0.00000
      4      11.7165      0.00000
      5      25.0402      0.00000
      6      25.2296      0.00000
      7      29.7365      0.00000
      8      30.1440      0.00000

 k-point    34 :       0.3750    0.1250    0.1250
  band No.  band energies     occupation 
      1       3.8952      2.00000
      2       4.2925      2.00000
      3      11.0618      0.00000
      4      11.5218      0.00000
      5      24.9820      0.00000
      6      25.1192      0.00000
      7      30.5285      0.00000
      8      31.0943      0.00000

 k-point    35 :      -0.1250    0.1250    0.1250
  band No.  band energies     occupation 
      1      -3.3772      2.00000
      2      16.8890      0.00000
      3      16.8890      0.00000
      4      18.4406      0.00000
      5      20.8393      0.00000
      6      23.3300      0.00000
      7      24.8134      0.00000
      8      24.8134      0.00000

 k-point    36 :       0.2083    0.2083    0.1250
  band No.  band energies     occupation 
      1       1.6283      2.00000
      2       8.7323      2.00000
      3       9.1056      2.00000
      4      11.3233      0.00000
      5      26.2599      0.00000
      6      27.1013      0.00000
      7      29.1825      0.00000
      8      29.6721      0.00000

 k-point    37 :       0.2917    0.2083    0.1250
  band No.  band energies     occupation 
      1       3.6688      2.00000
      2       6.1271      2.00000
      3       8.5378      2.00000
      4      10.9299      0.00000
      5      26.5706      0.00000
      6      27.7630      0.00000
      7      30.0023      0.00000
      8      30.8557      0.00000

 k-point    38 :      -0.2083    0.2083    0.1250
  band No.  band energies     occupation 
      1      -2.5341      2.00000
      2      14.1315      0.00000
      3      15.4476      0.00000
      4      17.7120      0.00000
      5      19.8642      0.00000
      6      22.6314      0.00000
      7      24.9618      0.00000
      8      27.1170      0.00000

 k-point    39 :       0.2917    0.2917    0.1250
  band No.  band energies     occupation 
      1       5.5627      2.00000
      2       6.1031      2.00000
      3       6.1031      2.00000
      4      10.7311      0.00000
      5      27.4113      0.00000
      6      29.1234      0.00000
      7      29.1234      0.00000
      8      32.2769      0.00000

 k-point    40 :      -0.2917    0.2917    0.1250
  band No.  band energies     occupation 
      1      -1.2761      2.00000
      2      10.8296      0.00000
      3      14.3409      0.00000
      4      16.8740      0.00000
      5      20.3003      0.00000
      6      21.6225      0.00000
      7      24.5521      0.00000
      8      29.8719      0.00000

 k-point    41 :      -0.2083    0.2917    0.1250
  band No.  band energies     occupation 
      1      -1.4851      2.00000
      2      12.6891      0.00000
      3      12.9590      0.00000
      4      17.3798      0.00000
      5      18.8641      0.00000
      6      22.3494      0.00000
      7      26.6431      0.00000
      8      27.3326      0.00000

 k-point    42 :      -0.3750    0.3750    0.1250
  band No.  band energies     occupation 
      1       0.3883      2.00000
      2       7.7125      2.00000
      3      13.5961      0.00000
      4      16.1757      0.00000
      5      20.8976      0.00000
      6      21.0794      0.00000
      7      24.4749      0.00000
      8      28.9796      0.00000

 k-point    43 :      -0.2917    0.3750    0.1250
  band No.  band energies     occupation 
      1      -0.0259      2.00000
      2       9.6542      1.99993
      3      11.8800      0.00000
      4      16.9555      0.00000
      5      19.3426      0.00000
      6      21.6742      0.00000
      7      26.1228      0.00000
      8      28.3536      0.00000

 k-point    44 :      -0.4583    0.4583    0.1250
  band No.  band energies     occupation 
      1       2.4411      2.00000
      2       4.9190      2.00000
      3      13.2226      0.00000
      4      15.8089      0.00000
      5      20.5277      0.00000
      6      21.5368      0.00000
      7      25.2193      0.00000
      8      27.2097      0.00000

 k-point    45 :      -0.3750    0.4583    0.1250
  band No.  band energies     occupation 
      1       1.8320      2.00000
      2       6.7140      2.00000
      3      11.2988      0.00000
      4      16.4790      0.00000
      5      20.1934      0.00000
      6      21.6672      0.00000
      7      24.8981      0.00000
      8      27.5757      0.00000

 k-point    46 :      -0.2917    0.4583    0.1250
  band No.  band energies     occupation 
      1       1.6275      2.00000
      2       8.7323      2.00000
      3       9.0212      2.00000
      4      17.6347      0.00000
      5      19.1680      0.00000
      6      21.2130      0.00000
      7      25.2625      0.00000
      8      29.3116      0.00000

 k-point    47 :      -0.4583   -0.4583    0.1250
  band No.  band energies     occupation 
      1       3.8977      2.00000
      2       4.2811      2.00000
      3      11.1051      0.00000
      4      16.3058      0.00000
      5      20.3463      0.00000
      6      22.4933      0.00000
      7      23.7599      0.00000
      8      27.2010      0.00000

 k-point    48 :      -0.3750   -0.4583    0.1250
  band No.  band energies     occupation 
      1       3.6660      2.00000
      2       6.1130      2.00000
      3       8.4920      2.00000
      4      17.6547      0.00000
      5      19.9459      0.00000
      6      21.4161      0.00000
      7      23.0753      0.00000
      8      29.9886      0.00000

 k-point    49 :      -0.3750   -0.3750    0.1250
  band No.  band energies     occupation 
      1       5.5785      2.00000
      2       6.0719      2.00000
      3       6.0719      2.00000
      4      18.2099      0.00000
      5      20.8661      0.00000
      6      20.8661      0.00000
      7      21.5509      0.00000
      8      32.7514      0.00000

 k-point    50 :       0.2083    0.2083    0.2083
  band No.  band energies     occupation 
      1       3.4702      2.00000
      2       8.0012      2.00000
      3       8.5163      2.00000
      4       8.5163      2.00000
      5      28.7810      0.00000
      6      28.7810      0.00000
      7      30.4492      0.00000
      8      30.4492      0.00000

 k-point    51 :       0.2917    0.2083    0.2083
  band No.  band energies     occupation 
      1       5.5031      2.00000
      2       5.9047      2.00000
      3       8.0095      2.00000
      4       8.3192      2.00000
      5      29.3046      0.00000
      6      29.6776      0.00000
      7      30.9752      0.00000
      8      31.3680      0.00000

 k-point    52 :      -0.2083    0.2083    0.2083
  band No.  band energies     occupation 
      1      -1.6943      2.00000
      2      13.9869      0.00000
      3      13.9869      0.00000
      4      15.8958      0.00000
      5      17.4751      0.00000
      6      24.9741      0.00000
      7      26.4735      0.00000
      8      26.4735      0.00000

 k-point    53 :      -0.2917    0.2917    0.2083
  band No.  band energies     occupation 
      1      -0.4414      2.00000
      2      11.4781      0.00000
      3      12.8665      0.00000
      4      15.2832      0.00000
      5      17.0901      0.00000
      6      24.5626      0.00000
      7      26.1013      0.00000
      8      27.9189      0.00000

 k-point    54 :      -0.3750    0.3750    0.2083
  band No.  band energies     occupation 
      1       1.2157      2.00000
      2       8.4745      2.00000
      3      12.1139      0.00000
      4      14.6432      0.00000
      5      18.2356      0.00000
      6      23.8935      0.00000
      7      24.2989      0.00000
      8      27.5163      0.00000

 k-point    55 :      -0.2917    0.3750    0.2083
  band No.  band energies     occupation 
      1       1.0097      2.00000
      2      10.4078      0.00000
      3      10.6285      0.00000
      4      15.3691      0.00000
      5      16.4153      0.00000
      6      23.9967      0.00000
      7      25.1153      0.00000
      8      28.8049      0.00000

 k-point    56 :      -0.4583    0.4583    0.2083
  band No.  band energies     occupation 
      1       3.2591      2.00000
      2       5.7149      2.00000
      3      11.7364      0.00000
      4      14.2724      0.00000
      5      19.8122      0.00000
      6      22.3302      0.00000
      7      23.5397      0.00000
      8      27.1795      0.00000

 k-point    57 :      -0.3750    0.4583    0.2083
  band No.  band energies     occupation 
      1       2.8564      2.00000
      2       7.6785      2.00000
      3       9.9435      0.00003
      4      15.1885      0.00000
      5      17.5258      0.00000
      6      21.8549      0.00000
      7      24.3817      0.00000
      8      29.3603      0.00000

 k-point    58 :      -0.4583   -0.4583    0.2083
  band No.  band energies     occupation 
      1       4.9187      2.00000
      2       5.2682      2.00000
      3       9.7467      1.82648
      4      15.0295      0.00000
      5      18.9804      0.00000
      6      20.0872      0.00000
      7      24.1762      0.00000
      8      29.3785      0.00000

 k-point    59 :      -0.3750   -0.4583    0.2083
  band No.  band energies     occupation 
      1       4.8736      2.00000
      2       7.1588      2.00000
      3       7.4260      2.00000
      4      16.4479      0.00000
      5      17.5725      0.00000
      6      19.4805      0.00000
      7      24.1588      0.00000
      8      31.9483      0.00000

 k-point    60 :      -0.2917    0.2917    0.2917
  band No.  band energies     occupation 
      1       0.8033      2.00000
      2      11.7385      0.00000
      3      11.7385      0.00000
      4      13.7509      0.00000
      5      14.9194      0.00000
      6      24.2951      0.00000
      7      27.4021      0.00000
      8      28.6335      0.00000

 k-point    61 :      -0.3750    0.3750    0.2917
  band No.  band energies     occupation 
      1       2.4486      2.00000
      2       9.5389      2.00000
      3      10.9806      0.00000
      4      13.3862      0.00000
      5      15.0745      0.00000
      6      21.5628      0.00000
      7      27.2422      0.00000
      8      29.4198      0.00000

 k-point    62 :      -0.4583    0.4583    0.2917
  band No.  band energies     occupation 
      1       4.4743      2.00000
      2       6.8876      2.00000
      3      10.6010      0.00000
      4      13.0646      0.00000
      5      16.7073      0.00000
      6      19.0748      0.00000
      7      26.9170      0.00000
      8      29.5976      0.00000

 k-point    63 :      -0.3750    0.4583    0.2917
  band No.  band energies     occupation 
      1       4.2757      2.00000
      2       8.8556      2.00000
      3       9.0594      2.00000
      4      13.9035      0.00000
      5      14.7608      0.00000
      6      18.8506      0.00000
      7      27.6120      0.00000
      8      31.4544      0.00000

 k-point    64 :      -0.4583   -0.4583    0.2917
  band No.  band energies     occupation 
      1       6.3184      2.00000
      2       6.6270      2.00000
      3       8.7715      2.00000
      4      14.0134      0.00000
      5      16.1009      0.00000
      6      16.7664      0.00000
      7      27.5304      0.00000
      8      32.0419      0.00000

 k-point    65 :      -0.3750    0.3750    0.3750
  band No.  band energies     occupation 
      1       4.0744      2.00000
      2      10.2210      0.00000
      3      10.2210      0.00000
      4      12.2255      0.00000
      5      13.2056      0.00000
      6      18.6510      0.00000
      7      30.5063      0.00000
      8      31.2890      0.00000

 k-point    66 :      -0.4583    0.4583    0.3750
  band No.  band energies     occupation 
      1       6.0649      2.00000
      2       8.3658      2.00000
      3       9.8403      0.19886
      4      12.1830      0.00000
      5      13.8427      0.00000
      6      16.0596      0.00000
      7      30.5317      0.00000
      8      32.1589      0.00000

 k-point    67 :      -0.4583   -0.4583    0.3750
  band No.  band energies     occupation 
      1       7.9493      2.00000
      2       8.2721      2.00000
      3       8.2721      2.00000
      4      12.8714      0.00000
      5      13.9312      0.00000
      6      13.9312      0.00000
      7      31.0300      0.00000
      8      34.0668      0.00000

 k-point    68 :      -0.4583    0.4583    0.4583
  band No.  band energies     occupation 
      1       7.9563      2.00000
      2       9.4590      2.00000
      3       9.4590      2.00000
      4      11.3582      0.00000
      5      12.3457      0.00000
      6      13.5152      0.00000
      7      33.7140      0.00000
      8      33.9148      0.00000


--------------------------------------------------------------------------------------------------------


 soft charge-density along one line, spin component           1
         0         1         2         3         4         5         6         7         8         9
 total charge-density along one line
 
 pseudopotential strength for first ion, spin component:           1
 17.990  25.098   0.000   0.000   0.000   0.000   0.000   0.000
 25.098  35.018   0.000   0.000   0.000   0.000   0.000   0.000
  0.000   0.000   4.100  -0.000   0.000   7.639  -0.000   0.000
  0.000   0.000  -0.000   4.100  -0.000  -0.000   7.639  -0.000
  0.000   0.000   0.000  -0.000   4.100   0.000  -0.000   7.639
  0.000   0.000   7.639  -0.000   0.000  14.241  -0.000   0.000
  0.000   0.000  -0.000   7.639  -0.000  -0.000  14.241  -0.000
  0.000   0.000   0.000  -0.000   7.639   0.000  -0.000  14.241
 total augmentation occupancy for first ion, spin component:           1
  4.752  -1.924   0.000   0.000   0.000   0.000   0.000   0.000
 -1.924   1.214   0.000   0.000   0.000   0.000   0.000   0.000
  0.000   0.000   2.299  -0.000   0.000  -0.538   0.000  -0.000
  0.000   0.000  -0.000   2.299  -0.000   0.000  -0.538   0.000
  0.000   0.000   0.000  -0.000   2.299  -0.000   0.000  -0.538
  0.000   0.000  -0.538   0.000  -0.000   0.140  -0.000   0.000
  0.000   0.000   0.000  -0.538   0.000  -0.000   0.140  -0.000
  0.000   0.000  -0.000   0.000  -0.538   0.000  -0.000   0.140


------------------------ aborting loop because EDIFF is reached ----------------------------------------


    CHARGE:  cpu time    0.0110: real time    0.0122
    FORLOC:  cpu time    0.0000: real time    0.0005
    FORNL :  cpu time    0.0340: real time    0.0346
    STRESS:  cpu time    0.2240: real time    0.2237
    FORCOR:  cpu time    0.0090: real time    0.0093
    FORHAR:  cpu time    0.0020: real time    0.0018
    MIXING:  cpu time    0.0000: real time    0.0005
    OFIELD:  cpu time    0.0000: real time    0.0002

  FORCE on cell =-STRESS in cart. coord.  units (eV):
  Direction    XX          YY          ZZ          XY          YZ          ZX
  --------------------------------------------------------------------------------------
  Alpha Z     2.29296     2.29296     2.29296
  Ewald     -45.29726   -45.29726   -45.29726    -0.00000     0.00000     0.00000
  Hartree     0.14585     0.14585     0.14585    -0.00000     0.00000     0.00000
  E(xc)     -12.66128   -12.66128   -12.66128     0.00000    -0.00000    -0.00000
  Local      -5.15647    -5.15647    -5.15647    -0.00001     0.00001     0.00001
  n-local    39.07096    38.49763    38.16721    -0.87534    -1.48352     0.43772
  augment    -6.30191    -6.30191    -6.30191     0.00001    -0.00001    -0.00001
  Kinetic    21.06248    34.64760    29.49306     9.80306    16.08876    -5.49890
  Fock        0.00000     0.00000     0.00000     0.00000     0.00000     0.00000
  -------------------------------------------------------------------------------------
  Total       0.00154     0.00154     0.00154     0.00000    -0.00000     0.00000
  in kB       0.16860     0.16860     0.16860     0.00000    -0.00000     0.00000
  external pressure =        0.17 kB  Pullay stress =        0.00 kB


 VOLUME and BASIS-vectors are now :
 -----------------------------------------------------------------------------
  energy-cutoff  :      350.00
  volume of cell :       14.68
      direct lattice vectors                 reciprocal lattice vectors
     1.542527177  1.542527177  1.542527177     0.324143398  0.324143398  0.000000000
     1.542527177 -1.542527177 -1.542527177     0.324143398 -0.000000000 -0.324143398
    -1.542527177  1.542527177 -1.542527177    -0.000000000  0.324143398 -0.324143398

  length of vectors
     2.671735442  2.671735442  2.671735442     0.458407989  0.458407989  0.458407989


 FORCES acting on ions
    electron-ion (+dipol)            ewald-force                    non-local-force                 convergence-correction
 -----------------------------------------------------------------------------------------------
   0.405E-15 -.595E-15 -.409E-15   -.816E-15 -.155E-15 0.240E-15   0.517E-25 0.000E+00 0.155E-24   -.802E-17 0.113E-16 0.263E-17
 -----------------------------------------------------------------------------------------------
   0.405E-15 -.595E-15 -.409E-15   -.816E-15 -.155E-15 0.240E-15   0.517E-25 0.000E+00 0.155E-24   -.802E-17 0.113E-16 0.263E-17
 
 
 POSITION                                       TOTAL-FORCE (eV/Angst)
 -----------------------------------------------------------------------------------
     -0.00000     -0.00000      0.00000         0.000000      0.000000      0.000000
 -----------------------------------------------------------------------------------
    total drift:                               -0.000000     -0.000000     -0.000000


--------------------------------------------------------------------------------------------------------



  FREE ENERGIE OF THE ION-ELECTRON SYSTEM (eV)
  ---------------------------------------------------
  free  energy   TOTEN  =        -4.90752839 eV

  energy  without entropy=       -4.90716824  energy(sigma->0) =       -4.90734832
 
 d Force = 0.0000000E+00[ 0.000E+00, 0.000E+00]  d Energy = 0.8909609E-03-0.891E-03
 d Force = 0.0000000E+00[ 0.000E+00, 0.000E+00]  d Ewald  = 0.6611717E+00-0.661E+00


--------------------------------------------------------------------------------------------------------


    POTLOK:  cpu time    0.1730: real time    0.1797


--------------------------------------------------------------------------------------------------------




--------------------------------------------------------------------------------------------------------


  
 reached required accuracy - stopping structural energy minimisation
     LOOP+:  cpu time    2.7696: real time    2.9124
    4ORBIT:  cpu time    0.0000: real time    0.0000

 total amount of memory used by VASP MPI-rank0    33282. kBytes
=======================================================================

   base      :      30000. kBytes
   nonl-proj :        960. kBytes
   fftplans  :       1246. kBytes
   grid      :        577. kBytes
   one-center:          3. kBytes
   wavefun   :        496. kBytes
 
  
  
 General timing and accounting informations for this job:
 ========================================================
  
                  Total CPU time used (sec):        9.863
                            User time (sec):        9.600
                          System time (sec):        0.263
                         Elapsed time (sec):       10.876
  
                   Maximum memory used (kb):       56908.
                   Average memory used (kb):          N/A
  
                          Minor page faults:         9491
                          Major page faults:            1
                 Voluntary context switches:        15954
