unknown system                          
           1
     1.513326    1.513326    1.513326
     1.513326   -1.513326   -1.513326
    -1.513326    1.513326   -1.513326
   Si
     1
Direct configuration=     1
   0.00000000  0.00000000  0.00000000
unknown system                          
           1
     1.550069    1.550069    1.550069
     1.550069   -1.550069   -1.550069
    -1.550069    1.550069   -1.550069
   Si
     1
Direct configuration=     2
  -0.00000000 -0.00000000 -0.00000000
unknown system                          
           1
     1.542527    1.542527    1.542527
     1.542527   -1.542527   -1.542527
    -1.542527    1.542527   -1.542527
   Si
     1
Direct configuration=     3
  -0.00000000 -0.00000000 -0.00000000
