   1   1   0   0
  0.1408159E+02  0.2710538E-09  0.2710538E-09  0.2710538E-09  0.5000000E-15
  1.000000000000000E-004
  CAR 
 unknown system                          
     38.30680071     -6.30962870  301     10.24089223      1.00000000
     -6.310  0.0000E+00  0.0000E+00
     -6.161  0.0000E+00  0.0000E+00
     -6.012  0.0000E+00  0.0000E+00
     -5.863  0.0000E+00  0.0000E+00
     -5.715  0.0000E+00  0.0000E+00
     -5.566  0.0000E+00  0.0000E+00
     -5.417  0.0000E+00  0.0000E+00
     -5.269  0.0000E+00  0.0000E+00
     -5.120  0.0000E+00  0.0000E+00
     -4.971  0.0000E+00  0.0000E+00
     -4.822  0.0000E+00  0.0000E+00
     -4.674  0.0000E+00  0.0000E+00
     -4.525  0.8002E-16  0.1190E-16
     -4.376  0.1017E-06  0.1513E-07
     -4.228  0.4781E-04  0.7125E-05
     -4.079  0.3681E-03  0.6186E-04
     -3.930  0.5366E-03  0.1417E-03
     -3.781  0.6860E-03  0.2437E-03
     -3.633  0.7236E-03  0.3513E-03
     -3.484  0.1004E-02  0.5007E-03
     -3.335  0.1150E-02  0.6717E-03
     -3.186  0.3693E-03  0.7266E-03
     -3.038  0.2055E-02  0.1032E-02
     -2.889  0.8241E-03  0.1155E-02
     -2.740  0.1282E-02  0.1345E-02
     -2.592  0.6871E-03  0.1448E-02
     -2.443  0.1724E-02  0.1704E-02
     -2.294  0.2384E-02  0.2059E-02
     -2.145  0.7669E-03  0.2173E-02
     -1.997  0.1505E-02  0.2397E-02
     -1.848  0.1356E-02  0.2598E-02
     -1.699  0.2284E-02  0.2938E-02
     -1.551  0.9941E-03  0.3086E-02
     -1.402  0.3051E-02  0.3540E-02
     -1.253  0.1174E-02  0.3714E-02
     -1.104  0.9486E-03  0.3855E-02
     -0.956  0.2335E-02  0.4202E-02
     -0.807  0.2131E-02  0.4519E-02
     -0.658  0.3329E-02  0.5014E-02
     -0.509  0.3924E-03  0.5073E-02
     -0.361  0.3129E-02  0.5538E-02
     -0.212  0.1709E-02  0.5792E-02
     -0.063  0.1035E-02  0.5946E-02
      0.085  0.2701E-02  0.6348E-02
      0.234  0.2811E-02  0.6766E-02
      0.383  0.3326E-02  0.7260E-02
      0.532  0.1366E-02  0.7464E-02
      0.680  0.2227E-02  0.7795E-02
      0.829  0.2524E-02  0.8170E-02
      0.978  0.2188E-02  0.8496E-02
      1.126  0.1566E-02  0.8729E-02
      1.275  0.2854E-02  0.9153E-02
      1.424  0.4122E-02  0.9766E-02
      1.573  0.1222E-02  0.9948E-02
      1.721  0.5103E-02  0.1071E-01
      1.870  0.1768E-02  0.1097E-01
      2.019  0.1143E-02  0.1114E-01
      2.167  0.2112E-02  0.1145E-01
      2.316  0.3541E-02  0.1198E-01
      2.465  0.4029E-02  0.1258E-01
      2.614  0.2016E-02  0.1288E-01
      2.762  0.3382E-02  0.1338E-01
      2.911  0.3703E-02  0.1393E-01
      3.060  0.2401E-02  0.1429E-01
      3.209  0.3341E-02  0.1479E-01
      3.357  0.1418E-02  0.1500E-01
      3.506  0.3139E-02  0.1546E-01
      3.655  0.2017E-02  0.1576E-01
      3.803  0.2741E-02  0.1617E-01
      3.952  0.5246E-02  0.1695E-01
      4.101  0.3335E-02  0.1745E-01
      4.250  0.3210E-02  0.1793E-01
      4.398  0.2788E-02  0.1834E-01
      4.547  0.2212E-02  0.1867E-01
      4.696  0.3418E-02  0.1918E-01
      4.844  0.3883E-02  0.1976E-01
      4.993  0.4154E-02  0.2037E-01
      5.142  0.2535E-02  0.2075E-01
      5.291  0.2236E-02  0.2108E-01
      5.439  0.3493E-02  0.2160E-01
      5.588  0.4125E-02  0.2222E-01
      5.737  0.5118E-02  0.2298E-01
      5.886  0.2847E-02  0.2340E-01
      6.034  0.3179E-02  0.2387E-01
      6.183  0.3041E-02  0.2433E-01
      6.332  0.1824E-02  0.2460E-01
      6.480  0.5238E-02  0.2538E-01
      6.629  0.4047E-02  0.2598E-01
      6.778  0.3481E-02  0.2650E-01
      6.927  0.2339E-02  0.2684E-01
      7.075  0.5087E-02  0.2760E-01
      7.224  0.1623E-02  0.2784E-01
      7.373  0.5854E-02  0.2871E-01
      7.521  0.3903E-02  0.2929E-01
      7.670  0.4163E-02  0.2991E-01
      7.819  0.2619E-02  0.3030E-01
      7.968  0.5517E-02  0.3112E-01
      8.116  0.2510E-02  0.3149E-01
      8.265  0.3213E-02  0.3197E-01
      8.414  0.2908E-02  0.3240E-01
      8.563  0.2495E-02  0.3278E-01
      8.711  0.5908E-02  0.3365E-01
      8.860  0.4453E-02  0.3432E-01
      9.009  0.6581E-02  0.3530E-01
      9.157  0.4106E-02  0.3591E-01
      9.306  0.3184E-02  0.3638E-01
      9.455  0.4017E-02  0.3698E-01
      9.604  0.3465E-02  0.3749E-01
      9.752  0.2772E-02  0.3790E-01
      9.901  0.3487E-02  0.3842E-01
     10.050  0.5325E-02  0.3922E-01
     10.198  0.4405E-02  0.3987E-01
     10.347  0.5665E-02  0.4071E-01
     10.496  0.5360E-02  0.4151E-01
     10.645  0.2555E-02  0.4189E-01
     10.793  0.4828E-02  0.4261E-01
     10.942  0.4533E-02  0.4328E-01
     11.091  0.4260E-02  0.4392E-01
     11.240  0.5802E-02  0.4478E-01
     11.388  0.2826E-02  0.4520E-01
     11.537  0.3724E-02  0.4575E-01
     11.686  0.4837E-02  0.4647E-01
     11.834  0.7298E-02  0.4756E-01
     11.983  0.4045E-02  0.4816E-01
     12.132  0.5230E-02  0.4894E-01
     12.281  0.2718E-02  0.4934E-01
     12.429  0.4499E-02  0.5001E-01
     12.578  0.2647E-02  0.5040E-01
     12.727  0.7466E-02  0.5151E-01
     12.875  0.5812E-02  0.5238E-01
     13.024  0.8994E-02  0.5372E-01
     13.173  0.3270E-02  0.5420E-01
     13.322  0.3774E-02  0.5476E-01
     13.470  0.4852E-02  0.5549E-01
     13.619  0.4287E-02  0.5612E-01
     13.768  0.8006E-02  0.5731E-01
     13.916  0.5082E-02  0.5807E-01
     14.065  0.7805E-02  0.5923E-01
     14.214  0.1785E-02  0.5950E-01
     14.363  0.5072E-02  0.6025E-01
     14.511  0.7105E-02  0.6131E-01
     14.660  0.4345E-02  0.6195E-01
     14.809  0.2959E-02  0.6239E-01
     14.958  0.6442E-02  0.6335E-01
     15.106  0.6969E-02  0.6439E-01
     15.255  0.3436E-02  0.6490E-01
     15.404  0.4479E-02  0.6556E-01
     15.552  0.5016E-02  0.6631E-01
     15.701  0.3182E-02  0.6678E-01
     15.850  0.2729E-02  0.6719E-01
     15.999  0.6257E-02  0.6812E-01
     16.147  0.6504E-02  0.6909E-01
     16.296  0.4984E-02  0.6983E-01
     16.445  0.4999E-02  0.7057E-01
     16.593  0.3486E-02  0.7109E-01
     16.742  0.5462E-02  0.7190E-01
     16.891  0.3305E-02  0.7239E-01
     17.040  0.3107E-02  0.7286E-01
     17.188  0.7515E-02  0.7397E-01
     17.337  0.5270E-02  0.7476E-01
     17.486  0.1725E-02  0.7501E-01
     17.635  0.9187E-02  0.7638E-01
     17.783  0.4807E-02  0.7710E-01
     17.932  0.4654E-02  0.7779E-01
     18.081  0.4580E-02  0.7847E-01
     18.229  0.5709E-02  0.7932E-01
     18.378  0.6566E-02  0.8029E-01
     18.527  0.3704E-02  0.8085E-01
     18.676  0.4577E-02  0.8153E-01
     18.824  0.5593E-02  0.8236E-01
     18.973  0.5094E-02  0.8312E-01
     19.122  0.7720E-02  0.8426E-01
     19.270  0.3763E-02  0.8482E-01
     19.419  0.3683E-02  0.8537E-01
     19.568  0.6128E-02  0.8628E-01
     19.717  0.6162E-02  0.8720E-01
     19.865  0.3454E-02  0.8771E-01
     20.014  0.5932E-02  0.8859E-01
     20.163  0.1056E-01  0.9017E-01
     20.312  0.3942E-02  0.9075E-01
     20.460  0.5841E-02  0.9162E-01
     20.609  0.4200E-02  0.9224E-01
     20.758  0.6412E-02  0.9320E-01
     20.906  0.5326E-02  0.9399E-01
     21.055  0.7375E-02  0.9509E-01
     21.204  0.4079E-02  0.9569E-01
     21.353  0.4621E-02  0.9638E-01
     21.501  0.8118E-02  0.9759E-01
     21.650  0.4508E-02  0.9826E-01
     21.799  0.6735E-02  0.9926E-01
     21.947  0.5802E-02  0.1001E+00
     22.096  0.7327E-02  0.1012E+00
     22.245  0.4142E-02  0.1018E+00
     22.394  0.5738E-02  0.1027E+00
     22.542  0.6463E-02  0.1036E+00
     22.691  0.5091E-02  0.1044E+00
     22.840  0.9527E-02  0.1058E+00
     22.988  0.5464E-02  0.1066E+00
     23.137  0.4220E-02  0.1073E+00
     23.286  0.5072E-02  0.1080E+00
     23.435  0.6192E-02  0.1089E+00
     23.583  0.3671E-02  0.1095E+00
     23.732  0.2683E-02  0.1099E+00
     23.881  0.8274E-02  0.1111E+00
     24.030  0.7165E-02  0.1122E+00
     24.178  0.1241E-01  0.1140E+00
     24.327  0.1113E-01  0.1157E+00
     24.476  0.6937E-02  0.1167E+00
     24.624  0.4469E-02  0.1174E+00
     24.773  0.4065E-02  0.1180E+00
     24.922  0.4269E-02  0.1186E+00
     25.071  0.4582E-02  0.1193E+00
     25.219  0.4604E-02  0.1200E+00
     25.368  0.8798E-02  0.1213E+00
     25.517  0.5268E-02  0.1221E+00
     25.665  0.7679E-02  0.1232E+00
     25.814  0.7425E-02  0.1243E+00
     25.963  0.6875E-02  0.1253E+00
     26.112  0.6491E-02  0.1263E+00
     26.260  0.8443E-02  0.1276E+00
     26.409  0.6842E-02  0.1286E+00
     26.558  0.6106E-02  0.1295E+00
     26.707  0.3530E-02  0.1300E+00
     26.855  0.4081E-02  0.1306E+00
     27.004  0.7516E-02  0.1317E+00
     27.153  0.1111E-01  0.1334E+00
     27.301  0.6132E-02  0.1343E+00
     27.450  0.5634E-02  0.1351E+00
     27.599  0.3821E-02  0.1357E+00
     27.748  0.4172E-02  0.1363E+00
     27.896  0.4736E-02  0.1370E+00
     28.045  0.4933E-02  0.1378E+00
     28.194  0.5386E-02  0.1386E+00
     28.342  0.5075E-02  0.1393E+00
     28.491  0.7009E-02  0.1404E+00
     28.640  0.9228E-02  0.1417E+00
     28.789  0.5598E-02  0.1426E+00
     28.937  0.5206E-02  0.1433E+00
     29.086  0.1961E-02  0.1436E+00
     29.235  0.6977E-02  0.1447E+00
     29.384  0.4182E-02  0.1453E+00
     29.532  0.1872E-02  0.1456E+00
     29.681  0.4671E-02  0.1463E+00
     29.830  0.3905E-02  0.1468E+00
     29.978  0.5883E-02  0.1477E+00
     30.127  0.8604E-02  0.1490E+00
     30.276  0.6998E-02  0.1500E+00
     30.425  0.5009E-02  0.1508E+00
     30.573  0.4040E-02  0.1514E+00
     30.722  0.2265E-02  0.1517E+00
     30.871  0.4798E-02  0.1524E+00
     31.019  0.4327E-02  0.1531E+00
     31.168  0.1408E-02  0.1533E+00
     31.317  0.1832E-02  0.1536E+00
     31.466  0.3634E-02  0.1541E+00
     31.614  0.2804E-02  0.1545E+00
     31.763  0.2835E-02  0.1549E+00
     31.912  0.2048E-02  0.1552E+00
     32.061  0.3963E-02  0.1558E+00
     32.209  0.2328E-02  0.1562E+00
     32.358  0.1102E-02  0.1563E+00
     32.507  0.1591E-02  0.1566E+00
     32.655  0.2852E-02  0.1570E+00
     32.804  0.4417E-03  0.1571E+00
     32.953  0.1956E-02  0.1574E+00
     33.102  0.8386E-03  0.1575E+00
     33.250  0.2088E-02  0.1578E+00
     33.399  0.2038E-02  0.1581E+00
     33.548  0.1088E-02  0.1583E+00
     33.696  0.3478E-03  0.1583E+00
     33.845  0.2681E-02  0.1587E+00
     33.994  0.1515E-02  0.1589E+00
     34.143  0.1180E-02  0.1591E+00
     34.291  0.7795E-03  0.1592E+00
     34.440  0.2718E-03  0.1593E+00
     34.589  0.1449E-02  0.1595E+00
     34.737  0.1234E-03  0.1595E+00
     34.886  0.4439E-04  0.1595E+00
     35.035  0.4683E-03  0.1596E+00
     35.184  0.3328E-03  0.1596E+00
     35.332  0.1266E-02  0.1598E+00
     35.481  0.1267E-03  0.1598E+00
     35.630  0.5967E-03  0.1599E+00
     35.779  0.1376E-05  0.1599E+00
     35.927  0.2674E-06  0.1599E+00
     36.076  0.2804E-03  0.1600E+00
     36.225  0.5816E-04  0.1600E+00
     36.373  0.1533E-03  0.1600E+00
     36.522  0.6103E-06  0.1600E+00
     36.671  0.4801E-15  0.1600E+00
     36.820  0.0000E+00  0.1600E+00
     36.968  0.0000E+00  0.1600E+00
     37.117  0.0000E+00  0.1600E+00
     37.266  0.0000E+00  0.1600E+00
     37.414  0.0000E+00  0.1600E+00
     37.563  0.0000E+00  0.1600E+00
     37.712  0.0000E+00  0.1600E+00
     37.861  0.0000E+00  0.1600E+00
     38.009  0.0000E+00  0.1600E+00
     38.158  0.0000E+00  0.1600E+00
     38.307  0.0000E+00  0.1600E+00
