    1    1  100    1
  0.1408159E+02  0.2710538E-09  0.2710538E-09  0.2710538E-09  0.5000000E-15
  1.000000000000000E-004
  CAR 
 unknown system                          
      4    165      8
 
  0.0000000E+00  0.0000000E+00  0.0000000E+00  0.2035416E-03
    1       -4.281609   1.000000
    2       21.324541   0.000000
    3       21.324548   0.000000
    4       21.324556   0.000000
    5       22.140926   0.000000
    6       22.140934   0.000000
    7       22.140943   0.000000
    8       27.452221   0.000000
 
  0.5882353E-01  0.3469447E-17  0.0000000E+00  0.1628333E-02
    1       -4.180778   1.000000
    2       19.503547   0.000000
    3       20.760401   0.000000
    4       20.760413   0.000000
    5       22.825921   0.000000
    6       22.825935   0.000000
    7       23.083193   0.000000
    8       28.277779   0.000000
 
  0.1176471E+00  0.6938894E-17  0.0000000E+00  0.1628333E-02
    1       -3.878573   1.000000
    2       17.028097   0.000000
    3       20.065655   0.000000
    4       20.065666   0.000000
    5       23.437805   0.000000
    6       23.818685   0.000000
    7       23.818699   0.000000
    8       27.546693   0.000000
 
  0.1764706E+00  0.0000000E+00  0.0000000E+00  0.1628333E-02
    1       -3.375945   1.000000
    2       14.514201   0.000000
    3       19.503723   0.000000
    4       19.503733   0.000000
    5       23.419060   0.000000
    6       24.371917   0.000000
    7       24.371929   0.000000
    8       27.093812   0.000000
 
  0.2352941E+00  0.1387779E-16  0.0000000E+00  0.1628333E-02
    1       -2.674517   1.000000
    2       12.076658   0.000000
    3       19.097189   0.000000
    4       19.097198   0.000000
    5       23.323630   0.000000
    6       23.854555   0.000000
    7       23.854565   0.000000
    8       27.946229   0.000000
 
  0.2941176E+00 -0.1387779E-16  0.0000000E+00  0.1628333E-02
    1       -1.776645   1.000000
    2        9.763338   1.000000
    3       18.841858   0.000000
    4       18.841866   0.000000
    5       22.953044   0.000000
    6       22.953053   0.000000
    7       23.266779   0.000000
    8       28.173642   0.000000
 
  0.3529412E+00 -0.1387779E-16  0.0000000E+00  0.1628333E-02
    1       -0.685800   1.000000
    2        7.599171   1.000000
    3       18.723424   0.000000
    4       18.723431   0.000000
    5       22.111140   0.000000
    6       22.111151   0.000000
    7       23.288922   0.000000
    8       27.211640   0.000000
 
  0.4117647E+00  0.0000000E+00  0.0000000E+00  0.1628333E-02
    1        0.591669   1.000000
    2        5.601528   1.000000
    3       18.709118   0.000000
    4       18.709123   0.000000
    5       21.459376   0.000000
    6       21.459388   0.000000
    7       23.381522   0.000000
    8       26.465350   0.000000
 
  0.4705882E+00  0.2775558E-16  0.0000000E+00  0.1628333E-02
    1        2.024388   1.000000
    2        3.807142   1.000000
    3       18.737149   0.000000
    4       18.737153   0.000000
    5       21.095267   0.000000
    6       21.095280   0.000000
    7       23.474058   0.000000
    8       26.035872   0.000000
 
  0.5882353E-01  0.5882353E-01  0.0000000E+00  0.1221250E-02
    1       -4.147163   1.000000
    2       19.882561   0.000000
    3       19.882562   0.000000
    4       21.007914   0.000000
    5       21.393930   0.000000
    6       23.747728   0.000000
    7       23.747728   0.000000
    8       27.577207   0.000000
 
  0.1176471E+00  0.5882353E-01  0.0000000E+00  0.4884999E-02
    1       -3.912111   1.000000
    2       17.896438   0.000000
    3       19.117856   0.000000
    4       20.571418   0.000000
    5       21.795833   0.000000
    6       24.437653   0.000000
    7       24.767079   0.000000
    8       26.294467   0.000000
 
  0.1764706E+00  0.5882353E-01  0.0000000E+00  0.4884999E-02
    1       -3.476318   1.000000
    2       15.412158   0.000000
    3       18.508064   0.000000
    4       19.989190   0.000000
    5       22.568719   0.000000
    6       24.543391   0.000000
    7       25.406052   0.000000
    8       25.542729   0.000000
 
  0.2352941E+00  0.5882353E-01  0.0000000E+00  0.4884999E-02
    1       -2.841188   1.000000
    2       12.952298   0.000000
    3       18.064230   0.000000
    4       19.504435   0.000000
    5       22.474704   0.000000
    6       24.259712   0.000000
    7       25.332864   0.000000
    8       25.917980   0.000000
 
  0.2941176E+00  0.5882353E-01  0.0000000E+00  0.4884999E-02
    1       -2.008814   1.000000
    2       10.598704   0.000000
    3       17.787663   0.000000
    4       19.115225   0.000000
    5       21.703572   0.000000
    6       24.152251   0.000000
    7       24.480925   0.000000
    8       27.242649   0.000000
 
  0.3529412E+00  0.5882353E-01  0.0000000E+00  0.4884999E-02
    1       -0.982235   1.000000
    2        8.385332   1.000000
    3       17.676977   0.000000
    4       18.769905   0.000000
    5       20.989557   0.000000
    6       23.571181   0.000000
    7       24.129492   0.000000
    8       28.086294   0.000000
 
  0.4117647E+00  0.5882353E-01  0.0000000E+00  0.4884999E-02
    1        0.233687   1.000000
    2        6.331854   1.000000
    3       17.726493   0.000000
    4       18.387874   0.000000
    5       20.592501   0.000000
    6       22.764797   0.000000
    7       24.158339   0.000000
    8       27.474736   0.000000
 
  0.4705882E+00  0.5882353E-01  0.0000000E+00  0.4884999E-02
    1        1.624126   1.000000
    2        4.460162   1.000000
    3       17.928098   0.000000
    4       17.957583   0.000000
    5       20.572540   0.000000
    6       22.124344   0.000000
    7       24.187833   0.000000
    8       27.020051   0.000000
 
 -0.4705882E+00  0.5882353E-01  0.0000000E+00  0.4884999E-02
    1        2.554376   1.000000
    2        3.409524   1.000000
    3       17.557260   0.000000
    4       18.261471   0.000000
    5       20.863877   0.000000
    6       21.687985   0.000000
    7       24.149637   0.000000
    8       26.939778   0.000000
 
 -0.4117647E+00  0.5882353E-01  0.0000000E+00  0.4884999E-02
    1        1.143715   1.000000
    2        5.060993   1.000000
    3       17.258527   0.000000
    4       18.688377   0.000000
    5       21.398672   0.000000
    6       21.494393   0.000000
    7       24.033906   0.000000
    8       27.252899   0.000000
 
 -0.3529412E+00  0.5882353E-01  0.0000000E+00  0.4884999E-02
    1       -0.192227   1.000000
    2        6.997309   1.000000
    3       17.099399   0.000000
    4       19.146818   0.000000
    5       21.604066   0.000000
    6       22.131248   0.000000
    7       23.914243   0.000000
    8       27.864389   0.000000
 
 -0.2941176E+00  0.5882353E-01  0.0000000E+00  0.4884999E-02
    1       -1.345799   1.000000
    2        9.105755   1.000000
    3       17.097365   0.000000
    4       19.579401   0.000000
    5       22.057259   0.000000
    6       23.026065   0.000000
    7       23.851101   0.000000
    8       28.613423   0.000000
 
 -0.2352941E+00  0.5882353E-01  0.0000000E+00  0.4884999E-02
    1       -2.308058   1.000000
    2       11.368004   0.000000
    3       17.260511   0.000000
    4       19.997324   0.000000
    5       22.775166   0.000000
    6       23.854420   0.000000
    7       24.023268   0.000000
    8       27.204298   0.000000
 
 -0.1764706E+00  0.5882353E-01  0.0000000E+00  0.4884999E-02
    1       -3.074945   1.000000
    2       13.761352   0.000000
    3       17.593438   0.000000
    4       20.460395   0.000000
    5       23.419805   0.000000
    6       23.883717   0.000000
    7       24.927648   0.000000
    8       26.047394   0.000000
 
 -0.1176471E+00  0.5882353E-01  0.0000000E+00  0.4884999E-02
    1       -3.643816   1.000000
    2       16.241744   0.000000
    3       18.092855   0.000000
    4       20.995574   0.000000
    5       23.113062   0.000000
    6       23.813480   0.000000
    7       25.018024   0.000000
    8       26.215984   0.000000
 
 -0.5882353E-01  0.5882353E-01  0.0000000E+00  0.2442499E-02
    1       -4.012826   1.000000
    2       18.626963   0.000000
    3       18.828752   0.000000
    4       21.392627   0.000000
    5       22.395998   0.000000
    6       23.448525   0.000000
    7       24.215591   0.000000
    8       27.323345   0.000000
 
  0.1176471E+00  0.1176471E+00  0.0000000E+00  0.1221250E-02
    1       -3.744323   1.000000
    2       18.293743   0.000000
    3       18.293743   0.000000
    4       19.958276   0.000000
    5       20.153049   0.000000
    6       24.748575   0.000000
    7       25.814700   0.000000
    8       25.814701   0.000000
 
  0.1764706E+00  0.1176471E+00  0.0000000E+00  0.4884999E-02
    1       -3.375776   1.000000
    2       16.396927   0.000000
    3       17.630140   0.000000
    4       19.448582   0.000000
    5       20.450378   0.000000
    6       23.447770   0.000000
    7       26.484570   0.000000
    8       26.765854   0.000000
 
  0.2352941E+00  0.1176471E+00  0.0000000E+00  0.4884999E-02
    1       -2.807588   1.000000
    2       13.977337   0.000000
    3       17.133421   0.000000
    4       18.864344   0.000000
    5       20.730231   0.000000
    6       23.156484   0.000000
    7       26.675804   0.000000
    8       26.932496   0.000000
 
  0.2941176E+00  0.1176471E+00  0.0000000E+00  0.4884999E-02
    1       -2.041617   1.000000
    2       11.603607   0.000000
    3       16.807420   0.000000
    4       18.273668   0.000000
    5       20.141382   0.000000
    6       24.150394   0.000000
    7       26.222281   0.000000
    8       26.817828   0.000000
 
  0.3529412E+00  0.1176471E+00  0.0000000E+00  0.4884999E-02
    1       -1.080538   1.000000
    2        9.350912   1.000000
    3       16.653613   0.000000
    4       17.601342   0.000000
    5       19.633338   0.000000
    6       25.219577   0.000000
    7       25.327174   0.000000
    8       27.345146   0.000000
 
  0.4117647E+00  0.1176471E+00  0.0000000E+00  0.4884999E-02
    1        0.071642   1.000000
    2        7.248083   1.000000
    3       16.669532   0.000000
    4       16.870915   0.000000
    5       19.460074   0.000000
    6       24.482958   0.000000
    7       25.675527   0.000000
    8       28.609533   0.000000
 
  0.4705882E+00  0.1176471E+00  0.0000000E+00  0.4884999E-02
    1        1.406175   1.000000
    2        5.315395   1.000000
    3       16.186488   0.000000
    4       16.853342   0.000000
    5       19.574049   0.000000
    6       23.768124   0.000000
    7       25.731637   0.000000
    8       29.113653   0.000000
 
 -0.4705882E+00  0.1176471E+00  0.0000000E+00  0.4884999E-02
    1        2.818173   1.000000
    2        3.662908   1.000000
    3       15.619137   0.000000
    4       17.199720   0.000000
    5       19.918765   0.000000
    6       23.214219   0.000000
    7       25.610727   0.000000
    8       29.083153   0.000000
 
 -0.4117647E+00  0.1176471E+00  0.0000000E+00  0.4884999E-02
    1        1.886230   1.000000
    2        4.714719   1.000000
    3       15.202336   0.000000
    4       17.701095   0.000000
    5       20.469895   0.000000
    6       22.843639   0.000000
    7       25.416673   0.000000
    8       29.341384   0.000000
 
 -0.3529412E+00  0.1176471E+00  0.0000000E+00  0.4884999E-02
    1        0.496929   1.000000
    2        6.582489   1.000000
    3       14.950183   0.000000
    4       18.340742   0.000000
    5       21.205719   0.000000
    6       22.669540   0.000000
    7       25.222803   0.000000
    8       29.790345   0.000000
 
 -0.2941176E+00  0.1176471E+00  0.0000000E+00  0.4884999E-02
    1       -0.717594   1.000000
    2        8.629214   1.000000
    3       14.872875   0.000000
    4       19.090825   0.000000
    5       22.111031   0.000000
    6       22.713379   0.000000
    7       25.071362   0.000000
    8       28.410756   0.000000
 
 -0.2352941E+00  0.1176471E+00  0.0000000E+00  0.4884999E-02
    1       -1.742951   1.000000
    2       10.830065   0.000000
    3       14.974137   0.000000
    4       19.899873   0.000000
    5       22.986137   0.000000
    6       23.152377   0.000000
    7       24.953948   0.000000
    8       26.639941   0.000000
 
 -0.1764706E+00  0.1176471E+00  0.0000000E+00  0.4884999E-02
    1       -2.574289   1.000000
    2       13.153361   0.000000
    3       15.264147   0.000000
    4       20.684413   0.000000
    5       23.387714   0.000000
    6       24.254764   0.000000
    7       24.793222   0.000000
    8       25.249305   0.000000
 
 -0.1176471E+00  0.1176471E+00  0.0000000E+00  0.2442499E-02
    1       -3.208605   1.000000
    2       15.366456   0.000000
    3       15.931059   0.000000
    4       21.258507   0.000000
    5       23.168516   0.000000
    6       24.421890   0.000000
    7       25.132371   0.000000
    8       25.164473   0.000000
 
  0.1764706E+00  0.1764706E+00  0.0000000E+00  0.1221250E-02
    1       -3.074615   1.000000
    2       16.909705   0.000000
    3       16.909706   0.000000
    4       18.516889   0.000000
    5       18.822994   0.000000
    6       21.905434   0.000000
    7       27.955219   0.000000
    8       27.955220   0.000000
 
  0.2352941E+00  0.1764706E+00  0.0000000E+00  0.4884999E-02
    1       -2.573825   1.000000
    2       15.090272   0.000000
    3       16.356273   0.000000
    4       17.933460   0.000000
    5       18.822142   0.000000
    6       21.120231   0.000000
    7       28.570249   0.000000
    8       28.645204   0.000000
 
  0.2941176E+00  0.1764706E+00  0.0000000E+00  0.4884999E-02
    1       -1.874961   1.000000
    2       12.758412   0.000000
    3       15.974655   0.000000
    4       17.020698   0.000000
    5       18.751176   0.000000
    6       21.804143   0.000000
    7       28.091973   0.000000
    8       28.853210   0.000000
 
  0.3529412E+00  0.1764706E+00  0.0000000E+00  0.4884999E-02
    1       -0.980417   1.000000
    2       10.486010   0.000000
    3       15.766410   0.000000
    4       16.033739   0.000000
    5       18.488849   0.000000
    6       23.287843   0.000000
    7       27.250638   0.000000
    8       28.887038   0.000000
 
  0.4117647E+00  0.1764706E+00  0.0000000E+00  0.4884999E-02
    1        0.106418   1.000000
    2        8.343721   1.000000
    3       15.090545   0.000000
    4       15.730736   0.000000
    5       18.405758   0.000000
    6       24.949616   0.000000
    7       26.395520   0.000000
    8       28.907043   0.000000
 
  0.4705882E+00  0.1764706E+00  0.0000000E+00  0.4884999E-02
    1        1.379323   1.000000
    2        6.359443   1.000000
    3       14.264825   0.000000
    4       15.867826   0.000000
    5       18.533796   0.000000
    6       25.644127   0.000000
    7       26.391949   0.000000
    8       29.176515   0.000000
 
 -0.4705882E+00  0.1764706E+00  0.0000000E+00  0.4884999E-02
    1        2.809461   1.000000
    2        4.571047   1.000000
    3       13.593061   0.000000
    4       16.175768   0.000000
    5       18.863844   0.000000
    6       25.036242   0.000000
    7       27.006681   0.000000
    8       30.186188   0.000000
 
 -0.4117647E+00  0.1764706E+00  0.0000000E+00  0.4884999E-02
    1        2.809784   1.000000
    2        4.569652   1.000000
    3       13.090913   0.000000
    4       16.649967   0.000000
    5       19.386464   0.000000
    6       24.590414   0.000000
    7       26.969463   0.000000
    8       31.479748   0.000000
 
 -0.3529412E+00  0.1764706E+00  0.0000000E+00  0.4884999E-02
    1        1.379086   1.000000
    2        6.354732   1.000000
    3       12.767166   0.000000
    4       17.283973   0.000000
    5       20.093099   0.000000
    6       24.317741   0.000000
    7       26.748886   0.000000
    8       30.149969   0.000000
 
 -0.2941176E+00  0.1764706E+00  0.0000000E+00  0.4884999E-02
    1        0.105864   1.000000
    2        8.331439   1.000000
    3       12.629424   0.000000
    4       18.066266   0.000000
    5       20.972129   0.000000
    6       24.231729   0.000000
    7       26.485725   0.000000
    8       28.137520   0.000000
 
 -0.2352941E+00  0.1764706E+00  0.0000000E+00  0.4884999E-02
    1       -0.981003   1.000000
    2       10.445491   0.000000
    3       12.696438   0.000000
    4       18.970422   0.000000
    5       22.002109   0.000000
    6       24.338809   0.000000
    7       26.153274   0.000000
    8       26.266276   0.000000
 
 -0.1764706E+00  0.1764706E+00  0.0000000E+00  0.2442499E-02
    1       -1.875516   1.000000
    2       12.423089   0.000000
    3       13.219021   0.000000
    4       19.930133   0.000000
    5       23.139125   0.000000
    6       24.458692   0.000000
    7       24.811950   0.000000
    8       25.616761   0.000000
 
  0.2352941E+00  0.2352941E+00  0.0000000E+00  0.1221250E-02
    1       -2.140622   1.000000
    2       15.745761   0.000000
    3       15.745762   0.000000
    4       16.760357   0.000000
    5       17.249280   0.000000
    6       19.830898   0.000000
    7       30.051530   0.000000
    8       30.051530   0.000000
 
  0.2941176E+00  0.2352941E+00  0.0000000E+00  0.4884999E-02
    1       -1.509403   1.000000
    2       13.993489   0.000000
    3       15.306121   0.000000
    4       15.587728   0.000000
    5       17.468289   0.000000
    6       19.698715   0.000000
    7       30.014516   0.000000
    8       30.722604   0.000000
 
  0.3529412E+00  0.2352941E+00  0.0000000E+00  0.4884999E-02
    1       -0.682223   1.000000
    2       11.765421   0.000000
    3       14.407886   0.000000
    4       15.040994   0.000000
    5       17.527867   0.000000
    6       20.848408   0.000000
    7       29.274256   0.000000
    8       30.882050   0.000000
 
  0.4117647E+00  0.2352941E+00  0.0000000E+00  0.4884999E-02
    1        0.337854   1.000000
    2        9.605966   1.000000
    3       13.331624   0.000000
    4       14.950174   0.000000
    5       17.501248   0.000000
    6       22.552406   0.000000
    7       28.449374   0.000000
    8       30.745621   0.000000
 
  0.4705882E+00  0.2352941E+00  0.0000000E+00  0.4884999E-02
    1        1.545996   1.000000
    2        7.582409   1.000000
    3       12.405341   0.000000
    4       15.033555   0.000000
    5       17.614254   0.000000
    6       24.454949   0.000000
    7       27.681929   0.000000
    8       30.448689   0.000000
 
 -0.4705882E+00  0.2352941E+00  0.0000000E+00  0.4884999E-02
    1        2.928560   1.000000
    2        5.727999   1.000000
    3       11.648387   0.000000
    4       15.289828   0.000000
    5       17.906717   0.000000
    6       26.369623   0.000000
    7       27.034011   0.000000
    8       30.124477   0.000000
 
 -0.4117647E+00  0.2352941E+00  0.0000000E+00  0.4884999E-02
    1        3.867754   1.000000
    2        4.667131   1.000000
    3       11.071840   0.000000
    4       15.717224   0.000000
    5       18.385744   0.000000
    6       26.534826   0.000000
    7       27.888030   0.000000
    8       30.087406   0.000000
 
 -0.3529412E+00  0.2352941E+00  0.0000000E+00  0.4884999E-02
    1        2.450413   1.000000
    2        6.310930   1.000000
    3       10.685089   0.000000
    4       16.312208   0.000000
    5       19.047571   0.000000
    6       26.197827   0.000000
    7       28.261780   0.000000
    8       30.135337   0.000000
 
 -0.2941176E+00  0.2352941E+00  0.0000000E+00  0.4884999E-02
    1        1.121699   1.000000
    2        8.190879   1.000000
    3       10.511909   0.000000
    4       17.067562   0.000000
    5       19.885273   0.000000
    6       26.027128   0.000000
    7       27.903838   0.000000
    8       28.055935   0.000000
 
 -0.2352941E+00  0.2352941E+00  0.0000000E+00  0.2442499E-02
    1       -0.024831   1.000000
    2        9.925421   1.000000
    3       10.834273   0.000000
    4       17.968110   0.000000
    5       20.881857   0.000000
    6       25.915584   0.000000
    7       26.236699   0.000000
    8       27.190102   0.000000
 
  0.2941176E+00  0.2941176E+00  0.0000000E+00  0.1221250E-02
    1       -0.946108   1.000000
    2       14.108656   0.000000
    3       14.809191   0.000000
    4       14.809192   0.000000
    5       16.200995   0.000000
    6       18.589687   0.000000
    7       31.822740   0.000000
    8       32.012084   0.000000
 
  0.3529412E+00  0.2941176E+00  0.0000000E+00  0.4884999E-02
    1       -0.187003   1.000000
    2       12.713604   0.000000
    3       13.278955   0.000000
    4       14.486543   0.000000
    5       16.538006   0.000000
    6       18.780204   0.000000
    7       31.320923   0.000000
    8       32.606643   0.000000
 
  0.4117647E+00  0.2941176E+00  0.0000000E+00  0.4884999E-02
    1        0.765243   1.000000
    2       10.951536   0.000000
    3       11.752622   0.000000
    4       14.338529   0.000000
    5       16.721576   0.000000
    6       20.147800   0.000000
    7       30.576077   0.000000
    8       32.631522   0.000000
 
  0.4705882E+00  0.2941176E+00  0.0000000E+00  0.4884999E-02
    1        1.906043   1.000000
    2        8.954655   1.000000
    3       10.694588   0.000000
    4       14.365406   0.000000
    5       16.843655   0.000000
    6       22.011749   0.000000
    7       29.827985   0.000000
    8       32.288748   0.000000
 
 -0.4705882E+00  0.2941176E+00  0.0000000E+00  0.4884999E-02
    1        3.226423   1.000000
    2        7.065637   1.000000
    3        9.850248   1.000000
    4       14.566631   0.000000
    5       17.100158   0.000000
    6       24.076804   0.000000
    7       29.155425   0.000000
    8       31.735986   0.000000
 
 -0.4117647E+00  0.2941176E+00  0.0000000E+00  0.4884999E-02
    1        4.642230   1.000000
    2        5.410863   1.000000
    3        9.203440   1.000000
    4       14.941078   0.000000
    5       17.531276   0.000000
    6       26.217636   0.000000
    7       28.608490   0.000000
    8       31.054986   0.000000
 
 -0.3529412E+00  0.2941176E+00  0.0000000E+00  0.4884999E-02
    1        3.704241   1.000000
    2        6.427902   1.000000
    3        8.776095   1.000000
    4       15.486864   0.000000
    5       18.143193   0.000000
    6       28.192808   0.000000
    7       28.271903   0.000000
    8       30.236348   0.000000
 
 -0.2941176E+00  0.2941176E+00  0.0000000E+00  0.2442499E-02
    1        2.325311   1.000000
    2        7.912744   1.000000
    3        8.861805   1.000000
    4       16.198945   0.000000
    5       18.932471   0.000000
    6       27.696145   0.000000
    7       28.468136   0.000000
    8       29.160327   0.000000
 
  0.3529412E+00  0.3529412E+00  0.0000000E+00  0.1221250E-02
    1        0.503657   1.000000
    2       11.385319   0.000000
    3       14.105512   0.000000
    4       14.105513   0.000000
    5       15.412639   0.000000
    6       17.789435   0.000000
    7       32.926474   0.000000
    8       33.787698   0.000000
 
  0.4117647E+00  0.3529412E+00  0.0000000E+00  0.4884999E-02
    1        1.386646   1.000000
    2       10.122271   0.999603
    3       12.586149   0.000000
    4       13.899789   0.000000
    5       15.886494   0.000000
    6       18.157491   0.000000
    7       32.632329   0.000000
    8       34.250605   0.000000
 
  0.4705882E+00  0.3529412E+00  0.0000000E+00  0.4884999E-02
    1        2.457517   1.000000
    2        9.016535   1.000000
    3       10.601589   0.000000
    4       13.869192   0.000000
    5       16.196458   0.000000
    6       19.679423   0.000000
    7       31.974506   0.000000
    8       34.071683   0.000000
 
 -0.4705882E+00  0.3529412E+00  0.0000000E+00  0.4884999E-02
    1        3.706895   1.000000
    2        8.023669   1.000000
    3        8.769752   1.000000
    4       14.013762   0.000000
    5       16.453442   0.000000
    6       21.680213   0.000000
    7       31.316518   0.000000
    8       33.477970   0.000000
 
 -0.4117647E+00  0.3529412E+00  0.0000000E+00  0.4884999E-02
    1        5.099269   1.000000
    2        6.713336   1.000000
    3        7.623409   1.000000
    4       14.332739   0.000000
    5       16.844040   0.000000
    6       23.878515   0.000000
    7       30.697303   0.000000
    8       32.595500   0.000000
 
 -0.3529412E+00  0.3529412E+00  0.0000000E+00  0.2442499E-02
    1        5.119886   1.000000
    2        6.398049   1.000000
    3        7.385376   1.000000
    4       14.824613   0.000000
    5       17.405553   0.000000
    6       26.151972   0.000000
    7       29.913440   0.000000
    8       31.060545   0.000000
 
  0.4117647E+00  0.4117647E+00  0.0000000E+00  0.1221250E-02
    1        2.198833   1.000000
    2        8.796337   1.000000
    3       13.635609   0.000000
    4       13.635610   0.000000
    5       14.883592   0.000000
    6       17.275838   0.000000
    7       33.992563   0.000000
    8       35.296737   0.000000
 
  0.4705882E+00  0.4117647E+00  0.0000000E+00  0.4884999E-02
    1        3.195077   1.000000
    2        7.641055   1.000000
    3       12.211132   0.000000
    4       13.547270   0.000000
    5       15.496250   0.000000
    6       17.786951   0.000000
    7       33.846795   0.000000
    8       35.528575   0.000000
 
 -0.4705882E+00  0.4117647E+00  0.0000000E+00  0.4884999E-02
    1        4.352509   1.000000
    2        6.687532   1.000000
    3       10.329596   0.006055
    4       13.634269   0.000000
    5       15.935315   0.000000
    6       19.443799   0.000000
    7       33.266682   0.000000
    8       35.015050   0.000000
 
 -0.4117647E+00  0.4117647E+00  0.0000000E+00  0.2442499E-02
    1        5.387417   1.000000
    2        6.206224   1.000000
    3        8.551999   1.000000
    4       13.896423   0.000000
    5       16.323609   0.000000
    6       21.567853   0.000000
    7       32.387316   0.000000
    8       33.818786   0.000000
 
  0.4705882E+00  0.4705882E+00  0.0000000E+00  0.1221250E-02
    1        4.097836   1.000000
    2        6.441167   1.000000
    3       13.400461   0.000000
    4       13.400462   0.000000
    5       14.618054   0.000000
    6       17.020626   0.000000
    7       34.715796   0.000000
    8       36.278781   0.000000
 
 -0.4705882E+00  0.4705882E+00  0.0000000E+00  0.2442499E-02
    1        4.881758   1.000000
    2        5.726228   1.000000
    3       12.086748   0.000000
    4       13.429684   0.000000
    5       15.365169   0.000000
    6       17.662295   0.000000
    7       34.462212   0.000000
    8       36.038654   0.000000
 
  0.1764706E+00  0.1176471E+00  0.5882353E-01  0.4884999E-02
    1       -3.610268   1.000000
    2       17.014121   0.000000
    3       17.362547   0.000000
    4       20.867224   0.000000
    5       21.414672   0.000000
    6       24.944441   0.000000
    7       25.196318   0.000000
    8       25.659138   0.000000
 
  0.2352941E+00  0.1176471E+00  0.5882353E-01  0.9769998E-02
    1       -3.108267   1.000000
    2       14.710012   0.000000
    3       16.670707   0.000000
    4       20.380403   0.000000
    5       21.981969   0.000000
    6       24.141221   0.000000
    7       25.569952   0.000000
    8       25.955483   0.000000
 
  0.2941176E+00  0.1176471E+00  0.5882353E-01  0.9769998E-02
    1       -2.407712   1.000000
    2       12.303879   0.000000
    3       16.277282   0.000000
    4       19.747186   0.000000
    5       21.725942   0.000000
    6       24.425383   0.000000
    7       25.397796   0.000000
    8       25.947280   0.000000
 
  0.3529412E+00  0.1176471E+00  0.5882353E-01  0.9769998E-02
    1       -1.510943   1.000000
    2       10.004183   1.000000
    3       16.059153   0.000000
    4       19.048212   0.000000
    5       21.214021   0.000000
    6       24.100759   0.000000
    7       25.172555   0.000000
    8       27.050121   0.000000
 
  0.4117647E+00  0.1176471E+00  0.5882353E-01  0.9769998E-02
    1       -0.421404   1.000000
    2        7.847575   1.000000
    3       16.012103   0.000000
    4       18.307655   0.000000
    5       20.948283   0.000000
    6       23.264859   0.000000
    7       25.242999   0.000000
    8       28.597609   0.000000
 
  0.4705882E+00  0.1176471E+00  0.5882353E-01  0.9769998E-02
    1        0.854681   1.000000
    2        5.854453   1.000000
    3       16.124536   0.000000
    4       17.618672   0.000000
    5       20.928314   0.000000
    6       22.523586   0.000000
    7       25.325201   0.000000
    8       28.774812   0.000000
 
 -0.4705882E+00  0.1176471E+00  0.5882353E-01  0.9769998E-02
    1        2.286685   1.000000
    2        4.062188   1.000000
    3       16.344641   0.000000
    4       17.096654   0.000000
    5       21.048875   0.000000
    6       22.023590   0.000000
    7       25.389333   0.000000
    8       28.462908   0.000000
 
  0.2352941E+00  0.1764706E+00  0.5882353E-01  0.4884999E-02
    1       -2.941040   1.000000
    2       15.579043   0.000000
    3       16.008838   0.000000
    4       19.448156   0.000000
    5       20.062287   0.000000
    6       22.373548   0.000000
    7       27.259521   0.000000
    8       27.442542   0.000000
 
  0.2941176E+00  0.1764706E+00  0.5882353E-01  0.9769998E-02
    1       -2.307496   1.000000
    2       13.379410   0.000000
    3       15.395674   0.000000
    4       18.604852   0.000000
    5       20.342005   0.000000
    6       22.487063   0.000000
    7       26.883032   0.000000
    8       27.866153   0.000000
 
  0.3529412E+00  0.1764706E+00  0.5882353E-01  0.9769998E-02
    1       -1.477183   1.000000
    2       11.069763   0.000000
    3       15.107461   0.000000
    4       17.609444   0.000000
    5       20.122960   0.000000
    6       23.717815   0.000000
    7       26.089660   0.000000
    8       28.004026   0.000000
 