       N       E                     dE             d eps       ncg     rms          rms(c)
DAV:   1    -0.342637780063E+01   -0.34264E+01   -0.14697E+03  2864   0.275E+02
DAV:   2    -0.489536197690E+01   -0.14690E+01   -0.14115E+01  4048   0.232E+01
DAV:   3    -0.490166954759E+01   -0.63076E-02   -0.63070E-02  2920   0.153E+00
DAV:   4    -0.490167426804E+01   -0.47205E-05   -0.47202E-05  4400   0.423E-02
DAV:   5    -0.490167426678E+01    0.12649E-08   -0.27694E-09  2976   0.230E-04    0.280E+00
DAV:   6    -0.488811966867E+01    0.13555E-01   -0.39051E-03  3000   0.274E-01    0.155E+00
DAV:   7    -0.488031733831E+01    0.78023E-02   -0.79155E-03  3136   0.389E-01    0.134E-01
DAV:   8    -0.488027861419E+01    0.38724E-04   -0.24550E-05  4024   0.392E-02    0.144E-02
DAV:   9    -0.488027887152E+01   -0.25733E-06   -0.37361E-07  3192   0.342E-03
   1 F= -.48802789E+01 E0= -.48800356E+01  d E =-.488028E+01
       N       E                     dE             d eps       ncg     rms          rms(c)
DAV:   1    -0.488450035490E+01   -0.42217E-02   -0.90379E-02  2840   0.118E+00    0.286E-01
DAV:   2    -0.488349770486E+01    0.10027E-02   -0.49548E-04  3600   0.161E-01    0.161E-01
DAV:   3    -0.488291149999E+01    0.58620E-03   -0.66520E-04  2912   0.108E-01    0.482E-02
DAV:   4    -0.488291072713E+01    0.77286E-06   -0.12149E-06  3912   0.942E-03    0.408E-02
DAV:   5    -0.488290703241E+01    0.36947E-05   -0.23940E-07  2008   0.337E-03    0.812E-03
DAV:   6    -0.488290729056E+01   -0.25815E-06   -0.80900E-09  1520   0.756E-04
   2 F= -.48829073E+01 E0= -.48826209E+01  d E =-.262842E-02
       N       E                     dE             d eps       ncg     rms          rms(c)
DAV:   1    -0.488293742088E+01   -0.30388E-04   -0.60025E-04  2856   0.971E-02    0.227E-02
DAV:   2    -0.488293074585E+01    0.66750E-05   -0.32364E-06  3616   0.130E-02    0.127E-02
DAV:   3    -0.488292722441E+01    0.35214E-05   -0.43945E-06  2904   0.881E-03    0.405E-03
DAV:   4    -0.488292724509E+01   -0.20681E-07   -0.76411E-09  1448   0.762E-04    0.344E-03
DAV:   5    -0.488292741573E+01   -0.17064E-06   -0.21805E-09  1400   0.351E-04    0.503E-04
DAV:   6    -0.488292739721E+01    0.18527E-07   -0.71740E-11  1392   0.681E-05
   3 F= -.48829274E+01 E0= -.48826533E+01  d E =-.264853E-02
