 vasp.6.2.0 18Jan21 (build Aug 12 2022 13:00:08) complex                        
  
 executed on             LinuxIFC date 2024.11.03  21:57:41
 running on    4 total cores
 distrk:  each k-point on    4 cores,    1 groups
 distr:  one band on NCORE=   1 cores,    4 groups


--------------------------------------------------------------------------------------------------------


 INCAR:
   ISTART = 0            (Read existing wavefunction, if there)
   ISPIN = 1            (Non-Spin polarised DFT)
   LREAL = .FALSE.       (Projection operators: automatic)
   LWAVE = .FALSE.        (Write WAVECAR or not)
   LCHARG = .FALSE.        (Write CHGCAR or not)
   ADDGRID = .TRUE.        (Increase grid, helps GGA convergence)
   LASPH = .TRUE.        (Give more accurate total energies and band structure calculations)
   PREC = Accurate      (Accurate strictly avoids any aliasing or wrap around errors)
   ENCUT = 350          (Cut-off energy for plane wave basis set, in eV)
   ISMEAR = 0            (Gaussian smearing, metals:1)
   SIGMA = 0.05         (Smearing value in eV, metals:0.2)
   NELM = 90           (Max electronic SCF steps)
   NELMIN = 6            (Min electronic SCF steps)
   EDIFF = 1E-06        (SCF energy convergence, in eV)
   NSW = 100          (Max ionic steps)
   IBRION = 2            (Algorithm: 0-MD, 1-Quasi-New, 2-CG)
   ISIF = 3            (Stress/relaxation: 2-Ions, 3-Shape/Ions/V, 4-Shape/Ions)
   EDIFFG = -2E-03        (Ionic convergence, eV/AA)
   ISYM = 2              (Symmetry: 0\=none, 2\=GGA, 3\=hybrids)

 POTCAR:    PAW_PBE Si 05Jan2001                  
 POTCAR:    PAW_PBE Si 05Jan2001                  
   VRHFIN =Si: s2p2                                                                                 
   LEXCH  = PE                                                                                      
   EATOM  =   103.0669 eV,    7.5752 Ry                                                             
                                                                                                    
   TITEL  = PAW_PBE Si 05Jan2001                                                                    
   LULTRA =        F    use ultrasoft PP ?                                                          
   IUNSCR =        1    unscreen: 0-lin 1-nonlin 2-no                                               
   RPACOR =    1.500    partial core radius                                                         
   POMASS =   28.085; ZVAL   =    4.000    mass and valenz                                          
   RCORE  =    1.900    outmost cutoff radius                                                       
   RWIGS  =    2.480; RWIGS  =    1.312    wigner-seitz radius (au A)                               
   ENMAX  =  245.345; ENMIN  =  184.009 eV                                                          
   ICORE  =        2    local potential                                                             
   LCOR   =        T    correct aug charges                                                         
   LPAW   =        T    paw PP                                                                      
   EAUG   =  322.069                                                                                
   DEXC   =    0.000                                                                                
   RMAX   =    1.950    core radius for proj-oper                                                   
   RAUG   =    1.300    factor for augmentation sphere                                              
   RDEP   =    1.993    radius for radial grids                                                     
   RDEPT  =    1.837    core radius for aug-charge                                                  
                                                                                                    
   Atomic configuration                                                                             
    6 entries                                                                                       
     n  l   j            E        occ.                                                              
     1  0  0.50     -1785.8828   2.0000                                                             
     2  0  0.50      -139.4969   2.0000                                                             
     2  1  1.50       -95.5546   6.0000                                                             
     3  0  0.50       -10.8127   2.0000                                                             
     3  1  0.50        -4.0811   2.0000                                                             
     3  2  1.50        -4.0817   0.0000                                                             
   Description                                                                                      
     l       E           TYP  RCUT    TYP  RCUT                                                     
     0    -10.8127223     23  1.900                                                                 
     0     -7.6451159     23  1.900                                                                 
     1     -4.0811372     23  1.900                                                                 
     1      2.4879257     23  1.900                                                                 
     2     -4.0817478      7  1.900                                                                 
  local pseudopotential read in
  partial core-charges read in
  partial kinetic energy density read in
  atomic valenz-charges read in
  non local Contribution for L=           0  read in
    real space projection operators read in
  non local Contribution for L=           0  read in
    real space projection operators read in
  non local Contribution for L=           1  read in
    real space projection operators read in
  non local Contribution for L=           1  read in
    real space projection operators read in
    PAW grid and wavefunctions read in
 
   number of l-projection  operators is LMAX  =           4
   number of lm-projection operators is LMMAX =           8
 
  PAW_PBE Si 05Jan2001                  :
 energy of atom  1       EATOM= -103.0669
 kinetic energy error for atom=    0.0013 (will be added to EATOM!!)
 
 
 POSCAR: Si1
  positions in direct lattice
  No initial velocities read in
 exchange correlation table for  LEXCH =        8
   RHO(1)=    0.500       N(1)  =     2000
   RHO(2)=  100.500       N(2)  =     4000
 


--------------------------------------------------------------------------------------------------------


 ion  position               nearest neighbor table
   1  0.000  0.000  0.000-
 
  LATTYP: Found a face centered cubic cell.
 ALAT       =     3.8332789147
  
  Lattice vectors:
  
 A1 = (   2.3473950000,   0.0000000000,   1.3552680000)
 A2 = (   0.7824650000,   2.2131450000,   1.3552680000)
 A3 = (   0.0000000000,   0.0000000000,   2.7105380000)


Analysis of symmetry for initial positions (statically):
=====================================================================
 Subroutine PRICEL returns:
 Original cell was already a primitive cell.
 

 Routine SETGRP: Setting up the symmetry group for a 
 face centered cubic supercell.


 Subroutine GETGRP returns: Found 48 space group operations
 (whereof 48 operations were pure point group operations)
 out of a pool of 48 trial point group operations.


The static configuration has the point symmetry O_h .


Analysis of symmetry for dynamics (positions and initial velocities):
=====================================================================
 Subroutine PRICEL returns:
 Original cell was already a primitive cell.
 

 Routine SETGRP: Setting up the symmetry group for a 
 face centered cubic supercell.


 Subroutine GETGRP returns: Found 48 space group operations
 (whereof 48 operations were pure point group operations)
 out of a pool of 48 trial point group operations.


The dynamic configuration has the point symmetry O_h .


 Subroutine INISYM returns: Found 48 space group operations
 (whereof 48 operations are pure point group operations),
 and found     1 'primitive' translations


----------------------------------------------------------------------------------------

                                     Primitive cell                                     

  volume of cell :      14.0816

  direct lattice vectors                    reciprocal lattice vectors
     2.347395000  0.000000000  1.355268000     0.426004145 -0.150615226  0.000000000
     0.782465000  2.213145000  1.355268000     0.000000000  0.451845677  0.000000000
     0.000000000  0.000000000  2.710538000    -0.213001915 -0.150615114  0.368930448

  length of vectors
     2.710537703  2.710537515  2.710538000     0.451845635  0.451845677  0.451845554

  position of ions in fractional coordinates (direct lattice)
     0.000000000  0.000000000  0.000000000

  ion indices of the primitive-cell ions
   primitive index   ion index
                 1           1

----------------------------------------------------------------------------------------

 
 
 KPOINTS: Automatic                               

Automatic generation of k-mesh.
 Grid dimensions read from file:
 generate k-points for:   17   17   17

 Generating k-lattice:

  Cartesian coordinates                     Fractional coordinates (reciprocal lattice)
     0.025059067 -0.008859719  0.000000000     0.058823529  0.000000000  0.000000000
     0.000000000  0.026579157  0.000000000     0.000000000  0.058823529  0.000000000
    -0.012529524 -0.008859713  0.021701791    -0.000000000 -0.000000000  0.058823529

  Length of vectors
     0.026579155  0.026579157  0.026579150

  Shift w.r.t. Gamma in fractional coordinates (k-lattice)
     0.000000000  0.000000000  0.000000000

 
 Subroutine IBZKPT returns following result:
 ===========================================
 
 Found    165 irreducible k-points:
 
 Following reciprocal coordinates:
            Coordinates               Weight
  0.000000  0.000000  0.000000      1.000000
  0.058824  0.000000  0.000000      8.000000
  0.117647  0.000000  0.000000      8.000000
  0.176471  0.000000  0.000000      8.000000
  0.235294  0.000000  0.000000      8.000000
  0.294118 -0.000000  0.000000      8.000000
  0.352941 -0.000000  0.000000      8.000000
  0.411765  0.000000  0.000000      8.000000
  0.470588  0.000000  0.000000      8.000000
  0.058824  0.058824  0.000000      6.000000
  0.117647  0.058824  0.000000     24.000000
  0.176471  0.058824  0.000000     24.000000
  0.235294  0.058824  0.000000     24.000000
  0.294118  0.058824  0.000000     24.000000
  0.352941  0.058824  0.000000     24.000000
  0.411765  0.058824  0.000000     24.000000
  0.470588  0.058824  0.000000     24.000000
 -0.470588  0.058824  0.000000     24.000000
 -0.411765  0.058824  0.000000     24.000000
 -0.352941  0.058824  0.000000     24.000000
 -0.294118  0.058824  0.000000     24.000000
 -0.235294  0.058824  0.000000     24.000000
 -0.176471  0.058824  0.000000     24.000000
 -0.117647  0.058824  0.000000     24.000000
 -0.058824  0.058824  0.000000     12.000000
  0.117647  0.117647  0.000000      6.000000
  0.176471  0.117647  0.000000     24.000000
  0.235294  0.117647  0.000000     24.000000
  0.294118  0.117647  0.000000     24.000000
  0.352941  0.117647  0.000000     24.000000
  0.411765  0.117647  0.000000     24.000000
  0.470588  0.117647  0.000000     24.000000
 -0.470588  0.117647  0.000000     24.000000
 -0.411765  0.117647  0.000000     24.000000
 -0.352941  0.117647  0.000000     24.000000
 -0.294118  0.117647  0.000000     24.000000
 -0.235294  0.117647  0.000000     24.000000
 -0.176471  0.117647  0.000000     24.000000
 -0.117647  0.117647  0.000000     12.000000
  0.176471  0.176471  0.000000      6.000000
  0.235294  0.176471  0.000000     24.000000
  0.294118  0.176471  0.000000     24.000000
  0.352941  0.176471  0.000000     24.000000
  0.411765  0.176471  0.000000     24.000000
  0.470588  0.176471  0.000000     24.000000
 -0.470588  0.176471  0.000000     24.000000
 -0.411765  0.176471  0.000000     24.000000
 -0.352941  0.176471  0.000000     24.000000
 -0.294118  0.176471  0.000000     24.000000
 -0.235294  0.176471  0.000000     24.000000
 -0.176471  0.176471  0.000000     12.000000
  0.235294  0.235294  0.000000      6.000000
  0.294118  0.235294  0.000000     24.000000
  0.352941  0.235294  0.000000     24.000000
  0.411765  0.235294  0.000000     24.000000
  0.470588  0.235294  0.000000     24.000000
 -0.470588  0.235294  0.000000     24.000000
 -0.411765  0.235294  0.000000     24.000000
 -0.352941  0.235294  0.000000     24.000000
 -0.294118  0.235294  0.000000     24.000000
 -0.235294  0.235294  0.000000     12.000000
  0.294118  0.294118  0.000000      6.000000
  0.352941  0.294118  0.000000     24.000000
  0.411765  0.294118  0.000000     24.000000
  0.470588  0.294118  0.000000     24.000000
 -0.470588  0.294118  0.000000     24.000000
 -0.411765  0.294118  0.000000     24.000000
 -0.352941  0.294118  0.000000     24.000000
 -0.294118  0.294118  0.000000     12.000000
  0.352941  0.352941  0.000000      6.000000
  0.411765  0.352941  0.000000     24.000000
  0.470588  0.352941  0.000000     24.000000
 -0.470588  0.352941  0.000000     24.000000
 -0.411765  0.352941  0.000000     24.000000
 -0.352941  0.352941  0.000000     12.000000
  0.411765  0.411765  0.000000      6.000000
  0.470588  0.411765  0.000000     24.000000
 -0.470588  0.411765  0.000000     24.000000
 -0.411765  0.411765  0.000000     12.000000
  0.470588  0.470588  0.000000      6.000000
 -0.470588  0.470588  0.000000     12.000000
  0.176471  0.117647  0.058824     24.000000
  0.235294  0.117647  0.058824     48.000000
  0.294118  0.117647  0.058824     48.000000
  0.352941  0.117647  0.058824     48.000000
  0.411765  0.117647  0.058824     48.000000
  0.470588  0.117647  0.058824     48.000000
 -0.470588  0.117647  0.058824     48.000000
  0.235294  0.176471  0.058824     24.000000
  0.294118  0.176471  0.058824     48.000000
  0.352941  0.176471  0.058824     48.000000
  0.411765  0.176471  0.058824     48.000000
  0.470588  0.176471  0.058824     48.000000
 -0.470588  0.176471  0.058824     48.000000
 -0.411765  0.176471  0.058824     48.000000
 -0.352941  0.176471  0.058824     48.000000
 -0.294118  0.176471  0.058824     48.000000
 -0.235294  0.176471  0.058824     48.000000
 -0.176471  0.176471  0.058824     48.000000
 -0.117647  0.176471  0.058824     24.000000
  0.294118  0.235294  0.058824     24.000000
  0.352941  0.235294  0.058824     48.000000
  0.411765  0.235294  0.058824     48.000000
  0.470588  0.235294  0.058824     48.000000
 -0.470588  0.235294  0.058824     48.000000
 -0.411765  0.235294  0.058824     48.000000
 -0.352941  0.235294  0.058824     48.000000
 -0.294118  0.235294  0.058824     48.000000
 -0.235294  0.235294  0.058824     48.000000
 -0.176471  0.235294  0.058824     24.000000
  0.352941  0.294118  0.058824     24.000000
  0.411765  0.294118  0.058824     48.000000
  0.470588  0.294118  0.058824     48.000000
 -0.470588  0.294118  0.058824     48.000000
 -0.411765  0.294118  0.058824     48.000000
 -0.352941  0.294118  0.058824     48.000000
 -0.294118  0.294118  0.058824     48.000000
 -0.235294  0.294118  0.058824     24.000000
  0.411765  0.352941  0.058824     24.000000
  0.470588  0.352941  0.058824     48.000000
 -0.470588  0.352941  0.058824     48.000000
 -0.411765  0.352941  0.058824     48.000000
 -0.352941  0.352941  0.058824     48.000000
 -0.294118  0.352941  0.058824     24.000000
  0.470588  0.411765  0.058824     24.000000
 -0.470588  0.411765  0.058824     48.000000
 -0.411765  0.411765  0.058824     48.000000
 -0.352941  0.411765  0.058824     24.000000
 -0.470588  0.470588  0.058824     24.000000
 -0.411765  0.470588  0.058824     24.000000
  0.352941  0.235294  0.117647     24.000000
  0.411765  0.235294  0.117647     48.000000
  0.470588  0.235294  0.117647     48.000000
 -0.470588  0.235294  0.117647     48.000000
 -0.411765  0.235294  0.117647     48.000000
  0.411765  0.294118  0.117647     24.000000
  0.470588  0.294118  0.117647     48.000000
 -0.470588  0.294118  0.117647     48.000000
 -0.411765  0.294118  0.117647     48.000000
 -0.352941  0.294118  0.117647     48.000000
 -0.294118  0.294118  0.117647     48.000000
 -0.235294  0.294118  0.117647     48.000000
 -0.176471  0.294118  0.117647     24.000000
  0.470588  0.352941  0.117647     24.000000
 -0.470588  0.352941  0.117647     48.000000
 -0.411765  0.352941  0.117647     48.000000
 -0.352941  0.352941  0.117647     48.000000
 -0.294118  0.352941  0.117647     48.000000
 -0.235294  0.352941  0.117647     24.000000
 -0.470588  0.411765  0.117647     24.000000
 -0.411765  0.411765  0.117647     48.000000
 -0.352941  0.411765  0.117647     48.000000
 -0.294118  0.411765  0.117647     24.000000
 -0.411765  0.470588  0.117647     24.000000
 -0.352941  0.470588  0.117647     24.000000
 -0.470588  0.352941  0.176471     24.000000
 -0.411765  0.352941  0.176471     48.000000
 -0.352941  0.352941  0.176471     48.000000
 -0.411765  0.411765  0.176471     24.000000
 -0.352941  0.411765  0.176471     48.000000
 -0.294118  0.411765  0.176471     48.000000
 -0.235294  0.411765  0.176471     24.000000
 -0.352941  0.470588  0.176471     24.000000
 -0.294118  0.470588  0.176471     24.000000
 -0.294118  0.470588  0.235294     24.000000
 
 Following cartesian coordinates:
            Coordinates               Weight
  0.000000  0.000000  0.000000      1.000000
  0.025059 -0.008860  0.000000      8.000000
  0.050118 -0.017719  0.000000      8.000000
  0.075177 -0.026579  0.000000      8.000000
  0.100236 -0.035439  0.000000      8.000000
  0.125295 -0.044299  0.000000      8.000000
  0.150354 -0.053158  0.000000      8.000000
  0.175413 -0.062018  0.000000      8.000000
  0.200473 -0.070878  0.000000      8.000000
  0.025059  0.017719  0.000000      6.000000
  0.050118  0.008860  0.000000     24.000000
  0.075177  0.000000  0.000000     24.000000
  0.100236 -0.008860  0.000000     24.000000
  0.125295 -0.017719  0.000000     24.000000
  0.150354 -0.026579  0.000000     24.000000
  0.175413 -0.035439  0.000000     24.000000
  0.200473 -0.044299  0.000000     24.000000
 -0.200473  0.097457  0.000000     24.000000
 -0.175413  0.088597  0.000000     24.000000
 -0.150354  0.079737  0.000000     24.000000
 -0.125295  0.070878  0.000000     24.000000
 -0.100236  0.062018  0.000000     24.000000
 -0.075177  0.053158  0.000000     24.000000
 -0.050118  0.044299  0.000000     24.000000
 -0.025059  0.035439  0.000000     12.000000
  0.050118  0.035439  0.000000      6.000000
  0.075177  0.026579  0.000000     24.000000
  0.100236  0.017719  0.000000     24.000000
  0.125295  0.008860  0.000000     24.000000
  0.150354 -0.000000  0.000000     24.000000
  0.175413 -0.008860  0.000000     24.000000
  0.200473 -0.017719  0.000000     24.000000
 -0.200473  0.124036  0.000000     24.000000
 -0.175413  0.115176  0.000000     24.000000
 -0.150354  0.106317  0.000000     24.000000
 -0.125295  0.097457  0.000000     24.000000
 -0.100236  0.088597  0.000000     24.000000
 -0.075177  0.079737  0.000000     24.000000
 -0.050118  0.070878  0.000000     12.000000
  0.075177  0.053158  0.000000      6.000000
  0.100236  0.044299  0.000000     24.000000
  0.125295  0.035439  0.000000     24.000000
  0.150354  0.026579  0.000000     24.000000
  0.175413  0.017719  0.000000     24.000000
  0.200473  0.008860  0.000000     24.000000
 -0.200473  0.150615  0.000000     24.000000
 -0.175413  0.141756  0.000000     24.000000
 -0.150354  0.132896  0.000000     24.000000
 -0.125295  0.124036  0.000000     24.000000
 -0.100236  0.115176  0.000000     24.000000
 -0.075177  0.106317  0.000000     12.000000
  0.100236  0.070878  0.000000      6.000000
  0.125295  0.062018  0.000000     24.000000
  0.150354  0.053158  0.000000     24.000000
  0.175413  0.044299  0.000000     24.000000
  0.200473  0.035439  0.000000     24.000000
 -0.200473  0.177194  0.000000     24.000000
 -0.175413  0.168335  0.000000     24.000000
 -0.150354  0.159475  0.000000     24.000000
 -0.125295  0.150615  0.000000     24.000000
 -0.100236  0.141756  0.000000     12.000000
  0.125295  0.088597  0.000000      6.000000
  0.150354  0.079737  0.000000     24.000000
  0.175413  0.070878  0.000000     24.000000
  0.200473  0.062018  0.000000     24.000000
 -0.200473  0.203774  0.000000     24.000000
 -0.175413  0.194914  0.000000     24.000000
 -0.150354  0.186054  0.000000     24.000000
 -0.125295  0.177194  0.000000     12.000000
  0.150354  0.106317  0.000000      6.000000
  0.175413  0.097457  0.000000     24.000000
  0.200473  0.088597  0.000000     24.000000
 -0.200473  0.230353  0.000000     24.000000
 -0.175413  0.221493  0.000000     24.000000
 -0.150354  0.212633  0.000000     12.000000
  0.175413  0.124036  0.000000      6.000000
  0.200473  0.115176  0.000000     24.000000
 -0.200473  0.256932  0.000000     24.000000
 -0.175413  0.248072  0.000000     12.000000
  0.200473  0.141756  0.000000      6.000000
 -0.200473  0.283511  0.000000     12.000000
  0.062648  0.017719  0.021702     24.000000
  0.087707  0.008860  0.021702     48.000000
  0.112766  0.000000  0.021702     48.000000
  0.137825 -0.008860  0.021702     48.000000
  0.162884 -0.017719  0.021702     48.000000
  0.187943 -0.026579  0.021702     48.000000
 -0.213002  0.115176  0.021702     48.000000
  0.087707  0.035439  0.021702     24.000000
  0.112766  0.026579  0.021702     48.000000
  0.137825  0.017719  0.021702     48.000000
  0.162884  0.008860  0.021702     48.000000
  0.187943  0.000000  0.021702     48.000000
 -0.213002  0.141756  0.021702     48.000000
 -0.187943  0.132896  0.021702     48.000000
 -0.162884  0.124036  0.021702     48.000000
 -0.137825  0.115176  0.021702     48.000000
 -0.112766  0.106317  0.021702     48.000000
 -0.087707  0.097457  0.021702     48.000000
 -0.062648  0.088597  0.021702     24.000000
  0.112766  0.053158  0.021702     24.000000
  0.137825  0.044299  0.021702     48.000000
  0.162884  0.035439  0.021702     48.000000
  0.187943  0.026579  0.021702     48.000000
 -0.213002  0.168335  0.021702     48.000000
 -0.187943  0.159475  0.021702     48.000000
 -0.162884  0.150615  0.021702     48.000000
 -0.137825  0.141756  0.021702     48.000000
 -0.112766  0.132896  0.021702     48.000000
 -0.087707  0.124036  0.021702     24.000000
  0.137825  0.070878  0.021702     24.000000
  0.162884  0.062018  0.021702     48.000000
  0.187943  0.053158  0.021702     48.000000
 -0.213002  0.194914  0.021702     48.000000
 -0.187943  0.186054  0.021702     48.000000
 -0.162884  0.177194  0.021702     48.000000
 -0.137825  0.168335  0.021702     48.000000
 -0.112766  0.159475  0.021702     24.000000
  0.162884  0.088597  0.021702     24.000000
  0.187943  0.079737  0.021702     48.000000
 -0.213002  0.221493  0.021702     48.000000
 -0.187943  0.212633  0.021702     48.000000
 -0.162884  0.203774  0.021702     48.000000
 -0.137825  0.194914  0.021702     24.000000
  0.187943  0.106317  0.021702     24.000000
 -0.213002  0.248072  0.021702     48.000000
 -0.187943  0.239212  0.021702     48.000000
 -0.162884  0.230353  0.021702     24.000000
 -0.213002  0.274651  0.021702     24.000000
 -0.187943  0.265792  0.021702     24.000000
  0.125295  0.035439  0.043404     24.000000
  0.150354  0.026579  0.043404     48.000000
  0.175413  0.017719  0.043404     48.000000
 -0.225532  0.159475  0.043404     48.000000
 -0.200473  0.150615  0.043404     48.000000
  0.150354  0.053158  0.043404     24.000000
  0.175413  0.044299  0.043404     48.000000
 -0.225532  0.186054  0.043404     48.000000
 -0.200473  0.177194  0.043404     48.000000
 -0.175413  0.168335  0.043404     48.000000
 -0.150354  0.159475  0.043404     48.000000
 -0.125295  0.150615  0.043404     48.000000
 -0.100236  0.141756  0.043404     24.000000
  0.175413  0.070878  0.043404     24.000000
 -0.225532  0.212633  0.043404     48.000000
 -0.200473  0.203774  0.043404     48.000000
 -0.175413  0.194914  0.043404     48.000000
 -0.150354  0.186054  0.043404     48.000000
 -0.125295  0.177194  0.043404     24.000000
 -0.225532  0.239212  0.043404     24.000000
 -0.200473  0.230353  0.043404     48.000000
 -0.175413  0.221493  0.043404     48.000000
 -0.150354  0.212633  0.043404     24.000000
 -0.200473  0.256932  0.043404     24.000000
 -0.175413  0.248072  0.043404     24.000000
 -0.238061  0.203774  0.065105     24.000000
 -0.213002  0.194914  0.065105     48.000000
 -0.187943  0.186054  0.065105     48.000000
 -0.213002  0.221493  0.065105     24.000000
 -0.187943  0.212633  0.065105     48.000000
 -0.162884  0.203774  0.065105     48.000000
 -0.137825  0.194914  0.065105     24.000000
 -0.187943  0.239212  0.065105     24.000000
 -0.162884  0.230353  0.065105     24.000000
 -0.175413  0.221493  0.086807     24.000000
 


--------------------------------------------------------------------------------------------------------




 Dimension of arrays:
   k-points           NKPTS =    165   k-points in BZ     NKDIM =    165   number of bands    NBANDS=      8
   number of dos      NEDOS =    301   number of ions     NIONS =      1
   non local maximal  LDIM  =      4   non local SUM 2l+1 LMDIM =      8
   total plane-waves  NPLWV =   5832
   max r-space proj   IRMAX =      1   max aug-charges    IRDMAX= 110965
   dimension x,y,z NGX =    18 NGY =   18 NGZ =   18
   dimension x,y,z NGXF=    36 NGYF=   36 NGZF=   36
   support grid    NGXF=    72 NGYF=   72 NGZF=   72
   ions per type =               1
   NGX,Y,Z   is equivalent  to a cutoff of  11.04, 11.04, 11.04 a.u.
   NGXF,Y,Z  is equivalent  to a cutoff of  22.08, 22.08, 22.08 a.u.

 SYSTEM =  unknown system                          
 POSCAR =  Si1                                     

 Startparameter for this run:
   NWRITE =      2    write-flag & timer
   PREC   = accura    normal or accurate (medium, high low for compatibility)
   ISTART =      0    job   : 0-new  1-cont  2-samecut
   ICHARG =      2    charge: 1-file 2-atom 10-const
   ISPIN  =      1    spin polarized calculation?
   LNONCOLLINEAR =      F non collinear calculations
   LSORBIT =      F    spin-orbit coupling
   INIWAV =      1    electr: 0-lowe 1-rand  2-diag
   LASPH  =      T    aspherical Exc in radial PAW
   METAGGA=      F    non-selfconsistent MetaGGA calc.

 Electronic Relaxation 1
   ENCUT  =  350.0 eV  25.72 Ry    5.07 a.u.   4.13  4.13  4.13*2*pi/ulx,y,z
   ENINI  =  350.0     initial cutoff
   ENAUG  =  322.1 eV  augmentation charge cutoff
   NELM   =     90;   NELMIN=  6; NELMDL= -5     # of ELM steps 
   EDIFF  = 0.1E-05   stopping-criterion for ELM
   LREAL  =      F    real-space projection
   NLSPLINE    = F    spline interpolate recip. space projectors
   LCOMPAT=      F    compatible to vasp.4.4
   GGA_COMPAT  = T    GGA compatible to vasp.4.4-vasp.4.6
   LMAXPAW     = -100 max onsite density
   LMAXMIX     =    2 max onsite mixed and CHGCAR
   VOSKOWN=      0    Vosko Wilk Nusair interpolation
   ROPT   =    0.00000
 Ionic relaxation
   EDIFFG = -.2E-02   stopping-criterion for IOM
   NSW    =    100    number of steps for IOM
   NBLOCK =      1;   KBLOCK =    100    inner block; outer block 
   IBRION =      2    ionic relax: 0-MD 1-quasi-New 2-CG
   NFREE  =      1    steps in history (QN), initial steepest desc. (CG)
   ISIF   =      3    stress and relaxation
   IWAVPR =     11    prediction:  0-non 1-charg 2-wave 3-comb
   ISYM   =      2    0-nonsym 1-usesym 2-fastsym
   LCORR  =      T    Harris-Foulkes like correction to forces

   POTIM  = 0.5000    time-step for ionic-motion
   TEIN   =    0.0    initial temperature
   TEBEG  =    0.0;   TEEND  =   0.0 temperature during run
   SMASS  =  -3.00    Nose mass-parameter (am)
   estimated Nose-frequenzy (Omega)   =  0.10E-29 period in steps = 0.13E+47 mass=  -0.168E-27a.u.
   SCALEE = 1.0000    scale energy and forces
   NPACO  =    256;   APACO  = 16.0  distance and # of slots for P.C.
   PSTRESS=    0.0 pullay stress

  Mass of Ions in am
   POMASS =  28.09
  Ionic Valenz
   ZVAL   =   4.00
  Atomic Wigner-Seitz radii
   RWIGS  =  -1.00
  virtual crystal weights 
   VCA    =   1.00
   NELECT =       4.0000    total number of electrons
   NUPDOWN=      -1.0000    fix difference up-down

 DOS related values:
   EMIN   =  10.00;   EMAX   =-10.00  energy-range for DOS
   EFERMI =   0.00
   ISMEAR =     0;   SIGMA  =   0.05  broadening in eV -4-tet -1-fermi 0-gaus

 Electronic relaxation 2 (details)
   IALGO  =     38    algorithm
   LDIAG  =      T    sub-space diagonalisation (order eigenvalues)
   LSUBROT=      F    optimize rotation matrix (better conditioning)
   TURBO    =      0    0=normal 1=particle mesh
   IRESTART =      0    0=no restart 2=restart with 2 vectors
   NREBOOT  =      0    no. of reboots
   NMIN     =      0    reboot dimension
   EREF     =   0.00    reference energy to select bands
   IMIX   =      4    mixing-type and parameters
     AMIX     =   0.40;   BMIX     =  1.00
     AMIX_MAG =   1.60;   BMIX_MAG =  1.00
     AMIN     =   0.10
     WC   =   100.;   INIMIX=   1;  MIXPRE=   1;  MAXMIX= -45

 Intra band minimization:
   WEIMIN = 0.0010     energy-eigenvalue tresh-hold
   EBREAK =  0.31E-07  absolut break condition
   DEPER  =   0.30     relativ break condition  

   TIME   =   0.40     timestep for ELM

  volume/ion in A,a.u.               =      14.08        95.03
  Fermi-wavevector in a.u.,A,eV,Ry     =   1.076162  2.033651 15.757242  1.158125
  Thomas-Fermi vector in A             =   2.212039
 
 Write flags
   LWAVE        =      F    write WAVECAR
   LDOWNSAMPLE  =      F    k-point downsampling of WAVECAR
   LCHARG       =      F    write CHGCAR
   LVTOT        =      F    write LOCPOT, total local potential
   LVHAR        =      F    write LOCPOT, Hartree potential only
   LELF         =      F    write electronic localiz. function (ELF)
   LORBIT       =      0    0 simple, 1 ext, 2 COOP (PROOUT), +10 PAW based schemes


 Dipole corrections
   LMONO  =      F    monopole corrections only (constant potential shift)
   LDIPOL =      F    correct potential (dipole corrections)
   IDIPOL =      0    1-x, 2-y, 3-z, 4-all directions 
   EPSILON=  1.0000000 bulk dielectric constant

 Exchange correlation treatment:
   GGA     =    --    GGA type
   LEXCH   =     8    internal setting for exchange type
   VOSKOWN=      0    Vosko Wilk Nusair interpolation
   LHFCALC =     F    Hartree Fock is set to
   LHFONE  =     F    Hartree Fock one center treatment
   AEXX    =    0.0000 exact exchange contribution

 Linear response parameters
   LEPSILON=     F    determine dielectric tensor
   LRPA    =     F    only Hartree local field effects (RPA)
   LNABLA  =     F    use nabla operator in PAW spheres
   LVEL    =     F    velocity operator in full k-point grid
   LINTERFAST=   F  fast interpolation
   KINTER  =     0    interpolate to denser k-point grid
   CSHIFT  =0.1000    complex shift for real part using Kramers Kronig
   OMEGAMAX=  -1.0    maximum frequency
   DEG_THRESHOLD= 0.2000000E-02 threshold for treating states as degnerate
   RTIME   =   -0.100 relaxation time in fs
  (WPLASMAI=    0.000 imaginary part of plasma frequency in eV, 0.658/RTIME)
   DFIELD  = 0.0000000 0.0000000 0.0000000 field for delta impulse in time
 
 Orbital magnetization related:
   ORBITALMAG=     F  switch on orbital magnetization
   LCHIMAG   =     F  perturbation theory with respect to B field
   DQ        =  0.001000  dq finite difference perturbation B field
   LLRAUG    =     F  two centre corrections for induced B field



--------------------------------------------------------------------------------------------------------


 conjugate gradient relaxation of ions
 charge density and potential will be updated during run
 non-spin polarized calculation
 Variant of blocked Davidson
 Davidson routine will perform the subspace rotation
 perform sub-space diagonalisation
    after iterative eigenvector-optimisation
 modified Broyden-mixing scheme, WC =      100.0
 initial mixing is a Kerker type mixing with AMIX =  0.4000 and BMIX =      1.0000
 Hartree-type preconditioning will be used
 using additional bands            6
 reciprocal scheme for non local part
 use partial core corrections
 calculate Harris-corrections to forces 
   (improved forces if not selfconsistent)
 use gradient corrections 
 use of overlap-Matrix (Vanderbilt PP)
 Gauss-broadening in eV      SIGMA  =   0.05


--------------------------------------------------------------------------------------------------------


  energy-cutoff  :      350.00
  volume of cell :       14.08
      direct lattice vectors                 reciprocal lattice vectors
     2.347395000  0.000000000  1.355268000     0.426004145 -0.150615226  0.000000000
     0.782465000  2.213145000  1.355268000     0.000000000  0.451845677  0.000000000
     0.000000000  0.000000000  2.710538000    -0.213001915 -0.150615114  0.368930448

  length of vectors
     2.710537703  2.710537515  2.710538000     0.451845635  0.451845677  0.451845554


 
 k-points in units of 2pi/SCALE and weight: Automatic                               
   0.00000000  0.00000000  0.00000000       0.000
   0.02505907 -0.00885972  0.00000000       0.002
   0.05011813 -0.01771944  0.00000000       0.002
   0.07517720 -0.02657916  0.00000000       0.002
   0.10023627 -0.03543888  0.00000000       0.002
   0.12529534 -0.04429860  0.00000000       0.002
   0.15035440 -0.05315831  0.00000000       0.002
   0.17541347 -0.06201803  0.00000000       0.002
   0.20047254 -0.07087775  0.00000000       0.002
   0.02505907  0.01771944  0.00000000       0.001
   0.05011813  0.00885972  0.00000000       0.005
   0.07517720  0.00000000  0.00000000       0.005
   0.10023627 -0.00885972  0.00000000       0.005
   0.12529534 -0.01771944  0.00000000       0.005
   0.15035440 -0.02657916  0.00000000       0.005
   0.17541347 -0.03543888  0.00000000       0.005
   0.20047254 -0.04429860  0.00000000       0.005
  -0.20047254  0.09745691  0.00000000       0.005
  -0.17541347  0.08859719  0.00000000       0.005
  -0.15035440  0.07973747  0.00000000       0.005
  -0.12529534  0.07087775  0.00000000       0.005
  -0.10023627  0.06201803  0.00000000       0.005
  -0.07517720  0.05315831  0.00000000       0.005
  -0.05011813  0.04429860  0.00000000       0.005
  -0.02505907  0.03543888  0.00000000       0.002
   0.05011813  0.03543888  0.00000000       0.001
   0.07517720  0.02657916  0.00000000       0.005
   0.10023627  0.01771944  0.00000000       0.005
   0.12529534  0.00885972  0.00000000       0.005
   0.15035440 -0.00000000  0.00000000       0.005
   0.17541347 -0.00885972  0.00000000       0.005
   0.20047254 -0.01771944  0.00000000       0.005
  -0.20047254  0.12403607  0.00000000       0.005
  -0.17541347  0.11517635  0.00000000       0.005
  -0.15035440  0.10631663  0.00000000       0.005
  -0.12529534  0.09745691  0.00000000       0.005
  -0.10023627  0.08859719  0.00000000       0.005
  -0.07517720  0.07973747  0.00000000       0.005
  -0.05011813  0.07087775  0.00000000       0.002
   0.07517720  0.05315831  0.00000000       0.001
   0.10023627  0.04429860  0.00000000       0.005
   0.12529534  0.03543888  0.00000000       0.005
   0.15035440  0.02657916  0.00000000       0.005
   0.17541347  0.01771944  0.00000000       0.005
   0.20047254  0.00885972  0.00000000       0.005
  -0.20047254  0.15061523  0.00000000       0.005
  -0.17541347  0.14175551  0.00000000       0.005
  -0.15035440  0.13289579  0.00000000       0.005
  -0.12529534  0.12403607  0.00000000       0.005
  -0.10023627  0.11517635  0.00000000       0.005
  -0.07517720  0.10631663  0.00000000       0.002
   0.10023627  0.07087775  0.00000000       0.001
   0.12529534  0.06201803  0.00000000       0.005
   0.15035440  0.05315831  0.00000000       0.005
   0.17541347  0.04429860  0.00000000       0.005
   0.20047254  0.03543888  0.00000000       0.005
  -0.20047254  0.17719438  0.00000000       0.005
  -0.17541347  0.16833466  0.00000000       0.005
  -0.15035440  0.15947494  0.00000000       0.005
  -0.12529534  0.15061523  0.00000000       0.005
  -0.10023627  0.14175551  0.00000000       0.002
   0.12529534  0.08859719  0.00000000       0.001
   0.15035440  0.07973747  0.00000000       0.005
   0.17541347  0.07087775  0.00000000       0.005
   0.20047254  0.06201803  0.00000000       0.005
  -0.20047254  0.20377354  0.00000000       0.005
  -0.17541347  0.19491382  0.00000000       0.005
  -0.15035440  0.18605410  0.00000000       0.005
  -0.12529534  0.17719438  0.00000000       0.002
   0.15035440  0.10631663  0.00000000       0.001
   0.17541347  0.09745691  0.00000000       0.005
   0.20047254  0.08859719  0.00000000       0.005
  -0.20047254  0.23035270  0.00000000       0.005
  -0.17541347  0.22149298  0.00000000       0.005
  -0.15035440  0.21263326  0.00000000       0.002
   0.17541347  0.12403607  0.00000000       0.001
   0.20047254  0.11517635  0.00000000       0.005
  -0.20047254  0.25693186  0.00000000       0.005
  -0.17541347  0.24807214  0.00000000       0.002
   0.20047254  0.14175551  0.00000000       0.001
  -0.20047254  0.28351101  0.00000000       0.002
   0.06264768  0.01771944  0.02170179       0.005
   0.08770674  0.00885973  0.02170179       0.010
   0.11276581  0.00000001  0.02170179       0.010
   0.13782488 -0.00885971  0.02170179       0.010
   0.16288395 -0.01771943  0.02170179       0.010
   0.18794301 -0.02657915  0.02170179       0.010
  -0.21300206  0.11517636  0.02170179       0.010
   0.08770674  0.03543888  0.02170179       0.005
   0.11276581  0.02657916  0.02170179       0.010
   0.13782488  0.01771944  0.02170179       0.010
   0.16288395  0.00885973  0.02170179       0.010
   0.18794301  0.00000001  0.02170179       0.010
  -0.21300206  0.14175551  0.02170179       0.010
  -0.18794300  0.13289579  0.02170179       0.010
  -0.16288393  0.12403607  0.02170179       0.010
  -0.13782486  0.11517636  0.02170179       0.010
  -0.11276579  0.10631664  0.02170179       0.010
  -0.08770673  0.09745692  0.02170179       0.010
  -0.06264766  0.08859720  0.02170179       0.005
   0.11276581  0.05315832  0.02170179       0.005
   0.13782488  0.04429860  0.02170179       0.010
   0.16288395  0.03543888  0.02170179       0.010
   0.18794301  0.02657916  0.02170179       0.010
  -0.21300206  0.16833467  0.02170179       0.010
  -0.18794300  0.15947495  0.02170179       0.010
  -0.16288393  0.15061523  0.02170179       0.010
  -0.13782486  0.14175551  0.02170179       0.010
  -0.11276579  0.13289579  0.02170179       0.010
  -0.08770673  0.12403607  0.02170179       0.005
   0.13782488  0.07087776  0.02170179       0.005
   0.16288395  0.06201804  0.02170179       0.010
   0.18794301  0.05315832  0.02170179       0.010
  -0.21300206  0.19491383  0.02170179       0.010
  -0.18794300  0.18605411  0.02170179       0.010
  -0.16288393  0.17719439  0.02170179       0.010
  -0.13782486  0.16833467  0.02170179       0.010
  -0.11276579  0.15947495  0.02170179       0.005
   0.16288395  0.08859720  0.02170179       0.005
   0.18794301  0.07973748  0.02170179       0.010
  -0.21300206  0.22149299  0.02170179       0.010
  -0.18794300  0.21263327  0.02170179       0.010
  -0.16288393  0.20377355  0.02170179       0.010
  -0.13782486  0.19491383  0.02170179       0.005
   0.18794301  0.10631664  0.02170179       0.005
  -0.21300206  0.24807214  0.02170179       0.010
  -0.18794300  0.23921242  0.02170179       0.010
  -0.16288393  0.23035270  0.02170179       0.005
  -0.21300206  0.27465130  0.02170179       0.005
  -0.18794300  0.26579158  0.02170179       0.005
   0.12529536  0.03543889  0.04340358       0.005
   0.15035442  0.02657917  0.04340358       0.010
   0.17541349  0.01771945  0.04340358       0.010
  -0.22553159  0.15947496  0.04340358       0.010
  -0.20047252  0.15061524  0.04340358       0.010
   0.15035442  0.05315833  0.04340358       0.005
   0.17541349  0.04429861  0.04340358       0.010
  -0.22553159  0.18605412  0.04340358       0.010
  -0.20047252  0.17719440  0.04340358       0.010
  -0.17541345  0.16833468  0.04340358       0.010
  -0.15035439  0.15947496  0.04340358       0.010
  -0.12529532  0.15061524  0.04340358       0.010
  -0.10023625  0.14175552  0.04340358       0.005
   0.17541349  0.07087777  0.04340358       0.005
  -0.22553159  0.21263327  0.04340358       0.010
  -0.20047252  0.20377355  0.04340358       0.010
  -0.17541345  0.19491383  0.04340358       0.010
  -0.15035439  0.18605412  0.04340358       0.010
  -0.12529532  0.17719440  0.04340358       0.005
  -0.22553159  0.23921243  0.04340358       0.005
  -0.20047252  0.23035271  0.04340358       0.010
  -0.17541345  0.22149299  0.04340358       0.010
  -0.15035439  0.21263327  0.04340358       0.005
  -0.20047252  0.25693187  0.04340358       0.005
  -0.17541345  0.24807215  0.04340358       0.005
  -0.23806111  0.20377356  0.06510537       0.005
  -0.21300204  0.19491384  0.06510537       0.010
  -0.18794298  0.18605412  0.06510537       0.010
  -0.21300204  0.22149300  0.06510537       0.005
  -0.18794298  0.21263328  0.06510537       0.010
  -0.16288391  0.20377356  0.06510537       0.010
  -0.13782484  0.19491384  0.06510537       0.005
  -0.18794298  0.23921244  0.06510537       0.005
  -0.16288391  0.23035272  0.06510537       0.005
  -0.17541343  0.22149300  0.08680716       0.005
 
 k-points in reciprocal lattice and weights: Automatic                               
   0.00000000  0.00000000  0.00000000       0.000
   0.05882353  0.00000000  0.00000000       0.002
   0.11764706  0.00000000  0.00000000       0.002
   0.17647059  0.00000000  0.00000000       0.002
   0.23529412  0.00000000  0.00000000       0.002
   0.29411765 -0.00000000  0.00000000       0.002
   0.35294118 -0.00000000  0.00000000       0.002
   0.41176471  0.00000000  0.00000000       0.002
   0.47058824  0.00000000  0.00000000       0.002
   0.05882353  0.05882353  0.00000000       0.001
   0.11764706  0.05882353  0.00000000       0.005
   0.17647059  0.05882353  0.00000000       0.005
   0.23529412  0.05882353  0.00000000       0.005
   0.29411765  0.05882353  0.00000000       0.005
   0.35294118  0.05882353  0.00000000       0.005
   0.41176471  0.05882353  0.00000000       0.005
   0.47058824  0.05882353  0.00000000       0.005
  -0.47058824  0.05882353  0.00000000       0.005
  -0.41176471  0.05882353  0.00000000       0.005
  -0.35294118  0.05882353  0.00000000       0.005
  -0.29411765  0.05882353  0.00000000       0.005
  -0.23529412  0.05882353  0.00000000       0.005
  -0.17647059  0.05882353  0.00000000       0.005
  -0.11764706  0.05882353  0.00000000       0.005
  -0.05882353  0.05882353  0.00000000       0.002
   0.11764706  0.11764706  0.00000000       0.001
   0.17647059  0.11764706  0.00000000       0.005
   0.23529412  0.11764706  0.00000000       0.005
   0.29411765  0.11764706  0.00000000       0.005
   0.35294118  0.11764706  0.00000000       0.005
   0.41176471  0.11764706  0.00000000       0.005
   0.47058824  0.11764706  0.00000000       0.005
  -0.47058824  0.11764706  0.00000000       0.005
  -0.41176471  0.11764706  0.00000000       0.005
  -0.35294118  0.11764706  0.00000000       0.005
  -0.29411765  0.11764706  0.00000000       0.005
  -0.23529412  0.11764706  0.00000000       0.005
  -0.17647059  0.11764706  0.00000000       0.005
  -0.11764706  0.11764706  0.00000000       0.002
   0.17647059  0.17647059  0.00000000       0.001
   0.23529412  0.17647059  0.00000000       0.005
   0.29411765  0.17647059  0.00000000       0.005
   0.35294118  0.17647059  0.00000000       0.005
   0.41176471  0.17647059  0.00000000       0.005
   0.47058824  0.17647059  0.00000000       0.005
  -0.47058824  0.17647059  0.00000000       0.005
  -0.41176471  0.17647059  0.00000000       0.005
  -0.35294118  0.17647059  0.00000000       0.005
  -0.29411765  0.17647059  0.00000000       0.005
  -0.23529412  0.17647059  0.00000000       0.005
  -0.17647059  0.17647059  0.00000000       0.002
   0.23529412  0.23529412  0.00000000       0.001
   0.29411765  0.23529412  0.00000000       0.005
   0.35294118  0.23529412  0.00000000       0.005
   0.41176471  0.23529412  0.00000000       0.005
   0.47058824  0.23529412  0.00000000       0.005
  -0.47058824  0.23529412  0.00000000       0.005
  -0.41176471  0.23529412  0.00000000       0.005
  -0.35294118  0.23529412  0.00000000       0.005
  -0.29411765  0.23529412  0.00000000       0.005
  -0.23529412  0.23529412  0.00000000       0.002
   0.29411765  0.29411765  0.00000000       0.001
   0.35294118  0.29411765  0.00000000       0.005
   0.41176471  0.29411765  0.00000000       0.005
   0.47058824  0.29411765  0.00000000       0.005
  -0.47058824  0.29411765  0.00000000       0.005
  -0.41176471  0.29411765  0.00000000       0.005
  -0.35294118  0.29411765  0.00000000       0.005
  -0.29411765  0.29411765  0.00000000       0.002
   0.35294118  0.35294118  0.00000000       0.001
   0.41176471  0.35294118  0.00000000       0.005
   0.47058824  0.35294118  0.00000000       0.005
  -0.47058824  0.35294118  0.00000000       0.005
  -0.41176471  0.35294118  0.00000000       0.005
  -0.35294118  0.35294118  0.00000000       0.002
   0.41176471  0.41176471  0.00000000       0.001
   0.47058824  0.41176471  0.00000000       0.005
  -0.47058824  0.41176471  0.00000000       0.005
  -0.41176471  0.41176471  0.00000000       0.002
   0.47058824  0.47058824  0.00000000       0.001
  -0.47058824  0.47058824  0.00000000       0.002
   0.17647059  0.11764706  0.05882353       0.005
   0.23529412  0.11764706  0.05882353       0.010
   0.29411765  0.11764706  0.05882353       0.010
   0.35294118  0.11764706  0.05882353       0.010
   0.41176471  0.11764706  0.05882353       0.010
   0.47058824  0.11764706  0.05882353       0.010
  -0.47058824  0.11764706  0.05882353       0.010
   0.23529412  0.17647059  0.05882353       0.005
   0.29411765  0.17647059  0.05882353       0.010
   0.35294118  0.17647059  0.05882353       0.010
   0.41176471  0.17647059  0.05882353       0.010
   0.47058824  0.17647059  0.05882353       0.010
  -0.47058824  0.17647059  0.05882353       0.010
  -0.41176471  0.17647059  0.05882353       0.010
  -0.35294118  0.17647059  0.05882353       0.010
  -0.29411765  0.17647059  0.05882353       0.010
  -0.23529412  0.17647059  0.05882353       0.010
  -0.17647059  0.17647059  0.05882353       0.010
  -0.11764706  0.17647059  0.05882353       0.005
   0.29411765  0.23529412  0.05882353       0.005
   0.35294118  0.23529412  0.05882353       0.010
   0.41176471  0.23529412  0.05882353       0.010
   0.47058824  0.23529412  0.05882353       0.010
  -0.47058824  0.23529412  0.05882353       0.010
  -0.41176471  0.23529412  0.05882353       0.010
  -0.35294118  0.23529412  0.05882353       0.010
  -0.29411765  0.23529412  0.05882353       0.010
  -0.23529412  0.23529412  0.05882353       0.010
  -0.17647059  0.23529412  0.05882353       0.005
   0.35294118  0.29411765  0.05882353       0.005
   0.41176471  0.29411765  0.05882353       0.010
   0.47058824  0.29411765  0.05882353       0.010
  -0.47058824  0.29411765  0.05882353       0.010
  -0.41176471  0.29411765  0.05882353       0.010
  -0.35294118  0.29411765  0.05882353       0.010
  -0.29411765  0.29411765  0.05882353       0.010
  -0.23529412  0.29411765  0.05882353       0.005
   0.41176471  0.35294118  0.05882353       0.005
   0.47058824  0.35294118  0.05882353       0.010
  -0.47058824  0.35294118  0.05882353       0.010
  -0.41176471  0.35294118  0.05882353       0.010
  -0.35294118  0.35294118  0.05882353       0.010
  -0.29411765  0.35294118  0.05882353       0.005
   0.47058824  0.41176471  0.05882353       0.005
  -0.47058824  0.41176471  0.05882353       0.010
  -0.41176471  0.41176471  0.05882353       0.010
  -0.35294118  0.41176471  0.05882353       0.005
  -0.47058824  0.47058824  0.05882353       0.005
  -0.41176471  0.47058824  0.05882353       0.005
   0.35294118  0.23529412  0.11764706       0.005
   0.41176471  0.23529412  0.11764706       0.010
   0.47058824  0.23529412  0.11764706       0.010
  -0.47058824  0.23529412  0.11764706       0.010
  -0.41176471  0.23529412  0.11764706       0.010
   0.41176471  0.29411765  0.11764706       0.005
   0.47058824  0.29411765  0.11764706       0.010
  -0.47058824  0.29411765  0.11764706       0.010
  -0.41176471  0.29411765  0.11764706       0.010
  -0.35294118  0.29411765  0.11764706       0.010
  -0.29411765  0.29411765  0.11764706       0.010
  -0.23529412  0.29411765  0.11764706       0.010
  -0.17647059  0.29411765  0.11764706       0.005
   0.47058824  0.35294118  0.11764706       0.005
  -0.47058824  0.35294118  0.11764706       0.010
  -0.41176471  0.35294118  0.11764706       0.010
  -0.35294118  0.35294118  0.11764706       0.010
  -0.29411765  0.35294118  0.11764706       0.010
  -0.23529412  0.35294118  0.11764706       0.005
  -0.47058824  0.41176471  0.11764706       0.005
  -0.41176471  0.41176471  0.11764706       0.010
  -0.35294118  0.41176471  0.11764706       0.010
  -0.29411765  0.41176471  0.11764706       0.005
  -0.41176471  0.47058824  0.11764706       0.005
  -0.35294118  0.47058824  0.11764706       0.005
  -0.47058824  0.35294118  0.17647059       0.005
  -0.41176471  0.35294118  0.17647059       0.010
  -0.35294118  0.35294118  0.17647059       0.010
  -0.41176471  0.41176471  0.17647059       0.005
  -0.35294118  0.41176471  0.17647059       0.010
  -0.29411765  0.41176471  0.17647059       0.010
  -0.23529412  0.41176471  0.17647059       0.005
  -0.35294118  0.47058824  0.17647059       0.005
  -0.29411765  0.47058824  0.17647059       0.005
  -0.29411765  0.47058824  0.23529412       0.005
 
 position of ions in fractional coordinates (direct lattice) 
   0.00000000  0.00000000  0.00000000
 
 position of ions in cartesian coordinates  (Angst):
   0.00000000  0.00000000  0.00000000
 


--------------------------------------------------------------------------------------------------------


 k-point   1 :   0.0000 0.0000 0.0000  plane waves:     181
 k-point   2 :   0.0588 0.0000 0.0000  plane waves:     193
 k-point   3 :   0.1176 0.0000 0.0000  plane waves:     196
 k-point   4 :   0.1765 0.0000 0.0000  plane waves:     205
 k-point   5 :   0.2353 0.0000 0.0000  plane waves:     205
 k-point   6 :   0.2941-0.0000 0.0000  plane waves:     205
 k-point   7 :   0.3529-0.0000 0.0000  plane waves:     205
 k-point   8 :   0.4118 0.0000 0.0000  plane waves:     210
 k-point   9 :   0.4706 0.0000 0.0000  plane waves:     210
 k-point  10 :   0.0588 0.0588 0.0000  plane waves:     189
 k-point  11 :   0.1176 0.0588 0.0000  plane waves:     198
 k-point  12 :   0.1765 0.0588 0.0000  plane waves:     203
 k-point  13 :   0.2353 0.0588 0.0000  plane waves:     204
 k-point  14 :   0.2941 0.0588 0.0000  plane waves:     205
 k-point  15 :   0.3529 0.0588 0.0000  plane waves:     205
 k-point  16 :   0.4118 0.0588 0.0000  plane waves:     210
 k-point  17 :   0.4706 0.0588 0.0000  plane waves:     216
 k-point  18 :  -0.4706 0.0588 0.0000  plane waves:     215
 k-point  19 :  -0.4118 0.0588 0.0000  plane waves:     214
 k-point  20 :  -0.3529 0.0588 0.0000  plane waves:     211
 k-point  21 :  -0.2941 0.0588 0.0000  plane waves:     207
 k-point  22 :  -0.2353 0.0588 0.0000  plane waves:     207
 k-point  23 :  -0.1765 0.0588 0.0000  plane waves:     202
 k-point  24 :  -0.1176 0.0588 0.0000  plane waves:     202
 k-point  25 :  -0.0588 0.0588 0.0000  plane waves:     199
 k-point  26 :   0.1176 0.1176 0.0000  plane waves:     206
 k-point  27 :   0.1765 0.1176 0.0000  plane waves:     205
 k-point  28 :   0.2353 0.1176 0.0000  plane waves:     207
 k-point  29 :   0.2941 0.1176 0.0000  plane waves:     208
 k-point  30 :   0.3529 0.1176 0.0000  plane waves:     206
 k-point  31 :   0.4118 0.1176 0.0000  plane waves:     207
 k-point  32 :   0.4706 0.1176 0.0000  plane waves:     208
 k-point  33 :  -0.4706 0.1176 0.0000  plane waves:     213
 k-point  34 :  -0.4118 0.1176 0.0000  plane waves:     210
 k-point  35 :  -0.3529 0.1176 0.0000  plane waves:     212
 k-point  36 :  -0.2941 0.1176 0.0000  plane waves:     210
 k-point  37 :  -0.2353 0.1176 0.0000  plane waves:     210
 k-point  38 :  -0.1765 0.1176 0.0000  plane waves:     208
 k-point  39 :  -0.1176 0.1176 0.0000  plane waves:     212
 k-point  40 :   0.1765 0.1765 0.0000  plane waves:     202
 k-point  41 :   0.2353 0.1765 0.0000  plane waves:     207
 k-point  42 :   0.2941 0.1765 0.0000  plane waves:     209
 k-point  43 :   0.3529 0.1765 0.0000  plane waves:     206
 k-point  44 :   0.4118 0.1765 0.0000  plane waves:     209
 k-point  45 :   0.4706 0.1765 0.0000  plane waves:     211
 k-point  46 :  -0.4706 0.1765 0.0000  plane waves:     213
 k-point  47 :  -0.4118 0.1765 0.0000  plane waves:     210
 k-point  48 :  -0.3529 0.1765 0.0000  plane waves:     211
 k-point  49 :  -0.2941 0.1765 0.0000  plane waves:     210
 k-point  50 :  -0.2353 0.1765 0.0000  plane waves:     208
 k-point  51 :  -0.1765 0.1765 0.0000  plane waves:     208
 k-point  52 :   0.2353 0.2353 0.0000  plane waves:     202
 k-point  53 :   0.2941 0.2353 0.0000  plane waves:     213
 k-point  54 :   0.3529 0.2353 0.0000  plane waves:     212
 k-point  55 :   0.4118 0.2353 0.0000  plane waves:     213
 k-point  56 :   0.4706 0.2353 0.0000  plane waves:     211
 k-point  57 :  -0.4706 0.2353 0.0000  plane waves:     213
 k-point  58 :  -0.4118 0.2353 0.0000  plane waves:     212
 k-point  59 :  -0.3529 0.2353 0.0000  plane waves:     211
 k-point  60 :  -0.2941 0.2353 0.0000  plane waves:     213
 k-point  61 :  -0.2353 0.2353 0.0000  plane waves:     210
 k-point  62 :   0.2941 0.2941 0.0000  plane waves:     218
 k-point  63 :   0.3529 0.2941 0.0000  plane waves:     213
 k-point  64 :   0.4118 0.2941 0.0000  plane waves:     209
 k-point  65 :   0.4706 0.2941 0.0000  plane waves:     209
 k-point  66 :  -0.4706 0.2941 0.0000  plane waves:     213
 k-point  67 :  -0.4118 0.2941 0.0000  plane waves:     216
 k-point  68 :  -0.3529 0.2941 0.0000  plane waves:     214
 k-point  69 :  -0.2941 0.2941 0.0000  plane waves:     208
 k-point  70 :   0.3529 0.3529 0.0000  plane waves:     214
 k-point  71 :   0.4118 0.3529 0.0000  plane waves:     209
 k-point  72 :   0.4706 0.3529 0.0000  plane waves:     210
 k-point  73 :  -0.4706 0.3529 0.0000  plane waves:     209
 k-point  74 :  -0.4118 0.3529 0.0000  plane waves:     214
 k-point  75 :  -0.3529 0.3529 0.0000  plane waves:     220
 k-point  76 :   0.4118 0.4118 0.0000  plane waves:     214
 k-point  77 :   0.4706 0.4118 0.0000  plane waves:     210
 k-point  78 :  -0.4706 0.4118 0.0000  plane waves:     211
 k-point  79 :  -0.4118 0.4118 0.0000  plane waves:     212
 k-point  80 :   0.4706 0.4706 0.0000  plane waves:     218
 k-point  81 :  -0.4706 0.4706 0.0000  plane waves:     216
 k-point  82 :   0.1765 0.1176 0.0588  plane waves:     205
 k-point  83 :   0.2353 0.1176 0.0588  plane waves:     207
 k-point  84 :   0.2941 0.1176 0.0588  plane waves:     205
 k-point  85 :   0.3529 0.1176 0.0588  plane waves:     208
 k-point  86 :   0.4118 0.1176 0.0588  plane waves:     207
 k-point  87 :   0.4706 0.1176 0.0588  plane waves:     209
 k-point  88 :  -0.4706 0.1176 0.0588  plane waves:     212
 k-point  89 :   0.2353 0.1765 0.0588  plane waves:     205
 k-point  90 :   0.2941 0.1765 0.0588  plane waves:     208
 k-point  91 :   0.3529 0.1765 0.0588  plane waves:     209
 k-point  92 :   0.4118 0.1765 0.0588  plane waves:     206
 k-point  93 :   0.4706 0.1765 0.0588  plane waves:     209
 k-point  94 :  -0.4706 0.1765 0.0588  plane waves:     211
 k-point  95 :  -0.4118 0.1765 0.0588  plane waves:     211
 k-point  96 :  -0.3529 0.1765 0.0588  plane waves:     212
 k-point  97 :  -0.2941 0.1765 0.0588  plane waves:     210
 k-point  98 :  -0.2353 0.1765 0.0588  plane waves:     206
 k-point  99 :  -0.1765 0.1765 0.0588  plane waves:     208
 k-point 100 :  -0.1176 0.1765 0.0588  plane waves:     206
 k-point 101 :   0.2941 0.2353 0.0588  plane waves:     209
 k-point 102 :   0.3529 0.2353 0.0588  plane waves:     209
 k-point 103 :   0.4118 0.2353 0.0588  plane waves:     212
 k-point 104 :   0.4706 0.2353 0.0588  plane waves:     207
 k-point 105 :  -0.4706 0.2353 0.0588  plane waves:     209
 k-point 106 :  -0.4118 0.2353 0.0588  plane waves:     211
 k-point 107 :  -0.3529 0.2353 0.0588  plane waves:     211
 k-point 108 :  -0.2941 0.2353 0.0588  plane waves:     210
 k-point 109 :  -0.2353 0.2353 0.0588  plane waves:     209
 k-point 110 :  -0.1765 0.2353 0.0588  plane waves:     209
 k-point 111 :   0.3529 0.2941 0.0588  plane waves:     212
 k-point 112 :   0.4118 0.2941 0.0588  plane waves:     210
 k-point 113 :   0.4706 0.2941 0.0588  plane waves:     210
 k-point 114 :  -0.4706 0.2941 0.0588  plane waves:     212
 k-point 115 :  -0.4118 0.2941 0.0588  plane waves:     213
 k-point 116 :  -0.3529 0.2941 0.0588  plane waves:     211
 k-point 117 :  -0.2941 0.2941 0.0588  plane waves:     210
 k-point 118 :  -0.2353 0.2941 0.0588  plane waves:     210
 k-point 119 :   0.4118 0.3529 0.0588  plane waves:     208
 k-point 120 :   0.4706 0.3529 0.0588  plane waves:     207
 k-point 121 :  -0.4706 0.3529 0.0588  plane waves:     209
 k-point 122 :  -0.4118 0.3529 0.0588  plane waves:     214
 k-point 123 :  -0.3529 0.3529 0.0588  plane waves:     213
 k-point 124 :  -0.2941 0.3529 0.0588  plane waves:     214
 k-point 125 :   0.4706 0.4118 0.0588  plane waves:     208
 k-point 126 :  -0.4706 0.4118 0.0588  plane waves:     209
 k-point 127 :  -0.4118 0.4118 0.0588  plane waves:     212
 k-point 128 :  -0.3529 0.4118 0.0588  plane waves:     215
 k-point 129 :  -0.4706 0.4706 0.0588  plane waves:     214
 k-point 130 :  -0.4118 0.4706 0.0588  plane waves:     212
 k-point 131 :   0.3529 0.2353 0.1176  plane waves:     209
 k-point 132 :   0.4118 0.2353 0.1176  plane waves:     208
 k-point 133 :   0.4706 0.2353 0.1176  plane waves:     210
 k-point 134 :  -0.4706 0.2353 0.1176  plane waves:     207
 k-point 135 :  -0.4118 0.2353 0.1176  plane waves:     211
 k-point 136 :   0.4118 0.2941 0.1176  plane waves:     208
 k-point 137 :   0.4706 0.2941 0.1176  plane waves:     208
 k-point 138 :  -0.4706 0.2941 0.1176  plane waves:     208
 k-point 139 :  -0.4118 0.2941 0.1176  plane waves:     209
 k-point 140 :  -0.3529 0.2941 0.1176  plane waves:     208
 k-point 141 :  -0.2941 0.2941 0.1176  plane waves:     211
 k-point 142 :  -0.2353 0.2941 0.1176  plane waves:     207
 k-point 143 :  -0.1765 0.2941 0.1176  plane waves:     209
 k-point 144 :   0.4706 0.3529 0.1176  plane waves:     209
 k-point 145 :  -0.4706 0.3529 0.1176  plane waves:     210
 k-point 146 :  -0.4118 0.3529 0.1176  plane waves:     212
 k-point 147 :  -0.3529 0.3529 0.1176  plane waves:     209
 k-point 148 :  -0.2941 0.3529 0.1176  plane waves:     208
 k-point 149 :  -0.2353 0.3529 0.1176  plane waves:     208
 k-point 150 :  -0.4706 0.4118 0.1176  plane waves:     211
 k-point 151 :  -0.4118 0.4118 0.1176  plane waves:     210
 k-point 152 :  -0.3529 0.4118 0.1176  plane waves:     211
 k-point 153 :  -0.2941 0.4118 0.1176  plane waves:     212
 k-point 154 :  -0.4118 0.4706 0.1176  plane waves:     209
 k-point 155 :  -0.3529 0.4706 0.1176  plane waves:     210
 k-point 156 :  -0.4706 0.3529 0.1765  plane waves:     210
 k-point 157 :  -0.4118 0.3529 0.1765  plane waves:     210
 k-point 158 :  -0.3529 0.3529 0.1765  plane waves:     210
 k-point 159 :  -0.4118 0.4118 0.1765  plane waves:     210
 k-point 160 :  -0.3529 0.4118 0.1765  plane waves:     211
 k-point 161 :  -0.2941 0.4118 0.1765  plane waves:     209
 k-point 162 :  -0.2353 0.4118 0.1765  plane waves:     208
 k-point 163 :  -0.3529 0.4706 0.1765  plane waves:     210
 k-point 164 :  -0.2941 0.4706 0.1765  plane waves:     208
 k-point 165 :  -0.2941 0.4706 0.2353  plane waves:     208

 maximum and minimum number of plane-waves per node :       220      181

 maximum number of plane-waves:       220
 maximum index in each direction: 
   IXMAX=    4   IYMAX=    4   IZMAX=    4
   IXMIN=   -4   IYMIN=   -4   IZMIN=   -4


 serial   3D FFT for wavefunctions
 parallel 3D FFT for charge:
    minimum data exchange during FFTs selected (reduces bandwidth)


 total amount of memory used by VASP MPI-rank0    36126. kBytes
=======================================================================

   base      :      30000. kBytes
   nonl-proj :       2326. kBytes
   fftplans  :       1775. kBytes
   grid      :        819. kBytes
   one-center:          3. kBytes
   wavefun   :       1203. kBytes
 
     INWAV:  cpu time    0.0000: real time    0.0006
 Broyden mixing: mesh for mixing (old mesh)
   NGX =  9   NGY =  9   NGZ =  9
  (NGX  = 36   NGY  = 36   NGZ  = 36)
  gives a total of    729 points

 initial charge density was supplied:
 charge density of overlapping atoms calculated
 number of electron       4.0000000 magnetization 
 keeping initial charge density in first step


--------------------------------------------------------------------------------------------------------


 Maximum index for augmentation-charges        26783 (set IRDMAX)


--------------------------------------------------------------------------------------------------------


 First call to EWALD:  gamma=   0.734
 Maximum number of real-space cells 3x 3x 3
 Maximum number of reciprocal cells 3x 3x 3

    FEWALD:  cpu time    0.0030: real time    0.0035


--------------------------------------- Iteration      1(   1)  ---------------------------------------


    POTLOK:  cpu time    0.0190: real time    0.0228
    SETDIJ:  cpu time    0.1710: real time    0.1706
     EDDAV:  cpu time    0.8029: real time    0.8042
       DOS:  cpu time    0.0020: real time    0.0024
    --------------------------------------------
      LOOP:  cpu time    0.9958: real time    1.0004

 eigenvalue-minimisations  :  2864
 total energy-change (2. order) :-0.3426378E+01  (-0.1469699E+03)
 number of electron       4.0000000 magnetization 
 augmentation part        4.0000000 magnetization 

 Free energy of the ion-electron system (eV)
  ---------------------------------------------------
  alpha Z        PSCENC =         2.39057823
  Ewald energy   TEWEN  =      -137.78496289
  -Hartree energ DENC   =        -0.54229904
  -exchange      EXHF   =         0.00000000
  -V(xc)+E(xc)   XCENC  =        -8.73348015
  PAW double counting   =        88.12379961      -70.53051779
  entropy T*S    EENTRO =        -0.00055615
  eigenvalues    EBANDS =        20.58543331
  atomic energy  EATOM  =       103.06562707
  Solvation  Ediel_sol  =         0.00000000
  ---------------------------------------------------
  free energy    TOTEN  =        -3.42637780 eV

  energy without entropy =       -3.42582165  energy(sigma->0) =       -3.42609972


--------------------------------------------------------------------------------------------------------




--------------------------------------- Iteration      1(   2)  ---------------------------------------


     EDDAV:  cpu time    1.1118: real time    1.1259
       DOS:  cpu time    0.0020: real time    0.0025
    --------------------------------------------
      LOOP:  cpu time    1.1138: real time    1.1283

 eigenvalue-minimisations  :  4048
 total energy-change (2. order) :-0.1468984E+01  (-0.1411543E+01)
 number of electron       4.0000000 magnetization 
 augmentation part        4.0000000 magnetization 

 Free energy of the ion-electron system (eV)
  ---------------------------------------------------
  alpha Z        PSCENC =         2.39057823
  Ewald energy   TEWEN  =      -137.78496289
  -Hartree energ DENC   =        -0.54229904
  -exchange      EXHF   =         0.00000000
  -V(xc)+E(xc)   XCENC  =        -8.73348015
  PAW double counting   =        88.12379961      -70.53051779
  entropy T*S    EENTRO =        -0.00044693
  eigenvalues    EBANDS =        19.11633991
  atomic energy  EATOM  =       103.06562707
  Solvation  Ediel_sol  =         0.00000000
  ---------------------------------------------------
  free energy    TOTEN  =        -4.89536198 eV

  energy without entropy =       -4.89491505  energy(sigma->0) =       -4.89513851


--------------------------------------------------------------------------------------------------------




--------------------------------------- Iteration      1(   3)  ---------------------------------------


     EDDAV:  cpu time    0.8219: real time    0.8371
       DOS:  cpu time    0.0020: real time    0.0025
    --------------------------------------------
      LOOP:  cpu time    0.8239: real time    0.8396

 eigenvalue-minimisations  :  2920
 total energy-change (2. order) :-0.6307571E-02  (-0.6307034E-02)
 number of electron       4.0000000 magnetization 
 augmentation part        4.0000000 magnetization 

 Free energy of the ion-electron system (eV)
  ---------------------------------------------------
  alpha Z        PSCENC =         2.39057823
  Ewald energy   TEWEN  =      -137.78496289
  -Hartree energ DENC   =        -0.54229904
  -exchange      EXHF   =         0.00000000
  -V(xc)+E(xc)   XCENC  =        -8.73348015
  PAW double counting   =        88.12379961      -70.53051779
  entropy T*S    EENTRO =        -0.00044797
  eigenvalues    EBANDS =        19.11003338
  atomic energy  EATOM  =       103.06562707
  Solvation  Ediel_sol  =         0.00000000
  ---------------------------------------------------
  free energy    TOTEN  =        -4.90166955 eV

  energy without entropy =       -4.90122158  energy(sigma->0) =       -4.90144556


--------------------------------------------------------------------------------------------------------




--------------------------------------- Iteration      1(   4)  ---------------------------------------


     EDDAV:  cpu time    1.2098: real time    1.2184
       DOS:  cpu time    0.0010: real time    0.0028
    --------------------------------------------
      LOOP:  cpu time    1.2108: real time    1.2212

 eigenvalue-minimisations  :  4400
 total energy-change (2. order) :-0.4720451E-05  (-0.4720199E-05)
 number of electron       4.0000000 magnetization 
 augmentation part        4.0000000 magnetization 

 Free energy of the ion-electron system (eV)
  ---------------------------------------------------
  alpha Z        PSCENC =         2.39057823
  Ewald energy   TEWEN  =      -137.78496289
  -Hartree energ DENC   =        -0.54229904
  -exchange      EXHF   =         0.00000000
  -V(xc)+E(xc)   XCENC  =        -8.73348015
  PAW double counting   =        88.12379961      -70.53051779
  entropy T*S    EENTRO =        -0.00044797
  eigenvalues    EBANDS =        19.11002866
  atomic energy  EATOM  =       103.06562707
  Solvation  Ediel_sol  =         0.00000000
  ---------------------------------------------------
  free energy    TOTEN  =        -4.90167427 eV

  energy without entropy =       -4.90122630  energy(sigma->0) =       -4.90145028


--------------------------------------------------------------------------------------------------------




--------------------------------------- Iteration      1(   5)  ---------------------------------------


     EDDAV:  cpu time    0.8299: real time    0.8451
       DOS:  cpu time    0.0010: real time    0.0024
    CHARGE:  cpu time    0.0490: real time    0.0494
    MIXING:  cpu time    0.0010: real time    0.0009
    --------------------------------------------
      LOOP:  cpu time    0.8809: real time    0.8978

 eigenvalue-minimisations  :  2976
 total energy-change (2. order) : 0.1264880E-08  (-0.2769431E-09)
 number of electron       4.0000000 magnetization 
 augmentation part       -0.2404593 magnetization 

 Broyden mixing:
  rms(total) = 0.27996E+00    rms(broyden)= 0.27996E+00
  rms(prec ) = 0.41609E+00
  weight for this iteration     100.00

 Free energy of the ion-electron system (eV)
  ---------------------------------------------------
  alpha Z        PSCENC =         2.39057823
  Ewald energy   TEWEN  =      -137.78496289
  -Hartree energ DENC   =        -0.54229904
  -exchange      EXHF   =         0.00000000
  -V(xc)+E(xc)   XCENC  =        -8.73348015
  PAW double counting   =        88.12379961      -70.53051779
  entropy T*S    EENTRO =        -0.00044797
  eigenvalues    EBANDS =        19.11002866
  atomic energy  EATOM  =       103.06562707
  Solvation  Ediel_sol  =         0.00000000
  ---------------------------------------------------
  free energy    TOTEN  =        -4.90167427 eV

  energy without entropy =       -4.90122630  energy(sigma->0) =       -4.90145028


--------------------------------------------------------------------------------------------------------




--------------------------------------- Iteration      1(   6)  ---------------------------------------


    POTLOK:  cpu time    0.0160: real time    0.0224
    SETDIJ:  cpu time    0.1640: real time    0.1657
     EDDAV:  cpu time    0.8339: real time    0.8337
       DOS:  cpu time    0.0020: real time    0.0027
    CHARGE:  cpu time    0.0470: real time    0.0477
    MIXING:  cpu time    0.0010: real time    0.0010
    --------------------------------------------
      LOOP:  cpu time    1.0638: real time    1.0732

 eigenvalue-minimisations  :  3000
 total energy-change (2. order) : 0.1355460E-01  (-0.3905143E-03)
 number of electron       4.0000000 magnetization 
 augmentation part       -0.2426357 magnetization 

 Broyden mixing:
  rms(total) = 0.15473E+00    rms(broyden)= 0.15473E+00
  rms(prec ) = 0.24054E+00
  weight for this iteration     100.00

 eigenvalues of (default mixing * dielectric matrix)
  average eigenvalue GAMMA=   2.2250
  2.2250

 Free energy of the ion-electron system (eV)
  ---------------------------------------------------
  alpha Z        PSCENC =         2.39057823
  Ewald energy   TEWEN  =      -137.78496289
  -Hartree energ DENC   =        -0.47307945
  -exchange      EXHF   =         0.00000000
  -V(xc)+E(xc)   XCENC  =        -8.71186810
  PAW double counting   =       172.21898557     -154.62604752
  entropy T*S    EENTRO =        -0.00045690
  eigenvalues    EBANDS =        19.03310432
  atomic energy  EATOM  =       103.06562707
  Solvation  Ediel_sol  =         0.00000000
  ---------------------------------------------------
  free energy    TOTEN  =        -4.88811967 eV

  energy without entropy =       -4.88766277  energy(sigma->0) =       -4.88789122


--------------------------------------------------------------------------------------------------------




--------------------------------------- Iteration      1(   7)  ---------------------------------------


    POTLOK:  cpu time    0.0160: real time    0.0311
    SETDIJ:  cpu time    0.1650: real time    0.1653
     EDDAV:  cpu time    0.8649: real time    0.8666
       DOS:  cpu time    0.0020: real time    0.0025
    CHARGE:  cpu time    0.0480: real time    0.0478
    MIXING:  cpu time    0.0010: real time    0.0009
    --------------------------------------------
      LOOP:  cpu time    1.0958: real time    1.1142

 eigenvalue-minimisations  :  3136
 total energy-change (2. order) : 0.7802330E-02  (-0.7915543E-03)
 number of electron       4.0000000 magnetization 
 augmentation part       -0.2458149 magnetization 

 Broyden mixing:
  rms(total) = 0.13419E-01    rms(broyden)= 0.13419E-01
  rms(prec ) = 0.17952E-01
  weight for this iteration     100.00

 eigenvalues of (default mixing * dielectric matrix)
  average eigenvalue GAMMA=   2.3829
  2.3829  2.3829

 Free energy of the ion-electron system (eV)
  ---------------------------------------------------
  alpha Z        PSCENC =         2.39057823
  Ewald energy   TEWEN  =      -137.78496289
  -Hartree energ DENC   =        -0.40385967
  -exchange      EXHF   =         0.00000000
  -V(xc)+E(xc)   XCENC  =        -8.67607274
  PAW double counting   =       333.77526207     -316.18695540
  entropy T*S    EENTRO =        -0.00048622
  eigenvalues    EBANDS =        18.94055222
  atomic energy  EATOM  =       103.06562707
  Solvation  Ediel_sol  =         0.00000000
  ---------------------------------------------------
  free energy    TOTEN  =        -4.88031734 eV

  energy without entropy =       -4.87983111  energy(sigma->0) =       -4.88007423


--------------------------------------------------------------------------------------------------------




--------------------------------------- Iteration      1(   8)  ---------------------------------------


    POTLOK:  cpu time    0.0150: real time    0.0315
    SETDIJ:  cpu time    0.1660: real time    0.1654
     EDDAV:  cpu time    1.1078: real time    1.1096
       DOS:  cpu time    0.0020: real time    0.0025
    CHARGE:  cpu time    0.0470: real time    0.0477
    MIXING:  cpu time    0.0010: real time    0.0010
    --------------------------------------------
      LOOP:  cpu time    1.3398: real time    1.3578

 eigenvalue-minimisations  :  4024
 total energy-change (2. order) : 0.3872412E-04  (-0.2455002E-05)
 number of electron       4.0000000 magnetization 
 augmentation part       -0.2459020 magnetization 

 Broyden mixing:
  rms(total) = 0.14448E-02    rms(broyden)= 0.14448E-02
  rms(prec ) = 0.23161E-02
  weight for this iteration     100.00

 eigenvalues of (default mixing * dielectric matrix)
  average eigenvalue GAMMA=   2.0138
  1.0056  2.4128  2.6230

 Free energy of the ion-electron system (eV)
  ---------------------------------------------------
  alpha Z        PSCENC =         2.39057823
  Ewald energy   TEWEN  =      -137.78496289
  -Hartree energ DENC   =        -0.40605304
  -exchange      EXHF   =         0.00000000
  -V(xc)+E(xc)   XCENC  =        -8.67211503
  PAW double counting   =       318.94228097     -301.36050365
  entropy T*S    EENTRO =        -0.00048644
  eigenvalues    EBANDS =        18.94535616
  atomic energy  EATOM  =       103.06562707
  Solvation  Ediel_sol  =         0.00000000
  ---------------------------------------------------
  free energy    TOTEN  =        -4.88027861 eV

  energy without entropy =       -4.87979217  energy(sigma->0) =       -4.88003539


--------------------------------------------------------------------------------------------------------




--------------------------------------- Iteration      1(   9)  ---------------------------------------


    POTLOK:  cpu time    0.0190: real time    0.0357
    SETDIJ:  cpu time    0.1660: real time    0.1654
     EDDAV:  cpu time    0.8929: real time    0.8934
       DOS:  cpu time    0.0010: real time    0.0025
    --------------------------------------------
      LOOP:  cpu time    1.0788: real time    1.0970

 eigenvalue-minimisations  :  3192
 total energy-change (2. order) :-0.2573274E-06  (-0.3736090E-07)
 number of electron       4.0000000 magnetization 
 augmentation part       -0.2459020 magnetization 

 Free energy of the ion-electron system (eV)
  ---------------------------------------------------
  alpha Z        PSCENC =         2.39057823
  Ewald energy   TEWEN  =      -137.78496289
  -Hartree energ DENC   =        -0.40621014
  -exchange      EXHF   =         0.00000000
  -V(xc)+E(xc)   XCENC  =        -8.67152185
  PAW double counting   =       317.19408284     -299.61301527
  entropy T*S    EENTRO =        -0.00048659
  eigenvalues    EBANDS =        18.94562972
  atomic energy  EATOM  =       103.06562707
  Solvation  Ediel_sol  =         0.00000000
  ---------------------------------------------------
  free energy    TOTEN  =        -4.88027887 eV

  energy without entropy =       -4.87979228  energy(sigma->0) =       -4.88003557


--------------------------------------------------------------------------------------------------------




 average (electrostatic) potential at core
  the test charge radii are     0.9892
  (the norm of the test charge is              1.0000)
       1 -79.5462
 
 
 
 E-fermi :  10.6237     XC(G=0): -11.3060     alpha+bet :-17.0325

 Fermi energy:        10.6237285556

 k-point     1 :       0.0000    0.0000    0.0000
  band No.  band energies     occupation 
      1      -4.1752      2.00000
      2      22.0072      0.00000
      3      22.0072      0.00000
      4      22.0072      0.00000
      5      22.5972      0.00000
      6      22.5972      0.00000
      7      22.5972      0.00000
      8      27.9721      0.00000

 k-point     2 :       0.0588    0.0000    0.0000
  band No.  band energies     occupation 
      1      -4.0725      2.00000
      2      20.0433      0.00000
      3      21.3575      0.00000
      4      21.3575      0.00000
      5      23.3724      0.00000
      6      23.3724      0.00000
      7      23.6631      0.00000
      8      28.8191      0.00000

 k-point     3 :       0.1176    0.0000    0.0000
  band No.  band energies     occupation 
      1      -3.7647      2.00000
      2      17.5078      0.00000
      3      20.6361      0.00000
      4      20.6361      0.00000
      5      24.0318      0.00000
      6      24.4035      0.00000
      7      24.4035      0.00000
      8      28.1103      0.00000

 k-point     4 :       0.1765    0.0000    0.0000
  band No.  band energies     occupation 
      1      -3.2529      2.00000
      2      14.9448      0.00000
      3      20.0635      0.00000
      4      20.0635      0.00000
      5      24.0149      0.00000
      6      24.9644      0.00000
      7      24.9644      0.00000
      8      27.6518      0.00000

 k-point     5 :       0.2353    0.0000    0.0000
  band No.  band energies     occupation 
      1      -2.5386      2.00000
      2      12.4631      0.00000
      3      19.6539      0.00000
      4      19.6539      0.00000
      5      23.9221      0.00000
      6      24.4069      0.00000
      7      24.4069      0.00000
      8      28.5445      0.00000

 k-point     6 :       0.2941   -0.0000    0.0000
  band No.  band energies     occupation 
      1      -1.6243      2.00000
      2      10.1090      2.00000
      3      19.4017      0.00000
      4      19.4017      0.00000
      5      23.4700      0.00000
      6      23.4701      0.00000
      7      23.8713      0.00000
      8      28.7581      0.00000

 k-point     7 :       0.3529   -0.0000    0.0000
  band No.  band energies     occupation 
      1      -0.5131      2.00000
      2       7.9066      2.00000
      3      19.2928      0.00000
      4      19.2928      0.00000
      5      22.5977      0.00000
      6      22.5977      0.00000
      7      23.9049      0.00000
      8      27.7692      0.00000

 k-point     8 :       0.4118    0.0000    0.0000
  band No.  band energies     occupation 
      1       0.7892      2.00000
      2       5.8722      2.00000
      3      19.2941      0.00000
      4      19.2941      0.00000
      5      21.9176      0.00000
      6      21.9176      0.00000
      7      24.0151      0.00000
      8      26.9947      0.00000

 k-point     9 :       0.4706    0.0000    0.0000
  band No.  band energies     occupation 
      1       2.2588      2.00000
      2       4.0351      2.00000
      3      19.3372      0.00000
      4      19.3372      0.00000
      5      21.5320      0.00000
      6      21.5321      0.00000
      7      24.1256      0.00000
      8      26.5420      0.00000

 k-point    10 :       0.0588    0.0588    0.0000
  band No.  band energies     occupation 
      1      -4.0383      2.00000
      2      20.4413      0.00000
      3      20.4413      0.00000
      4      21.6903      0.00000
      5      21.8327      0.00000
      6      24.3325      0.00000
      7      24.3325      0.00000
      8      28.1469      0.00000

 k-point    11 :       0.1176    0.0588    0.0000
  band No.  band energies     occupation 
[...]
      1       5.1346      2.00000
      2       5.9757      2.00000
      3      10.3273      0.01449
      4      12.4770      0.00000
      5      17.1097      0.00000
      6      19.5261      0.00000
      7      33.1647      0.00000
      8      33.7666      0.00000

 k-point   131 :       0.3529    0.2353    0.1176
  band No.  band energies     occupation 
      1      -1.6096      2.00000
      2      12.6681      0.00000
      3      13.4025      0.00000
      4      17.5843      0.00000
      5      21.2426      0.00000
      6      22.3107      0.00000
      7      26.1617      0.00000
      8      28.8259      0.00000

 k-point   132 :       0.4118    0.2353    0.1176
  band No.  band energies     occupation 
      1      -0.7162      2.00000
      2      10.6884      0.00000
      3      12.9004      0.00000
      4      16.4653      0.00000
      5      21.4545      0.00000
      6      23.3456      0.00000
      7      25.3656      0.00000
      8      29.3242      0.00000

 k-point   133 :       0.4706    0.2353    0.1176
  band No.  band energies     occupation 
      1       0.3693      2.00000
      2       8.5795      2.00000
      3      12.8293      0.00000
      4      15.4644      0.00000
      5      21.4367      0.00000
      6      23.8866      0.00000
      7      25.6673      0.00000
      8      29.5564      0.00000

 k-point   134 :      -0.4706    0.2353    0.1176
  band No.  band energies     occupation 
      1       1.6408      2.00000
      2       6.6069      2.00000
      3      12.9450      0.00000
      4      14.6339      0.00000
      5      21.5228      0.00000
      6      23.3364      0.00000
      7      27.2433      0.00000
      8      29.7578      0.00000

 k-point   135 :      -0.4118    0.2353    0.1176
  band No.  band energies     occupation 
      1       3.0702      2.00000
      2       4.8234      2.00000
      3      13.1749      0.00000
      4      14.0444      0.00000
      5      21.6635      0.00000
      6      22.8926      0.00000
      7      28.4876      0.00000
      8      30.0660      0.00000

 k-point   136 :       0.4118    0.2941    0.1176
  band No.  band energies     occupation 
      1      -0.4186      2.00000
      2      11.6742      0.00000
      3      12.4135      0.00000
      4      14.7994      0.00000
      5      20.2927      0.00000
      6      21.4415      0.00000
      7      27.1849      0.00000
      8      31.2385      0.00000

 k-point   137 :       0.4706    0.2941    0.1176
  band No.  band energies     occupation 
      1       0.6002      2.00000
      2       9.8105      2.00000
      3      12.0082      0.00000
      4      13.7181      0.00000
      5      20.6525      0.00000
      6      22.7473      0.00000
      7      26.3659      0.00000
      8      31.6867      0.00000

 k-point   138 :      -0.4706    0.2941    0.1176
  band No.  band energies     occupation 
      1       1.8068      2.00000
      2       7.8198      2.00000
      3      11.9760      0.00000
      4      12.8699      0.00000
      5      20.7991      0.00000
      6      24.3331      0.00000
      7      25.8826      0.00000
      8      31.5571      0.00000

 k-point   139 :      -0.4118    0.2941    0.1176
  band No.  band energies     occupation 
      1       3.1880      2.00000
      2       5.9761      2.00000
      3      11.7434      0.00000
      4      12.6031      0.00000
      5      21.0651      0.00000
      6      24.5122      0.00000
      7      27.0559      0.00000
      8      30.8126      0.00000

 k-point   140 :      -0.3529    0.2941    0.1176
  band No.  band energies     occupation 
      1       4.1280      2.00000
      2       4.9179      2.00000
      3      11.2665      0.00000
      4      12.9528      0.00000
      5      21.4749      0.00000
      6      24.1076      0.00000
      7      28.8183      0.00000
      8      29.4321      0.00000

 k-point   141 :      -0.2941    0.2941    0.1176
  band No.  band energies     occupation 
      1       2.7102      2.00000
      2       6.5626      2.00000
      3      10.9037      0.00000
      4      13.5623      0.00000
      5      22.0038      0.00000
      6      23.8080      0.00000
      7      27.4231      0.00000
      8      30.4688      0.00000

 k-point   142 :      -0.2353    0.2941    0.1176
  band No.  band energies     occupation 
      1       1.3837      2.00000
      2       8.4397      2.00000
      3      10.7376      0.00000
      4      14.3664      0.00000
      5      22.5675      0.00000
      6      23.6523      0.00000
      7      25.6174      0.00000
      8      30.9634      0.00000

 k-point   143 :      -0.1765    0.2941    0.1176
  band No.  band energies     occupation 
      1       0.2387      2.00000
      2      10.1763      1.93245
      3      11.0518      0.00000
      4      15.3428      0.00000
      5      22.9571      0.00000
      6      23.0254      0.00000
      7      24.8174      0.00000
      8      30.4503      0.00000

 k-point   144 :       0.4706    0.3529    0.1176
  band No.  band energies     occupation 
      1       1.0266      2.00000
      2      10.9257      0.00000
      3      11.4121      0.00000
      4      12.3084      0.00000
      5      19.5633      0.00000
      6      20.7896      0.00000
      7      28.4376      0.00000
      8      33.4168      0.00000

 k-point   145 :      -0.4706    0.3529    0.1176
  band No.  band energies     occupation 
      1       2.1658      2.00000
      2       9.1658      2.00000
      3      10.7707      0.00000
      4      11.6811      0.00000
      5      20.0645      0.00000
      6      22.2568      0.00000
      7      27.6789      0.00000
      8      33.2253      0.00000

 k-point   146 :      -0.4118    0.3529    0.1176
  band No.  band energies     occupation 
      1       3.4845      2.00000
      2       7.3048      2.00000
      3      10.0463      2.00000
      4      11.7455      0.00000
      5      20.3488      0.00000
      6      24.2039      0.00000
      7      27.0603      0.00000
      8      31.7952      0.00000

 k-point   147 :      -0.3529    0.3529    0.1176
  band No.  band energies     occupation 
      1       4.9013      2.00000
      2       5.6574      2.00000
      3       9.4281      2.00000
      4      12.1055      0.00000
      5      20.7511      0.00000
      6      25.7201      0.00000
      7      27.0855      0.00000
      8      29.9324      0.00000

 k-point   148 :      -0.2941    0.3529    0.1176
  band No.  band energies     occupation 
      1       3.9615      2.00000
      2       6.6789      2.00000
      3       9.0102      2.00000
      4      12.6734      0.00000
      5      21.3002      0.00000
      6      25.6947      0.00000
      7      27.4391      0.00000
      8      29.2761      0.00000

 k-point   149 :      -0.2353    0.3529    0.1176
  band No.  band energies     occupation 
      1       2.5851      2.00000
      2       8.1649      2.00000
      3       9.0935      2.00000
      4      13.4301      0.00000
      5      21.9761      0.00000
      6      25.1464      0.00000
      7      25.9160      0.00000
      8      30.9732      0.00000

 k-point   150 :      -0.4706    0.4118    0.1176
  band No.  band energies     occupation 
      1       2.7160      2.00000
      2       9.2462      2.00000
      3      10.4255      0.00000
      4      11.3883      0.00000
      5      19.0718      0.00000
      6      20.3483      0.00000
      7      29.8804      0.00000
      8      34.1230      0.00000

 k-point   151 :      -0.4118    0.4118    0.1176
  band No.  band energies     occupation 
      1       3.9635      2.00000
      2       8.2753      2.00000
      3       8.9392      2.00000
      4      11.1749      0.00000
      5      19.7071      0.00000
      6      21.9470      0.00000
      7      29.2068      0.00000
      8      32.4400      0.00000

 k-point   152 :      -0.3529    0.4118    0.1176
  band No.  band energies     occupation 
      1       5.3543      2.00000
      2       6.9615      2.00000
      3       7.8483      2.00000
      4      11.4620      0.00000
      5      20.1192      0.00000
      6      24.0587      0.00000
      7      28.6014      0.00000
      8      30.3859      0.00000

 k-point   153 :      -0.2941    0.4118    0.1176
  band No.  band energies     occupation 
      1       5.3739      2.00000
      2       6.6508      2.00000
      3       7.6203      2.00000
      4      11.9705      0.00000
      5      20.6419      0.00000
      6      26.1307      0.00000
      7      27.7628      0.00000
      8      28.7655      0.00000

 k-point   154 :      -0.4118    0.4706    0.1176
  band No.  band energies     occupation 
      1       4.6071      2.00000
      2       6.9344      2.00000
      3      10.1753      1.93636
      4      11.1035      0.00000
      5      18.8253      0.00000
      6      20.1252      0.00000
      7      31.4455      0.00000
      8      32.9836      0.00000

 k-point   155 :      -0.3529    0.4706    0.1176
  band No.  band energies     occupation 
      1       5.6402      2.00000
      2       6.4574      2.00000
      3       8.7382      2.00000
      4      11.0379      0.00000
      5      19.5874      0.00000
      6      21.8415      0.00000
      7      30.7208      0.00000
      8      31.0040      0.00000

 k-point   156 :      -0.4706    0.3529    0.1765
  band No.  band energies     occupation 
      1       1.6780      2.00000
      2       9.4235      2.00000
      3      10.2769      0.30846
      4      12.6468      0.00000
      5      22.2547      0.00000
      6      22.8792      0.00000
      7      25.6348      0.00000
      8      32.9379      0.00000

 k-point   157 :      -0.4118    0.3529    0.1765
  band No.  band energies     occupation 
      1       2.9403      2.00000
      2       7.8057      2.00000
      3      10.0716      2.00000
      4      11.7754      0.00000
      5      22.6395      0.00000
      6      23.9801      0.00000
      7      25.5488      0.00000
      8      31.4372      0.00000

 k-point   158 :      -0.3529    0.3529    0.1765
  band No.  band energies     occupation 
      1       4.3622      2.00000
      2       6.0682      2.00000
      3      10.2750      0.33414
      4      11.1662      0.00000
      5      22.7775      0.00000
      6      24.0166      0.00000
      7      27.0602      0.00000
      8      29.5806      0.00000

 k-point   159 :      -0.4118    0.4118    0.1765
  band No.  band energies     occupation 
      1       3.3595      2.00000
      2       8.9207      2.00000
      3       9.4643      2.00000
      4      10.3832      0.00006
      5      21.7783      0.00000
      6      22.6068      0.00000
      7      26.9680      0.00000
      8      31.9881      0.00000

 k-point   160 :      -0.3529    0.4118    0.1765
  band No.  band energies     occupation 
      1       4.7232      2.00000
      2       7.4102      2.00000
      3       9.0354      2.00000
      4       9.9975      2.00000
      5      22.3856      0.00000
      6      24.2389      0.00000
      7      26.4325      0.00000
      8      29.9447      0.00000

 k-point   161 :      -0.2941    0.4118    0.1765
  band No.  band energies     occupation 
      1       5.6738      2.00000
      2       6.3484      2.00000
      3       8.5889      2.00000
      4      10.3113      0.04633
      5      22.7985      0.00000
      6      25.2881      0.00000
      7      26.5110      0.00000
      8      28.3358      0.00000

 k-point   162 :      -0.2353    0.4118    0.1765
  band No.  band energies     occupation 
      1       4.2526      2.00000
      2       7.6609      2.00000
      3       8.5559      2.00000
      4      10.9312      0.00000
      5      23.2455      0.00000
      6      24.6922      0.00000
      7      25.7011      0.00000
      8      29.5707      0.00000

 k-point   163 :      -0.3529    0.4706    0.1765
  band No.  band energies     occupation 
      1       5.2393      2.00000
      2       7.5159      2.00000
      3       8.6694      2.00000
      4       9.7456      2.00000
      5      21.5384      0.00000
      6      22.4407      0.00000
      7      28.5302      0.00000
      8      30.3981      0.00000

 k-point   164 :      -0.2941    0.4706    0.1765
  band No.  band energies     occupation 
      1       6.3985      2.00000
      2       6.9382      2.00000
      3       7.5952      2.00000
      4       9.7560      2.00000
      5      22.2862      0.00000
      6      24.2397      0.00000
      7      27.5510      0.00000
      8      28.6537      0.00000

 k-point   165 :      -0.2941    0.4706    0.2353
  band No.  band energies     occupation 
      1       6.1075      2.00000
      2       7.4086      2.00000
      3       7.9602      2.00000
      4       8.9727      2.00000
      5      24.2569      0.00000
      6      24.4609      0.00000
      7      25.8386      0.00000
      8      28.0723      0.00000


--------------------------------------------------------------------------------------------------------


 soft charge-density along one line, spin component           1
         0         1         2         3         4         5         6         7         8         9
 total charge-density along one line
 
 pseudopotential strength for first ion, spin component:           1
 17.967  25.064   0.000  -0.000   0.000   0.000  -0.000   0.000
 25.064  34.971   0.000  -0.000   0.000   0.000  -0.000   0.000
  0.000   0.000   4.096  -0.000  -0.000   7.630  -0.000  -0.000
 -0.000  -0.000  -0.000   4.096  -0.000  -0.000   7.630  -0.000
  0.000   0.000  -0.000  -0.000   4.096  -0.000  -0.000   7.630
  0.000   0.000   7.630  -0.000  -0.000  14.224  -0.000  -0.000
 -0.000  -0.000  -0.000   7.630  -0.000  -0.000  14.224  -0.000
  0.000   0.000  -0.000  -0.000   7.630  -0.000  -0.000  14.224
 total augmentation occupancy for first ion, spin component:           1
  4.848  -2.035   0.000   0.000   0.000   0.000   0.000   0.000
 -2.035   1.327   0.000   0.000   0.000   0.000   0.000   0.000
  0.000   0.000   2.313  -0.000   0.000  -0.550   0.000  -0.000
  0.000   0.000  -0.000   2.313  -0.000   0.000  -0.550   0.000
  0.000   0.000   0.000  -0.000   2.313  -0.000   0.000  -0.550
  0.000   0.000  -0.550   0.000  -0.000   0.144  -0.000   0.000
  0.000   0.000   0.000  -0.550   0.000  -0.000   0.144  -0.000
  0.000   0.000  -0.000   0.000  -0.550   0.000  -0.000   0.144


------------------------ aborting loop because EDIFF is reached ----------------------------------------


    CHARGE:  cpu time    0.0460: real time    0.0472
    FORLOC:  cpu time    0.0000: real time    0.0006
    FORNL :  cpu time    0.0590: real time    0.0589
    STRESS:  cpu time    0.4569: real time    0.4563
    FORCOR:  cpu time    0.0140: real time    0.0140
    FORHAR:  cpu time    0.0020: real time    0.0027
    MIXING:  cpu time    0.0000: real time    0.0007
    OFIELD:  cpu time    0.0000: real time    0.0002

  FORCE on cell =-STRESS in cart. coord.  units (eV):
  Direction    XX          YY          ZZ          XY          YZ          ZX
  --------------------------------------------------------------------------------------
  Alpha Z     2.32779     2.32779     2.32779
  Ewald     -45.52267   -45.52266   -45.52266     0.00000     0.00001     0.00001
  Hartree     0.14832     0.14832     0.14832     0.00000     0.00000     0.00000
  E(xc)     -12.69737   -12.69737   -12.69737    -0.00000    -0.00000    -0.00000
  Local      -4.97403    -4.97403    -4.97402     0.00000     0.00000     0.00001
  n-local    36.35939    38.60223    40.28105    -0.17894     0.04427    -0.10074
  augment    -6.29698    -6.29698    -6.29698    -0.00000    -0.00000    -0.00000
  Kinetic    52.37369    26.80856     6.62033    -3.79385     2.11846    -0.17159
  Fock        0.00000     0.00000     0.00000     0.00000     0.00000     0.00000
  -------------------------------------------------------------------------------------
  Total       0.00016     0.00016     0.00016    -0.00000    -0.00000    -0.00000
  in kB       0.01737     0.01737     0.01737    -0.00000    -0.00000    -0.00000
  external pressure =        0.02 kB  Pullay stress =        0.00 kB


 VOLUME and BASIS-vectors are now :
 -----------------------------------------------------------------------------
  energy-cutoff  :      350.00
  volume of cell :       14.46
      direct lattice vectors                 reciprocal lattice vectors
     2.368313007 -0.000000004  1.367344998     0.422241484 -0.149284924  0.000000001
     0.789437666  2.232866681  1.367344998     0.000000000  0.447854772  0.000000001
    -0.000000010 -0.000000007  2.734692033    -0.211120585 -0.149284813  0.365671887

  length of vectors
     2.734691727  2.734691534  2.734692033     0.447854730  0.447854772  0.447854648


 FORCES acting on ions
    electron-ion (+dipol)            ewald-force                    non-local-force                 convergence-correction
 -----------------------------------------------------------------------------------------------
   -.209E-16 0.499E-15 0.768E-15   -.728E-15 -.167E-16 -.153E-16   -.855E-26 0.540E-26 -.404E-26   0.185E-15 -.110E-15 -.101E-16
 -----------------------------------------------------------------------------------------------
   -.209E-16 0.499E-15 0.768E-15   -.728E-15 -.167E-16 -.153E-16   -.855E-26 0.540E-26 -.404E-26   0.185E-15 -.110E-15 -.101E-16
 
 
 POSITION                                       TOTAL-FORCE (eV/Angst)
 -----------------------------------------------------------------------------------
      0.00000     -0.00000      0.00000         0.000000      0.000000      0.000000
 -----------------------------------------------------------------------------------
    total drift:                               -0.000000      0.000000      0.000000


--------------------------------------------------------------------------------------------------------



  FREE ENERGIE OF THE ION-ELECTRON SYSTEM (eV)
  ---------------------------------------------------
  free  energy   TOTEN  =        -4.88292740 eV

  energy  without entropy=       -4.88237926  energy(sigma->0) =       -4.88265333
 
 d Force = 0.0000000E+00[ 0.000E+00, 0.000E+00]  d Energy = 0.2010664E-04-0.201E-04
 d Force = 0.0000000E+00[ 0.000E+00, 0.000E+00]  d Ewald  = 0.1063676E+00-0.106E+00


--------------------------------------------------------------------------------------------------------


    POTLOK:  cpu time    0.1820: real time    0.1898


--------------------------------------------------------------------------------------------------------




--------------------------------------------------------------------------------------------------------


  
 reached required accuracy - stopping structural energy minimisation
     LOOP+:  cpu time    6.3810: real time    6.6416
    4ORBIT:  cpu time    0.0000: real time    0.0000

 total amount of memory used by VASP MPI-rank0    36126. kBytes
=======================================================================

   base      :      30000. kBytes
   nonl-proj :       2326. kBytes
   fftplans  :       1775. kBytes
   grid      :        819. kBytes
   one-center:          3. kBytes
   wavefun   :       1203. kBytes
 
  
  
 General timing and accounting informations for this job:
 ========================================================
  
                  Total CPU time used (sec):       25.037
                            User time (sec):       24.592
                          System time (sec):        0.445
                         Elapsed time (sec):       26.627
  
                   Maximum memory used (kb):       59664.
                   Average memory used (kb):          N/A
  
                          Minor page faults:        10575
                          Major page faults:            1
                 Voluntary context switches:        27911
