<?xml version="1.0" encoding="ISO-8859-1"?>
<modeling>
 <generator>
  <i name="program" type="string">vasp </i>
  <i name="version" type="string">6.2.0  </i>
  <i name="subversion" type="string">18Jan21 (build Aug 12 2022 13:00:08) complex                          parallel </i>
  <i name="platform" type="string">LinuxIFC </i>
  <i name="date" type="string">2024 11 03 </i>
  <i name="time" type="string">21:57:41 </i>
 </generator>
 <incar>
  <i type="int" name="ISTART">     0</i>
  <i type="string" name="PREC">Accurate      (Accurate strictly avoids</i>
  <i type="logical" name="ADDGRID"> T  </i>
  <i type="int" name="ISPIN">     1</i>
  <i type="int" name="NELM">    90</i>
  <i type="int" name="NELMIN">     6</i>
  <i type="int" name="IBRION">     2</i>
  <i name="EDIFF">      0.00000100</i>
  <i name="EDIFFG">     -0.00200000</i>
  <i type="int" name="NSW">   100</i>
  <i type="int" name="ISIF">     3</i>
  <i type="int" name="ISYM">     2</i>
  <i name="ENCUT">    350.00000000</i>
  <i type="logical" name="LREAL"> F  </i>
  <i type="int" name="ISMEAR">     0</i>
  <i name="SIGMA">      0.05000000</i>
  <i type="logical" name="LWAVE"> F  </i>
  <i type="logical" name="LCHARG"> F  </i>
  <i type="logical" name="LASPH"> T  </i>
 </incar>
 <primitive_cell>
  <structure name="primitive_cell" >
   <crystal>
    <varray name="basis" >
     <v>       2.34739500       0.00000000       1.35526800 </v>
     <v>       0.78246500       2.21314500       1.35526800 </v>
     <v>       0.00000000       0.00000000       2.71053800 </v>
    </varray>
    <i name="volume">     14.08158510 </i>
    <varray name="rec_basis" >
     <v>       0.42600415      -0.15061523       0.00000000 </v>
     <v>       0.00000000       0.45184568       0.00000000 </v>
     <v>      -0.21300192      -0.15061511       0.36893045 </v>
    </varray>
   </crystal>
   <varray name="positions" >
    <v>       0.00000000       0.00000000       0.00000000 </v>
   </varray>
  </structure>
  <varray name="primitive_index" >
   <v type="int" >        1 </v>
  </varray>
 </primitive_cell>
 <kpoints>
  <generation param="Monkhorst-Pack">
   <v type="int" name="divisions">      17       17       17 </v>
   <v name="usershift">      0.00000000       0.00000000       0.00000000 </v>
   <v name="genvec1">      0.05882353       0.00000000       0.00000000 </v>
   <v name="genvec2">      0.00000000       0.05882353       0.00000000 </v>
   <v name="genvec3">     -0.00000000      -0.00000000       0.05882353 </v>
   <v name="shift">      0.00000000       0.00000000       0.00000000 </v>
  </generation>
  <varray name="kpointlist" >
   <v>       0.00000000       0.00000000       0.00000000 </v>
   <v>       0.05882353       0.00000000       0.00000000 </v>
   <v>       0.11764706       0.00000000       0.00000000 </v>
   <v>       0.17647059       0.00000000       0.00000000 </v>
   <v>       0.23529412       0.00000000       0.00000000 </v>
   <v>       0.29411765      -0.00000000       0.00000000 </v>
   <v>       0.35294118      -0.00000000       0.00000000 </v>
   <v>       0.41176471       0.00000000       0.00000000 </v>
   <v>       0.47058824       0.00000000       0.00000000 </v>
   <v>       0.05882353       0.05882353       0.00000000 </v>
   <v>       0.11764706       0.05882353       0.00000000 </v>
   <v>       0.17647059       0.05882353       0.00000000 </v>
   <v>       0.23529412       0.05882353       0.00000000 </v>
   <v>       0.29411765       0.05882353       0.00000000 </v>
   <v>       0.35294118       0.05882353       0.00000000 </v>
   <v>       0.41176471       0.05882353       0.00000000 </v>
   <v>       0.47058824       0.05882353       0.00000000 </v>
   <v>      -0.47058824       0.05882353       0.00000000 </v>
   <v>      -0.41176471       0.05882353       0.00000000 </v>
   <v>      -0.35294118       0.05882353       0.00000000 </v>
   <v>      -0.29411765       0.05882353       0.00000000 </v>
   <v>      -0.23529412       0.05882353       0.00000000 </v>
   <v>      -0.17647059       0.05882353       0.00000000 </v>
   <v>      -0.11764706       0.05882353       0.00000000 </v>
   <v>      -0.05882353       0.05882353       0.00000000 </v>
   <v>       0.11764706       0.11764706       0.00000000 </v>
   <v>       0.17647059       0.11764706       0.00000000 </v>
   <v>       0.23529412       0.11764706       0.00000000 </v>
   <v>       0.29411765       0.11764706       0.00000000 </v>
   <v>       0.35294118       0.11764706       0.00000000 </v>
   <v>       0.41176471       0.11764706       0.00000000 </v>
   <v>       0.47058824       0.11764706       0.00000000 </v>
   <v>      -0.47058824       0.11764706       0.00000000 </v>
   <v>      -0.41176471       0.11764706       0.00000000 </v>
   <v>      -0.35294118       0.11764706       0.00000000 </v>
   <v>      -0.29411765       0.11764706       0.00000000 </v>
   <v>      -0.23529412       0.11764706       0.00000000 </v>
   <v>      -0.17647059       0.11764706       0.00000000 </v>
   <v>      -0.11764706       0.11764706       0.00000000 </v>
   <v>       0.17647059       0.17647059       0.00000000 </v>
   <v>       0.23529412       0.17647059       0.00000000 </v>
   <v>       0.29411765       0.17647059       0.00000000 </v>
   <v>       0.35294118       0.17647059       0.00000000 </v>
   <v>       0.41176471       0.17647059       0.00000000 </v>
   <v>       0.47058824       0.17647059       0.00000000 </v>
   <v>      -0.47058824       0.17647059       0.00000000 </v>
   <v>      -0.41176471       0.17647059       0.00000000 </v>
   <v>      -0.35294118       0.17647059       0.00000000 </v>
   <v>      -0.29411765       0.17647059       0.00000000 </v>
   <v>      -0.23529412       0.17647059       0.00000000 </v>
   <v>      -0.17647059       0.17647059       0.00000000 </v>
   <v>       0.23529412       0.23529412       0.00000000 </v>
   <v>       0.29411765       0.23529412       0.00000000 </v>
   <v>       0.35294118       0.23529412       0.00000000 </v>
   <v>       0.41176471       0.23529412       0.00000000 </v>
   <v>       0.47058824       0.23529412       0.00000000 </v>
   <v>      -0.47058824       0.23529412       0.00000000 </v>
   <v>      -0.41176471       0.23529412       0.00000000 </v>
   <v>      -0.35294118       0.23529412       0.00000000 </v>
   <v>      -0.29411765       0.23529412       0.00000000 </v>
   <v>      -0.23529412       0.23529412       0.00000000 </v>
   <v>       0.29411765       0.29411765       0.00000000 </v>
   <v>       0.35294118       0.29411765       0.00000000 </v>
   <v>       0.41176471       0.29411765       0.00000000 </v>
   <v>       0.47058824       0.29411765       0.00000000 </v>
   <v>      -0.47058824       0.29411765       0.00000000 </v>
   <v>      -0.41176471       0.29411765       0.00000000 </v>
   <v>      -0.35294118       0.29411765       0.00000000 </v>
   <v>      -0.29411765       0.29411765       0.00000000 </v>
   <v>       0.35294118       0.35294118       0.00000000 </v>
   <v>       0.41176471       0.35294118       0.00000000 </v>
   <v>       0.47058824       0.35294118       0.00000000 </v>
   <v>      -0.47058824       0.35294118       0.00000000 </v>
   <v>      -0.41176471       0.35294118       0.00000000 </v>
   <v>      -0.35294118       0.35294118       0.00000000 </v>
   <v>       0.41176471       0.41176471       0.00000000 </v>
   <v>       0.47058824       0.41176471       0.00000000 </v>
   <v>      -0.47058824       0.41176471       0.00000000 </v>
   <v>      -0.41176471       0.41176471       0.00000000 </v>
   <v>       0.47058824       0.47058824       0.00000000 </v>
   <v>      -0.47058824       0.47058824       0.00000000 </v>
   <v>       0.17647059       0.11764706       0.05882353 </v>
   <v>       0.23529412       0.11764706       0.05882353 </v>
   <v>       0.29411765       0.11764706       0.05882353 </v>
   <v>       0.35294118       0.11764706       0.05882353 </v>
   <v>       0.41176471       0.11764706       0.05882353 </v>
   <v>       0.47058824       0.11764706       0.05882353 </v>
   <v>      -0.47058824       0.11764706       0.05882353 </v>
   <v>       0.23529412       0.17647059       0.05882353 </v>
   <v>       0.29411765       0.17647059       0.05882353 </v>
   <v>       0.35294118       0.17647059       0.05882353 </v>
   <v>       0.41176471       0.17647059       0.05882353 </v>
   <v>       0.47058824       0.17647059       0.05882353 </v>
   <v>      -0.47058824       0.17647059       0.05882353 </v>
   <v>      -0.41176471       0.17647059       0.05882353 </v>
   <v>      -0.35294118       0.17647059       0.05882353 </v>
   <v>      -0.29411765       0.17647059       0.05882353 </v>
   <v>      -0.23529412       0.17647059       0.05882353 </v>
   <v>      -0.17647059       0.17647059       0.05882353 </v>
   <v>      -0.11764706       0.17647059       0.05882353 </v>
   <v>       0.29411765       0.23529412       0.05882353 </v>
   <v>       0.35294118       0.23529412       0.05882353 </v>
   <v>       0.41176471       0.23529412       0.05882353 </v>
   <v>       0.47058824       0.23529412       0.05882353 </v>
   <v>      -0.47058824       0.23529412       0.05882353 </v>
   <v>      -0.41176471       0.23529412       0.05882353 </v>
   <v>      -0.35294118       0.23529412       0.05882353 </v>
   <v>      -0.29411765       0.23529412       0.05882353 </v>
   <v>      -0.23529412       0.23529412       0.05882353 </v>
   <v>      -0.17647059       0.23529412       0.05882353 </v>
   <v>       0.35294118       0.29411765       0.05882353 </v>
   <v>       0.41176471       0.29411765       0.05882353 </v>
   <v>       0.47058824       0.29411765       0.05882353 </v>
   <v>      -0.47058824       0.29411765       0.05882353 </v>
   <v>      -0.41176471       0.29411765       0.05882353 </v>
   <v>      -0.35294118       0.29411765       0.05882353 </v>
   <v>      -0.29411765       0.29411765       0.05882353 </v>
   <v>      -0.23529412       0.29411765       0.05882353 </v>
   <v>       0.41176471       0.35294118       0.05882353 </v>
   <v>       0.47058824       0.35294118       0.05882353 </v>
   <v>      -0.47058824       0.35294118       0.05882353 </v>
   <v>      -0.41176471       0.35294118       0.05882353 </v>
   <v>      -0.35294118       0.35294118       0.05882353 </v>
   <v>      -0.29411765       0.35294118       0.05882353 </v>
   <v>       0.47058824       0.41176471       0.05882353 </v>
   <v>      -0.47058824       0.41176471       0.05882353 </v>
   <v>      -0.41176471       0.41176471       0.05882353 </v>
   <v>      -0.35294118       0.41176471       0.05882353 </v>
   <v>      -0.47058824       0.47058824       0.05882353 </v>
   <v>      -0.41176471       0.47058824       0.05882353 </v>
   <v>       0.35294118       0.23529412       0.11764706 </v>
   <v>       0.41176471       0.23529412       0.11764706 </v>
   <v>       0.47058824       0.23529412       0.11764706 </v>
   <v>      -0.47058824       0.23529412       0.11764706 </v>
   <v>      -0.41176471       0.23529412       0.11764706 </v>
   <v>       0.41176471       0.29411765       0.11764706 </v>
   <v>       0.47058824       0.29411765       0.11764706 </v>
   <v>      -0.47058824       0.29411765       0.11764706 </v>
   <v>      -0.41176471       0.29411765       0.11764706 </v>
   <v>      -0.35294118       0.29411765       0.11764706 </v>
   <v>      -0.29411765       0.29411765       0.11764706 </v>
   <v>      -0.23529412       0.29411765       0.11764706 </v>
   <v>      -0.17647059       0.29411765       0.11764706 </v>
   <v>       0.47058824       0.35294118       0.11764706 </v>
   <v>      -0.47058824       0.35294118       0.11764706 </v>
   <v>      -0.41176471       0.35294118       0.11764706 </v>
   <v>      -0.35294118       0.35294118       0.11764706 </v>
   <v>      -0.29411765       0.35294118       0.11764706 </v>
   <v>      -0.23529412       0.35294118       0.11764706 </v>
   <v>      -0.47058824       0.41176471       0.11764706 </v>
   <v>      -0.41176471       0.41176471       0.11764706 </v>
   <v>      -0.35294118       0.41176471       0.11764706 </v>
   <v>      -0.29411765       0.41176471       0.11764706 </v>
   <v>      -0.41176471       0.47058824       0.11764706 </v>
   <v>      -0.35294118       0.47058824       0.11764706 </v>
   <v>      -0.47058824       0.35294118       0.17647059 </v>
   <v>      -0.41176471       0.35294118       0.17647059 </v>
   <v>      -0.35294118       0.35294118       0.17647059 </v>
   <v>      -0.41176471       0.41176471       0.17647059 </v>
   <v>      -0.35294118       0.41176471       0.17647059 </v>
   <v>      -0.29411765       0.41176471       0.17647059 </v>
   <v>      -0.23529412       0.41176471       0.17647059 </v>
   <v>      -0.35294118       0.47058824       0.17647059 </v>
   <v>      -0.29411765       0.47058824       0.17647059 </v>
   <v>      -0.29411765       0.47058824       0.23529412 </v>
  </varray>
  <varray name="weights" >
   <v>       0.00020354 </v>
   <v>       0.00162833 </v>
   <v>       0.00162833 </v>
   <v>       0.00162833 </v>
   <v>       0.00162833 </v>
   <v>       0.00162833 </v>
   <v>       0.00162833 </v>
   <v>       0.00162833 </v>
   <v>       0.00162833 </v>
   <v>       0.00122125 </v>
   <v>       0.00488500 </v>
   <v>       0.00488500 </v>
   <v>       0.00488500 </v>
   <v>       0.00488500 </v>
   <v>       0.00488500 </v>
   <v>       0.00488500 </v>
   <v>       0.00488500 </v>
   <v>       0.00488500 </v>
   <v>       0.00488500 </v>
   <v>       0.00488500 </v>
   <v>       0.00488500 </v>
   <v>       0.00488500 </v>
   <v>       0.00488500 </v>
   <v>       0.00488500 </v>
   <v>       0.00244250 </v>
   <v>       0.00122125 </v>
   <v>       0.00488500 </v>
   <v>       0.00488500 </v>
   <v>       0.00488500 </v>
   <v>       0.00488500 </v>
   <v>       0.00488500 </v>
   <v>       0.00488500 </v>
   <v>       0.00488500 </v>
   <v>       0.00488500 </v>
   <v>       0.00488500 </v>
   <v>       0.00488500 </v>
   <v>       0.00488500 </v>
   <v>       0.00488500 </v>
   <v>       0.00244250 </v>
   <v>       0.00122125 </v>
   <v>       0.00488500 </v>
   <v>       0.00488500 </v>
   <v>       0.00488500 </v>
   <v>       0.00488500 </v>
   <v>       0.00488500 </v>
   <v>       0.00488500 </v>
   <v>       0.00488500 </v>
   <v>       0.00488500 </v>
   <v>       0.00488500 </v>
   <v>       0.00488500 </v>
   <v>       0.00244250 </v>
   <v>       0.00122125 </v>
   <v>       0.00488500 </v>
   <v>       0.00488500 </v>
   <v>       0.00488500 </v>
   <v>       0.00488500 </v>
   <v>       0.00488500 </v>
   <v>       0.00488500 </v>
   <v>       0.00488500 </v>
   <v>       0.00488500 </v>
   <v>       0.00244250 </v>
   <v>       0.00122125 </v>
   <v>       0.00488500 </v>
   <v>       0.00488500 </v>
   <v>       0.00488500 </v>
   <v>       0.00488500 </v>
   <v>       0.00488500 </v>
   <v>       0.00488500 </v>
   <v>       0.00244250 </v>
   <v>       0.00122125 </v>
   <v>       0.00488500 </v>
   <v>       0.00488500 </v>
   <v>       0.00488500 </v>
   <v>       0.00488500 </v>
   <v>       0.00244250 </v>
   <v>       0.00122125 </v>
   <v>       0.00488500 </v>
   <v>       0.00488500 </v>
   <v>       0.00244250 </v>
   <v>       0.00122125 </v>
   <v>       0.00244250 </v>
   <v>       0.00488500 </v>
   <v>       0.00977000 </v>
   <v>       0.00977000 </v>
   <v>       0.00977000 </v>
   <v>       0.00977000 </v>
   <v>       0.00977000 </v>
   <v>       0.00977000 </v>
   <v>       0.00488500 </v>
   <v>       0.00977000 </v>
   <v>       0.00977000 </v>
   <v>       0.00977000 </v>
   <v>       0.00977000 </v>
   <v>       0.00977000 </v>
   <v>       0.00977000 </v>
   <v>       0.00977000 </v>
   <v>       0.00977000 </v>
   <v>       0.00977000 </v>
   <v>       0.00977000 </v>
   <v>       0.00488500 </v>
   <v>       0.00488500 </v>
   <v>       0.00977000 </v>
   <v>       0.00977000 </v>
   <v>       0.00977000 </v>
   <v>       0.00977000 </v>
   <v>       0.00977000 </v>
   <v>       0.00977000 </v>
   <v>       0.00977000 </v>
   <v>       0.00977000 </v>
   <v>       0.00488500 </v>
   <v>       0.00488500 </v>
   <v>       0.00977000 </v>
   <v>       0.00977000 </v>
   <v>       0.00977000 </v>
   <v>       0.00977000 </v>
   <v>       0.00977000 </v>
   <v>       0.00977000 </v>
   <v>       0.00488500 </v>
   <v>       0.00488500 </v>
   <v>       0.00977000 </v>
   <v>       0.00977000 </v>
   <v>       0.00977000 </v>
   <v>       0.00977000 </v>
   <v>       0.00488500 </v>
   <v>       0.00488500 </v>
   <v>       0.00977000 </v>
   <v>       0.00977000 </v>
   <v>       0.00488500 </v>
   <v>       0.00488500 </v>
   <v>       0.00488500 </v>
   <v>       0.00488500 </v>
   <v>       0.00977000 </v>
   <v>       0.00977000 </v>
   <v>       0.00977000 </v>
   <v>       0.00977000 </v>
   <v>       0.00488500 </v>
   <v>       0.00977000 </v>
   <v>       0.00977000 </v>
   <v>       0.00977000 </v>
   <v>       0.00977000 </v>
   <v>       0.00977000 </v>
   <v>       0.00977000 </v>
   <v>       0.00488500 </v>
   <v>       0.00488500 </v>
   <v>       0.00977000 </v>
   <v>       0.00977000 </v>
   <v>       0.00977000 </v>
   <v>       0.00977000 </v>
   <v>       0.00488500 </v>
   <v>       0.00488500 </v>
   <v>       0.00977000 </v>
   <v>       0.00977000 </v>
   <v>       0.00488500 </v>
   <v>       0.00488500 </v>
   <v>       0.00488500 </v>
   <v>       0.00488500 </v>
   <v>       0.00977000 </v>
   <v>       0.00977000 </v>
   <v>       0.00488500 </v>
   <v>       0.00977000 </v>
   <v>       0.00977000 </v>
   <v>       0.00488500 </v>
   <v>       0.00488500 </v>
   <v>       0.00488500 </v>
   <v>       0.00488500 </v>
  </varray>
 </kpoints>
 <parameters>
  <separator name="general" >
   <i type="string" name="SYSTEM">unknown system</i>
   <i type="logical" name="LCOMPAT"> F  </i>
  </separator>
  <separator name="electronic" >
   <i type="string" name="PREC">accura</i>
   <i name="ENMAX">    350.00000000</i>
   <i name="ENAUG">    322.06900000</i>
   <i name="EDIFF">      0.00000100</i>
   <i type="int" name="IALGO">    38</i>
   <i type="int" name="IWAVPR">    11</i>
   <i type="int" name="NBANDS">     8</i>
   <i type="int" name="NBANDSLOW">    -1</i>
   <i type="int" name="NBANDSHIGH">    -1</i>
   <i name="NELECT">      4.00000000</i>
   <i type="int" name="TURBO">     0</i>
   <i type="int" name="IRESTART">     0</i>
   <i type="int" name="NREBOOT">     0</i>
   <i type="int" name="NMIN">     0</i>
   <i name="EREF">      0.00000000</i>
   <separator name="electronic smearing" >
    <i type="int" name="ISMEAR">     0</i>
    <i name="SIGMA">      0.05000000</i>
    <i name="KSPACING">      0.50000000</i>
    <i type="logical" name="KGAMMA"> T  </i>
    <i type="logical" name="KBLOWUP"> T  </i>
   </separator>
   <separator name="electronic projectors" >
    <i type="logical" name="LREAL"> F  </i>
    <v name="ROPT">      0.00000000</v>
    <i type="int" name="LMAXPAW">  -100</i>
    <i type="int" name="LMAXMIX">     2</i>
    <i type="logical" name="NLSPLINE"> F  </i>
   </separator>
   <separator name="electronic startup" >
    <i type="int" name="ISTART">     0</i>
    <i type="int" name="ICHARG">     2</i>
    <i type="int" name="INIWAV">     1</i>
   </separator>
   <separator name="electronic spin" >
    <i type="int" name="ISPIN">     1</i>
    <i type="logical" name="LNONCOLLINEAR"> F  </i>
    <v name="MAGMOM">      1.00000000</v>
    <i name="NUPDOWN">     -1.00000000</i>
    <i type="logical" name="LSORBIT"> F  </i>
    <v name="SAXIS">      0.00000000      0.00000000      1.00000000</v>
    <i type="logical" name="LSPIRAL"> F  </i>
    <v name="QSPIRAL">      0.00000000      0.00000000      0.00000000</v>
    <i type="logical" name="LZEROZ"> F  </i>
   </separator>
   <separator name="electronic exchange-correlation" >
    <i type="logical" name="LASPH"> T  </i>
    <i type="logical" name="LMETAGGA"> F  </i>
   </separator>
   <separator name="electronic convergence" >
    <i type="int" name="NELM">    90</i>
    <i type="int" name="NELMDL">    -5</i>
    <i type="int" name="NELMIN">     6</i>
    <i name="ENINI">    350.00000000</i>
    <separator name="electronic convergence detail" >
     <i type="logical" name="LDIAG"> T  </i>
     <i type="logical" name="LSUBROT"> F  </i>
     <i name="WEIMIN">      0.00100000</i>
     <i name="EBREAK">      0.00000003</i>
     <i name="DEPER">      0.30000000</i>
     <i type="int" name="NRMM">     4</i>
     <i name="TIME">      0.40000000</i>
    </separator>
   </separator>
   <separator name="electronic mixer" >
    <i name="AMIX">      0.40000000</i>
    <i name="BMIX">      1.00000000</i>
    <i name="AMIN">      0.10000000</i>
    <i name="AMIX_MAG">      1.60000000</i>
    <i name="BMIX_MAG">      1.00000000</i>
    <separator name="electronic mixer details" >
     <i type="int" name="IMIX">     4</i>
     <i type="logical" name="MIXFIRST"> F  </i>
     <i type="int" name="MAXMIX">   -45</i>
     <i name="WC">    100.00000000</i>
     <i type="int" name="INIMIX">     1</i>
     <i type="int" name="MIXPRE">     1</i>
     <i type="int" name="MREMOVE">     5</i>
    </separator>
   </separator>
   <separator name="electronic dipolcorrection" >
    <i type="logical" name="LDIPOL"> F  </i>
    <i type="logical" name="LMONO"> F  </i>
    <i type="int" name="IDIPOL">     0</i>
    <i name="EPSILON">      1.00000000</i>
    <v name="DIPOL">   -100.00000000   -100.00000000   -100.00000000</v>
    <i name="EFIELD">      0.00000000</i>
   </separator>
  </separator>
  <separator name="grids" >
   <i type="int" name="NGX">    18</i>
   <i type="int" name="NGY">    18</i>
   <i type="int" name="NGZ">    18</i>
   <i type="int" name="NGXF">    36</i>
   <i type="int" name="NGYF">    36</i>
   <i type="int" name="NGZF">    36</i>
   <i type="logical" name="ADDGRID"> T  </i>
  </separator>
  <separator name="ionic" >
   <i type="int" name="NSW">   100</i>
   <i type="int" name="IBRION">     2</i>
   <i type="int" name="MDALGO">     0</i>
   <i type="int" name="ISIF">     3</i>
   <i name="PSTRESS">      0.00000000</i>
   <i name="EDIFFG">     -0.00200000</i>
   <i type="int" name="NFREE">     1</i>
   <i name="POTIM">      0.50000000</i>
   <i name="SMASS">     -3.00000000</i>
   <i name="SCALEE">      1.00000000</i>
  </separator>
  <separator name="ionic md" >
   <i name="TEBEG">      0.00010000</i>
   <i name="TEEND">      0.00010000</i>
   <i type="int" name="NBLOCK">     1</i>
   <i type="int" name="KBLOCK">   100</i>
   <i type="int" name="NPACO">   256</i>
   <i name="APACO">     16.00000000</i>
  </separator>
  <separator name="symmetry" >
   <i type="int" name="ISYM">     2</i>
   <i name="SYMPREC">      0.00001000</i>
  </separator>
  <separator name="dos" >
   <i type="int" name="LORBIT">     0</i>
   <v name="RWIGS">     -1.00000000</v>
   <i type="int" name="NEDOS">   301</i>
   <i name="EMIN">     10.00000000</i>
   <i name="EMAX">    -10.00000000</i>
   <i name="EFERMI">      0.00000000</i>
  </separator>
  <separator name="writing" >
   <i type="int" name="NWRITE">     2</i>
   <i type="logical" name="LWAVE"> F  </i>
   <i type="logical" name="LDOWNSAMPLE"> F  </i>
   <i type="logical" name="LCHARG"> F  </i>
   <i type="logical" name="LPARD"> F  </i>
   <i type="logical" name="LVTOT"> F  </i>
   <i type="logical" name="LVHAR"> F  </i>
   <i type="logical" name="LELF"> F  </i>
   <i type="logical" name="LOPTICS"> F  </i>
   <v name="STM">      0.00000000      0.00000000      0.00000000      0.00000000      0.00000000      0.00000000      0.00000000</v>
  </separator>
  <separator name="performance" >
   <i type="int" name="NPAR">     4</i>
   <i type="int" name="NSIM">     4</i>
   <i type="int" name="NBLK">    -1</i>
   <i type="logical" name="LPLANE"> T  </i>
   <i type="logical" name="LSCALAPACK"> T  </i>
   <i type="logical" name="LSCAAWARE"> F  </i>
   <i type="logical" name="LSCALU"> F  </i>
   <i type="logical" name="LASYNC"> F  </i>
   <i type="logical" name="LORBITALREAL"> F  </i>
  </separator>
  <separator name="miscellaneous" >
   <i type="int" name="IDIOT">     3</i>
   <i type="int" name="PHON_NSTRUCT">    -1</i>
   <i type="logical" name="LMUSIC"> F  </i>
   <v name="POMASS">     28.08500000</v>
   <v name="DARWINR">      0.00000000</v>
   <v name="DARWINV">      1.00000000</v>
   <i type="logical" name="LCORR"> T  </i>
  </separator>
  <i type="logical" name="GGA_COMPAT"> T  </i>
  <i type="logical" name="LBERRY"> F  </i>
  <i type="int" name="ICORELEVEL">     0</i>
  <i type="logical" name="LDAU"> F  </i>
  <i type="int" name="I_CONSTRAINED_M">     0</i>
  <separator name="electronic exchange-correlation" >
   <i type="string" name="GGA">--</i>
   <i type="int" name="VOSKOWN">     0</i>
   <i type="logical" name="LHFCALC"> F  </i>
   <i type="string" name="PRECFOCK"></i>
   <i type="logical" name="LSYMGRAD"> F  </i>
   <i type="logical" name="LHFONE"> F  </i>
   <i type="logical" name="LRHFCALC"> F  </i>
   <i type="logical" name="LTHOMAS"> F  </i>
   <i type="logical" name="LMODELHF"> F  </i>
   <i type="logical" name="LFOCKACE"> F  </i>
   <i name="ENCUT4O">     -1.00000000</i>
   <i type="int" name="EXXOEP">     0</i>
   <i type="int" name="FOURORBIT">     0</i>
   <i name="AEXX">      0.00000000</i>
   <i name="HFALPHA">      0.00000000</i>
   <i name="MCALPHA">      0.00000000</i>
   <i name="ALDAX">      1.00000000</i>
   <i name="AGGAX">      1.00000000</i>
   <i name="ALDAC">      1.00000000</i>
   <i name="AGGAC">      1.00000000</i>
   <i type="int" name="NKREDX">     1</i>
   <i type="int" name="NKREDY">     1</i>
   <i type="int" name="NKREDZ">     1</i>
   <i type="logical" name="SHIFTRED"> F  </i>
   <i type="logical" name="ODDONLY"> F  </i>
   <i type="logical" name="EVENONLY"> F  </i>
   <i type="int" name="LMAXFOCK">     0</i>
   <i type="int" name="NMAXFOCKAE">     0</i>
   <i type="logical" name="LFOCKAEDFT"> F  </i>
   <i name="HFSCREEN">      0.00000000</i>
   <i name="HFSCREENC">      0.00000000</i>
   <i type="int" name="NBANDSGWLOW">     0</i>
  </separator>
  <separator name="vdW DFT" >
   <i type="logical" name="LUSE_VDW"> F  </i>
   <i name="Zab_VDW">     -0.84910000</i>
   <i name="PARAM1">      0.12340000</i>
   <i name="PARAM2">      1.00000000</i>
   <i name="PARAM3">      0.00000000</i>
  </separator>
  <separator name="model GW" >
   <i type="int" name="MODEL_GW">     0</i>
   <i name="MODEL_EPS0">      8.44895106</i>
   <i name="MODEL_ALPHA">      1.00000000</i>
  </separator>
  <separator name="linear response parameters" >
   <i type="logical" name="LEPSILON"> F  </i>
   <i type="logical" name="LRPA"> F  </i>
   <i type="logical" name="LNABLA"> F  </i>
   <i type="logical" name="LVEL"> F  </i>
   <i type="int" name="KINTER">     0</i>
   <i name="CSHIFT">      0.10000000</i>
   <i name="OMEGAMAX">     -1.00000000</i>
   <i name="DEG_THRESHOLD">      0.00200000</i>
   <i name="RTIME">     -0.10000000</i>
   <i name="WPLASMAI">      0.00000000</i>
   <v name="DFIELD">      0.00000000      0.00000000      0.00000000</v>
   <v name="WPLASMA">      0.00000000      0.00000000      0.00000000      0.00000000      0.00000000      0.00000000      0.00000000      0.00000000      0.00000000</v>
  </separator>
  <separator name="orbital magnetization" >
   <i type="logical" name="NUCIND"> F  </i>
   <v name="MAGPOS">      0.00000000      0.00000000      0.00000000</v>
   <i type="logical" name="LNICSALL"> T  </i>
   <i type="logical" name="ORBITALMAG"> F  </i>
   <i type="logical" name="LMAGBLOCH"> F  </i>
   <i type="logical" name="LCHIMAG"> F  </i>
   <i type="logical" name="LGAUGE"> T  </i>
   <i type="int" name="MAGATOM">     0</i>
   <v name="MAGDIPOL">      0.00000000      0.00000000      0.00000000</v>
   <v name="AVECCONST">      0.00000000      0.00000000      0.00000000</v>
  </separator>
  <separator name="response functions" >
   <i type="logical" name="LFINITE_TEMPERATURE"> F  </i>
   <i type="logical" name="LADDER"> F  </i>
   <i type="logical" name="LRPAFORCE"> F  </i>
   <i type="logical" name="LFXC"> F  </i>
   <i type="logical" name="LHARTREE"> T  </i>
   <i type="int" name="IBSE">     0</i>
   <v type="int" name="KPOINT">    -1     0     0     0</v>
   <i type="logical" name="LTCTC"> F  </i>
   <i type="logical" name="LTCTE"> F  </i>
   <i type="logical" name="LTETE"> F  </i>
   <i type="logical" name="LTRIPLET"> F  </i>
   <i type="logical" name="LFXCEPS"> F  </i>
   <i type="logical" name="LFXHEG"> F  </i>
   <i type="int" name="NATURALO">     2</i>
   <i type="logical" name="LHOLEGF"> F  </i>
   <i type="logical" name="L2ORDER"> F  </i>
   <i type="logical" name="LDMP1"> F  </i>
   <i type="logical" name="LMP2LT"> F  </i>
   <i type="logical" name="LSMP2LT"> F  </i>
   <i type="logical" name="LGWLF"> F  </i>
   <i name="ENCUTGW">     -2.00000000</i>
   <i name="ENCUTGWSOFT">     -2.00000000</i>
   <i name="ENCUTLF">     -1.00000000</i>
   <i type="logical" name="LESF_SPLINES"> F  </i>
   <i type="int" name="LMAXMP2">    -1</i>
   <i name="SCISSOR">      0.00000000</i>
   <i type="int" name="NOMEGA">     0</i>
   <i type="int" name="NOMEGAR">     0</i>
   <i type="int" name="NBANDSGW">    -1</i>
   <i type="int" name="NBANDSO">    -1</i>
   <i type="int" name="NBANDSV">    -1</i>
   <i type="int" name="NELM">    90</i>
   <i type="int" name="NELMHF">     1</i>
   <i type="int" name="DIM">     3</i>
   <i type="int" name="IESPILON">     4</i>
   <i type="int" name="ANTIRES">     0</i>
   <i name="OMEGAMAX">    -30.00000000</i>
   <i name="OMEGAMIN">    -30.00000000</i>
   <i name="OMEGATL">   -200.00000000</i>
   <i type="int" name="OMEGAGRID">     0</i>
   <i name="CSHIFT">     -0.10000000</i>
   <i type="logical" name="LSELFENERGY"> F  </i>
   <i type="logical" name="LSPECTRAL"> F  </i>
   <i type="logical" name="LSPECTRALGW"> F  </i>
   <i type="logical" name="LSINGLES"> F  </i>
   <i type="logical" name="LFERMIGW"> F  </i>
   <i type="logical" name="ODDONLYGW"> F  </i>
   <i type="logical" name="EVENONLYGW"> F  </i>
   <i type="int" name="NKREDLFX">     1</i>
   <i type="int" name="NKREDLFY">     1</i>
   <i type="int" name="NKREDLFZ">     1</i>
   <i type="int" name="MAXMEM">  2800</i>
   <i type="int" name="TELESCOPE">     0</i>
   <i type="int" name="NTAUPAR">    -1</i>
   <i type="int" name="NOMEGAPAR">    -1</i>
   <i name="DAMP_NEWTON">      0.80000001</i>
   <i name="LAMBDA">      1.00000000</i>
  </separator>
  <separator name="External order field" >
   <i name="OFIELD_KAPPA">      0.00000000</i>
   <v name="OFIELD_K">      0.00000000      0.00000000      0.00000000</v>
   <i name="OFIELD_Q6_NEAR">      0.00000000</i>
   <i name="OFIELD_Q6_FAR">      0.00000000</i>
   <i name="OFIELD_A">      0.00000000</i>
  </separator>
 </parameters>
 <atominfo>
  <atoms>       1 </atoms>
  <types>       1 </types>
  <array name="atoms" >
   <dimension dim="1">ion</dimension>
   <field type="string">element</field>
   <field type="int">atomtype</field>
   <set>
    <rc><c>Si</c><c>   1</c></rc>
   </set>
  </array>
  <array name="atomtypes" >
   <dimension dim="1">type</dimension>
   <field type="int">atomspertype</field>
   <field type="string">element</field>
   <field>mass</field>
   <field>valence</field>
   <field type="string">pseudopotential</field>
   <set>
    <rc><c>   1</c><c>Si</c><c>     28.08500000</c><c>      4.00000000</c><c>  PAW_PBE Si 05Jan2001                  </c></rc>
   </set>
  </array>
 </atominfo>
 <structure name="initialpos" >
  <crystal>
   <varray name="basis" >
    <v>       2.34739500       0.00000000       1.35526800 </v>
    <v>       0.78246500       2.21314500       1.35526800 </v>
    <v>       0.00000000       0.00000000       2.71053800 </v>
   </varray>
   <i name="volume">     14.08158510 </i>
   <varray name="rec_basis" >
    <v>       0.42600415      -0.15061523       0.00000000 </v>
    <v>       0.00000000       0.45184568       0.00000000 </v>
    <v>      -0.21300192      -0.15061511       0.36893045 </v>
   </varray>
  </crystal>
  <varray name="positions" >
   <v>       0.00000000       0.00000000       0.00000000 </v>
  </varray>
 </structure>
 <calculation>
  <scstep>
   <time name="dav">    0.80    0.80</time>
   <time name="total">    1.00    1.00</time>
   <energy>
    <i name="alphaZ">      2.39057823 </i>
    <i name="ewald">   -137.78496289 </i>
    <i name="hartreedc">     -0.54229904 </i>
    <i name="XCdc">     -8.73348015 </i>
    <i name="pawpsdc">     88.12379961 </i>
    <i name="pawaedc">    -70.53051779 </i>
    <i name="eentropy">     -0.00055615 </i>
    <i name="bandstr">     20.58543331 </i>
    <i name="atom">    103.06562707 </i>
    <i name="e_fr_energy">     -3.42637780 </i>
    <i name="e_wo_entrp">     -3.42582165 </i>
    <i name="e_0_energy">     -3.42609972 </i>
   </energy>
  </scstep>
  <scstep>
   <time name="dav">    1.11    1.13</time>
   <time name="total">    1.11    1.13</time>
   <energy>
    <i name="e_fr_energy">     -4.89536198 </i>
    <i name="e_wo_entrp">     -4.89491505 </i>
    <i name="e_0_energy">     -4.89513851 </i>
   </energy>
  </scstep>
  <scstep>
   <time name="dav">    0.82    0.84</time>
   <time name="total">    0.82    0.84</time>
   <energy>
    <i name="e_fr_energy">     -4.90166955 </i>
    <i name="e_wo_entrp">     -4.90122158 </i>
    <i name="e_0_energy">     -4.90144556 </i>
   </energy>
  </scstep>
  <scstep>
   <time name="dav">    1.21    1.22</time>
   <time name="total">    1.21    1.22</time>
   <energy>
    <i name="e_fr_energy">     -4.90167427 </i>
    <i name="e_wo_entrp">     -4.90122630 </i>
    <i name="e_0_energy">     -4.90145028 </i>
   </energy>
  </scstep>
  <scstep>
   <time name="dav">    0.83    0.85</time>
   <time name="total">    0.88    0.90</time>
   <energy>
    <i name="e_fr_energy">     -4.90167427 </i>
    <i name="e_wo_entrp">     -4.90122630 </i>
    <i name="e_0_energy">     -4.90145028 </i>
   </energy>
  </scstep>
  <scstep>
   <time name="dav">    0.83    0.83</time>
   <time name="total">    1.06    1.07</time>
   <energy>
    <i name="e_fr_energy">     -4.88811967 </i>
    <i name="e_wo_entrp">     -4.88766277 </i>
    <i name="e_0_energy">     -4.88789122 </i>
   </energy>
  </scstep>
  <scstep>
   <time name="dav">    0.86    0.87</time>
   <time name="total">    1.10    1.11</time>
   <energy>
    <i name="e_fr_energy">     -4.88031734 </i>
    <i name="e_wo_entrp">     -4.87983111 </i>
    <i name="e_0_energy">     -4.88007423 </i>
   </energy>
  </scstep>
  <scstep>
   <time name="dav">    1.11    1.11</time>
   <time name="total">    1.34    1.36</time>
   <energy>
    <i name="e_fr_energy">     -4.88027861 </i>
    <i name="e_wo_entrp">     -4.87979217 </i>
    <i name="e_0_energy">     -4.88003539 </i>
   </energy>
  </scstep>
  <scstep>
   <time name="dav">    0.89    0.89</time>
   <time name="total">    1.08    1.10</time>
   <energy>
    <i name="alphaZ">      2.39057823 </i>
    <i name="ewald">   -137.78496289 </i>
    <i name="hartreedc">     -0.40621014 </i>
    <i name="XCdc">     -8.67152185 </i>
    <i name="pawpsdc">    317.19408284 </i>
    <i name="pawaedc">   -299.61301527 </i>
    <i name="eentropy">     -0.00048659 </i>
    <i name="bandstr">     18.94562972 </i>
    <i name="atom">    103.06562707 </i>
    <i name="e_fr_energy">     -4.88027887 </i>
    <i name="e_wo_entrp">     -4.87979228 </i>
    <i name="e_0_energy">     -4.88003557 </i>
   </energy>
  </scstep>
  <structure>
   <crystal>
    <varray name="basis" >
     <v>       2.34739500       0.00000000       1.35526800 </v>
     <v>       0.78246500       2.21314500       1.35526800 </v>
     <v>       0.00000000       0.00000000       2.71053800 </v>
    </varray>
    <i name="volume">     14.08158510 </i>
    <varray name="rec_basis" >
     <v>       0.42600415      -0.15061523       0.00000000 </v>
     <v>       0.00000000       0.45184568       0.00000000 </v>
     <v>      -0.21300192      -0.15061511       0.36893045 </v>
    </varray>
   </crystal>
   <varray name="positions" >
    <v>       0.00000000       0.00000000       0.00000000 </v>
   </varray>
  </structure>
  <varray name="forces" >
   <v>       0.00000000       0.00000000       0.00000000 </v>
  </varray>
  <varray name="stress" >
   <v>      22.87130708      -0.00000000      -0.00000974 </v>
   <v>      -0.00000000      22.87130232      -0.00000689 </v>
   <v>      -0.00000974      -0.00000689      22.87130252 </v>
  </varray>
  <energy>
   <i name="e_fr_energy">     -4.88027887 </i>
   <i name="e_wo_entrp">     -4.87979228 </i>
   <i name="e_0_energy">     -4.88003557 </i>
  </energy>
  <time name="totalsc">   10.65   10.93</time>
 </calculation>
 <calculation>
  <scstep>
   <time name="dav">    0.79    0.79</time>
   <time name="total">    1.02    1.03</time>
   <energy>
    <i name="alphaZ">      2.32235722 </i>
    <i name="ewald">   -136.46161634 </i>
    <i name="hartreedc">     -0.40225403 </i>
    <i name="XCdc">     -8.74701048 </i>
    <i name="pawpsdc">    317.22348751 </i>
    <i name="pawaedc">   -299.64214442 </i>
    <i name="eentropy">     -0.00060758 </i>
    <i name="bandstr">     17.75766071 </i>
    <i name="atom">    103.06562707 </i>
    <i name="e_fr_energy">     -4.88450035 </i>
    <i name="e_wo_entrp">     -4.88389277 </i>
    <i name="e_0_energy">     -4.88419656 </i>
   </energy>
  </scstep>
  <scstep>
   <time name="dav">    1.00    1.00</time>
   <time name="total">    1.23    1.25</time>
   <energy>
    <i name="e_fr_energy">     -4.88349770 </i>
    <i name="e_wo_entrp">     -4.88290609 </i>
    <i name="e_0_energy">     -4.88320190 </i>
   </energy>
  </scstep>
  <scstep>
   <time name="dav">    0.81    0.81</time>
   <time name="total">    1.04    1.06</time>
   <energy>
    <i name="e_fr_energy">     -4.88291150 </i>
    <i name="e_wo_entrp">     -4.88233883 </i>
    <i name="e_0_energy">     -4.88262516 </i>
   </energy>
  </scstep>
  <scstep>
   <time name="dav">    1.08    1.08</time>
   <time name="total">    1.31    1.33</time>
   <energy>
    <i name="e_fr_energy">     -4.88291073 </i>
    <i name="e_wo_entrp">     -4.88233797 </i>
    <i name="e_0_energy">     -4.88262435 </i>
   </energy>
  </scstep>
  <scstep>
   <time name="dav">    0.62    0.62</time>
   <time name="total">    0.85    0.87</time>
   <energy>
    <i name="e_fr_energy">     -4.88290703 </i>
    <i name="e_wo_entrp">     -4.88233429 </i>
    <i name="e_0_energy">     -4.88262066 </i>
   </energy>
  </scstep>
  <scstep>
   <time name="dav">    0.51    0.51</time>
   <time name="total">    0.69    0.70</time>
   <energy>
    <i name="alphaZ">      2.32235722 </i>
    <i name="ewald">   -136.46161634 </i>
    <i name="hartreedc">     -0.44853312 </i>
    <i name="XCdc">     -8.75697718 </i>
    <i name="pawpsdc">    298.16099151 </i>
    <i name="pawaedc">   -280.57474749 </i>
    <i name="eentropy">     -0.00057273 </i>
    <i name="bandstr">     17.81056377 </i>
    <i name="atom">    103.06562707 </i>
    <i name="e_fr_energy">     -4.88290729 </i>
    <i name="e_wo_entrp">     -4.88233456 </i>
    <i name="e_0_energy">     -4.88262092 </i>
   </energy>
  </scstep>
  <structure>
   <crystal>
    <varray name="basis" >
     <v>       2.37015903      -0.00000000       1.36841080 </v>
     <v>       0.79005301       2.23460713       1.36841080 </v>
     <v>      -0.00000001      -0.00000001       2.73682364 </v>
    </varray>
    <i name="volume">     14.49524239 </i>
    <varray name="rec_basis" >
     <v>       0.42191262      -0.14916865       0.00000000 </v>
     <v>       0.00000000       0.44750596       0.00000000 </v>
     <v>      -0.21095615      -0.14916854       0.36538708 </v>
    </varray>
   </crystal>
   <varray name="positions" >
    <v>       0.00000000       0.00000000       0.00000000 </v>
   </varray>
  </structure>
  <varray name="forces" >
   <v>       0.00000000       0.00000000       0.00000000 </v>
  </varray>
  <varray name="stress" >
   <v>      -1.86897535       0.00000000       0.00000081 </v>
   <v>       0.00000000      -1.86897495       0.00000057 </v>
   <v>       0.00000081       0.00000057      -1.86897497 </v>
  </varray>
  <energy>
   <i name="e_fr_energy">     -4.88290729 </i>
   <i name="e_wo_entrp">     -4.88233456 </i>
   <i name="e_0_energy">     -4.88262092 </i>
  </energy>
  <time name="totalsc">    7.20    7.44</time>
 </calculation>
 <calculation>
  <scstep>
   <time name="dav">    0.79    0.79</time>
   <time name="total">    1.02    1.03</time>
   <energy>
    <i name="alphaZ">      2.32779207 </i>
    <i name="ewald">   -136.56798392 </i>
    <i name="hartreedc">     -0.44887942 </i>
    <i name="XCdc">     -8.75096015 </i>
    <i name="pawpsdc">    298.05026922 </i>
    <i name="pawaedc">   -280.46403069 </i>
    <i name="eentropy">     -0.00054687 </i>
    <i name="bandstr">     17.90577526 </i>
    <i name="atom">    103.06562707 </i>
    <i name="e_fr_energy">     -4.88293742 </i>
    <i name="e_wo_entrp">     -4.88239055 </i>
    <i name="e_0_energy">     -4.88266399 </i>
   </energy>
  </scstep>
  <scstep>
   <time name="dav">    1.01    1.01</time>
   <time name="total">    1.24    1.26</time>
   <energy>
    <i name="e_fr_energy">     -4.88293075 </i>
    <i name="e_wo_entrp">     -4.88238337 </i>
    <i name="e_0_energy">     -4.88265706 </i>
   </energy>
  </scstep>
  <scstep>
   <time name="dav">    0.81    0.81</time>
   <time name="total">    1.04    1.06</time>
   <energy>
    <i name="e_fr_energy">     -4.88292722 </i>
    <i name="e_wo_entrp">     -4.88237908 </i>
    <i name="e_0_energy">     -4.88265315 </i>
   </energy>
  </scstep>
  <scstep>
   <time name="dav">    0.49    0.49</time>
   <time name="total">    0.72    0.74</time>
   <energy>
    <i name="e_fr_energy">     -4.88292725 </i>
    <i name="e_wo_entrp">     -4.88237911 </i>
    <i name="e_0_energy">     -4.88265318 </i>
   </energy>
  </scstep>
  <scstep>
   <time name="dav">    0.48    0.48</time>
   <time name="total">    0.71    0.72</time>
   <energy>
    <i name="e_fr_energy">     -4.88292742 </i>
    <i name="e_wo_entrp">     -4.88237928 </i>
    <i name="e_0_energy">     -4.88265335 </i>
   </energy>
  </scstep>
  <scstep>
   <time name="dav">    0.48    0.48</time>
   <time name="total">    0.66    0.68</time>
   <energy>
    <i name="alphaZ">      2.32779207 </i>
    <i name="ewald">   -136.56798392 </i>
    <i name="hartreedc">     -0.44496015 </i>
    <i name="XCdc">     -8.75014029 </i>
    <i name="pawpsdc">    299.44002672 </i>
    <i name="pawaedc">   -281.85417597 </i>
    <i name="eentropy">     -0.00054814 </i>
    <i name="bandstr">     17.90143520 </i>
    <i name="atom">    103.06562707 </i>
    <i name="e_fr_energy">     -4.88292740 </i>
    <i name="e_wo_entrp">     -4.88237926 </i>
    <i name="e_0_energy">     -4.88265333 </i>
   </energy>
  </scstep>
  <structure>
   <crystal>
    <varray name="basis" >
     <v>       2.36831301      -0.00000000       1.36734500 </v>
     <v>       0.78943767       2.23286668       1.36734500 </v>
     <v>      -0.00000001      -0.00000001       2.73469203 </v>
    </varray>
    <i name="volume">     14.46139939 </i>
    <varray name="rec_basis" >
     <v>       0.42224148      -0.14928492       0.00000000 </v>
     <v>       0.00000000       0.44785477       0.00000000 </v>
     <v>      -0.21112058      -0.14928481       0.36567189 </v>
    </varray>
   </crystal>
   <varray name="positions" >
    <v>       0.00000000      -0.00000000       0.00000000 </v>
   </varray>
  </structure>
  <varray name="forces" >
   <v>       0.00000000       0.00000000       0.00000000 </v>
  </varray>
  <varray name="stress" >
   <v>       0.01736882       0.00000000      -0.00000001 </v>
   <v>      -0.00000000       0.01736882      -0.00000001 </v>
   <v>      -0.00000001      -0.00000001       0.01736882 </v>
  </varray>
  <energy>
   <i name="e_fr_energy">     -4.88292740 </i>
   <i name="e_wo_entrp">     -4.88237926 </i>
   <i name="e_0_energy">     -4.88265333 </i>
  </energy>
  <time name="totalsc">    6.38    6.64</time>
  <eigenvalues>
   <array>
    <dimension dim="1">band</dimension>
    <dimension dim="2">kpoint</dimension>
    <dimension dim="3">spin</dimension>
    <field>eigene</field>
    <field>occ</field>
    <set>
     <set comment="spin 1">
      <set comment="kpoint 1">
       <r>   -4.2816    1.0000 </r>
       <r>   21.3245    0.0000 </r>
       <r>   21.3245    0.0000 </r>
       <r>   21.3246    0.0000 </r>
       <r>   22.1409    0.0000 </r>
       <r>   22.1409    0.0000 </r>
       <r>   22.1409    0.0000 </r>
       <r>   27.4522    0.0000 </r>
      </set>
      <set comment="kpoint 2">
       <r>   -4.1808    1.0000 </r>
       <r>   19.5035    0.0000 </r>
       <r>   20.7604    0.0000 </r>
       <r>   20.7604    0.0000 </r>
       <r>   22.8259    0.0000 </r>
       <r>   22.8259    0.0000 </r>
       <r>   23.0832    0.0000 </r>
       <r>   28.2778    0.0000 </r>
      </set>
      <set comment="kpoint 3">
       <r>   -3.8786    1.0000 </r>
       <r>   17.0281    0.0000 </r>
       <r>   20.0657    0.0000 </r>
       <r>   20.0657    0.0000 </r>
       <r>   23.4378    0.0000 </r>
       <r>   23.8187    0.0000 </r>
       <r>   23.8187    0.0000 </r>
       <r>   27.5467    0.0000 </r>
      </set>
      <set comment="kpoint 4">
       <r>   -3.3759    1.0000 </r>
       <r>   14.5142    0.0000 </r>
       <r>   19.5037    0.0000 </r>
       <r>   19.5037    0.0000 </r>
       <r>   23.4191    0.0000 </r>
       <r>   24.3719    0.0000 </r>
       <r>   24.3719    0.0000 </r>
       <r>   27.0938    0.0000 </r>
      </set>
      <set comment="kpoint 5">
       <r>   -2.6745    1.0000 </r>
       <r>   12.0767    0.0000 </r>
       <r>   19.0972    0.0000 </r>
       <r>   19.0972    0.0000 </r>
       <r>   23.3236    0.0000 </r>
       <r>   23.8546    0.0000 </r>
       <r>   23.8546    0.0000 </r>
       <r>   27.9462    0.0000 </r>
      </set>
      <set comment="kpoint 6">
       <r>   -1.7766    1.0000 </r>
       <r>    9.7633    1.0000 </r>
       <r>   18.8419    0.0000 </r>
       <r>   18.8419    0.0000 </r>
       <r>   22.9530    0.0000 </r>
       <r>   22.9531    0.0000 </r>
       <r>   23.2668    0.0000 </r>
       <r>   28.1736    0.0000 </r>
      </set>
      <set comment="kpoint 7">
       <r>   -0.6858    1.0000 </r>
       <r>    7.5992    1.0000 </r>
       <r>   18.7234    0.0000 </r>
       <r>   18.7234    0.0000 </r>
       <r>   22.1111    0.0000 </r>
       <r>   22.1112    0.0000 </r>
       <r>   23.2889    0.0000 </r>
       <r>   27.2116    0.0000 </r>
      </set>
      <set comment="kpoint 8">
       <r>    0.5917    1.0000 </r>
       <r>    5.6015    1.0000 </r>
       <r>   18.7091    0.0000 </r>
       <r>   18.7091    0.0000 </r>
       <r>   21.4594    0.0000 </r>
       <r>   21.4594    0.0000 </r>
       <r>   23.3815    0.0000 </r>
       <r>   26.4653    0.0000 </r>
      </set>
      <set comment="kpoint 9">
       <r>    2.0244    1.0000 </r>
       <r>    3.8071    1.0000 </r>
       <r>   18.7371    0.0000 </r>
       <r>   18.7372    0.0000 </r>
       <r>   21.0953    0.0000 </r>
       <r>   21.0953    0.0000 </r>
       <r>   23.4741    0.0000 </r>
       <r>   26.0359    0.0000 </r>
      </set>
      <set comment="kpoint 10">
       <r>   -4.1472    1.0000 </r>
       <r>   19.8826    0.0000 </r>
       <r>   19.8826    0.0000 </r>
       <r>   21.0079    0.0000 </r>
       <r>   21.3939    0.0000 </r>
       <r>   23.7477    0.0000 </r>
       <r>   23.7477    0.0000 </r>
       <r>   27.5772    0.0000 </r>
      </set>
      <set comment="kpoint 11">
       <r>   -3.9121    1.0000 </r>
       <r>   17.8964    0.0000 </r>
       <r>   19.1179    0.0000 </r>
       <r>   20.5714    0.0000 </r>
       <r>   21.7958    0.0000 </r>
       <r>   24.4377    0.0000 </r>
       <r>   24.7671    0.0000 </r>
       <r>   26.2945    0.0000 </r>
      </set>
      <set comment="kpoint 12">
       <r>   -3.4763    1.0000 </r>
       <r>   15.4122    0.0000 </r>
       <r>   18.5081    0.0000 </r>
       <r>   19.9892    0.0000 </r>
       <r>   22.5687    0.0000 </r>
       <r>   24.5434    0.0000 </r>
       <r>   25.4061    0.0000 </r>
       <r>   25.5427    0.0000 </r>
      </set>
      <set comment="kpoint 13">
       <r>   -2.8412    1.0000 </r>
       <r>   12.9523    0.0000 </r>
       <r>   18.0642    0.0000 </r>
       <r>   19.5044    0.0000 </r>
       <r>   22.4747    0.0000 </r>
       <r>   24.2597    0.0000 </r>
       <r>   25.3329    0.0000 </r>
       <r>   25.9180    0.0000 </r>
      </set>
      <set comment="kpoint 14">
       <r>   -2.0088    1.0000 </r>
       <r>   10.5987    0.0000 </r>
       <r>   17.7877    0.0000 </r>
       <r>   19.1152    0.0000 </r>
       <r>   21.7036    0.0000 </r>
       <r>   24.1523    0.0000 </r>
       <r>   24.4809    0.0000 </r>
       <r>   27.2426    0.0000 </r>
      </set>
      <set comment="kpoint 15">
       <r>   -0.9822    1.0000 </r>
       <r>    8.3853    1.0000 </r>
       <r>   17.6770    0.0000 </r>
       <r>   18.7699    0.0000 </r>
       <r>   20.9896    0.0000 </r>
       <r>   23.5712    0.0000 </r>
       <r>   24.1295    0.0000 </r>
       <r>   28.0863    0.0000 </r>
      </set>
      <set comment="kpoint 16">
       <r>    0.2337    1.0000 </r>
       <r>    6.3319    1.0000 </r>
       <r>   17.7265    0.0000 </r>
       <r>   18.3879    0.0000 </r>
       <r>   20.5925    0.0000 </r>
       <r>   22.7648    0.0000 </r>
       <r>   24.1583    0.0000 </r>
       <r>   27.4747    0.0000 </r>
      </set>
      <set comment="kpoint 17">
       <r>    1.6241    1.0000 </r>
       <r>    4.4602    1.0000 </r>
       <r>   17.9281    0.0000 </r>
       <r>   17.9576    0.0000 </r>
       <r>   20.5725    0.0000 </r>
       <r>   22.1243    0.0000 </r>
       <r>   24.1878    0.0000 </r>
       <r>   27.0201    0.0000 </r>
      </set>
      <set comment="kpoint 18">
       <r>    2.5544    1.0000 </r>
       <r>    3.4095    1.0000 </r>
       <r>   17.5573    0.0000 </r>
       <r>   18.2615    0.0000 </r>
       <r>   20.8639    0.0000 </r>
       <r>   21.6880    0.0000 </r>
       <r>   24.1496    0.0000 </r>
       <r>   26.9398    0.0000 </r>
      </set>
      <set comment="kpoint 19">
       <r>    1.1437    1.0000 </r>
       <r>    5.0610    1.0000 </r>
       <r>   17.2585    0.0000 </r>
       <r>   18.6884    0.0000 </r>
       <r>   21.3987    0.0000 </r>
       <r>   21.4944    0.0000 </r>
       <r>   24.0339    0.0000 </r>
       <r>   27.2529    0.0000 </r>
      </set>
      <set comment="kpoint 20">
       <r>   -0.1922    1.0000 </r>
       <r>    6.9973    1.0000 </r>
       <r>   17.0994    0.0000 </r>
       <r>   19.1468    0.0000 </r>
       <r>   21.6041    0.0000 </r>
       <r>   22.1312    0.0000 </r>
       <r>   23.9142    0.0000 </r>
       <r>   27.8644    0.0000 </r>
      </set>
      <set comment="kpoint 21">
       <r>   -1.3458    1.0000 </r>
       <r>    9.1058    1.0000 </r>
       <r>   17.0974    0.0000 </r>
       <r>   19.5794    0.0000 </r>
       <r>   22.0573    0.0000 </r>
       <r>   23.0261    0.0000 </r>
       <r>   23.8511    0.0000 </r>
       <r>   28.6134    0.0000 </r>
      </set>
      <set comment="kpoint 22">
       <r>   -2.3081    1.0000 </r>
       <r>   11.3680    0.0000 </r>
       <r>   17.2605    0.0000 </r>
       <r>   19.9973    0.0000 </r>
       <r>   22.7752    0.0000 </r>
       <r>   23.8544    0.0000 </r>
       <r>   24.0233    0.0000 </r>
       <r>   27.2043    0.0000 </r>
      </set>
      <set comment="kpoint 23">
       <r>   -3.0749    1.0000 </r>
       <r>   13.7614    0.0000 </r>
       <r>   17.5934    0.0000 </r>
       <r>   20.4604    0.0000 </r>
       <r>   23.4198    0.0000 </r>
       <r>   23.8837    0.0000 </r>
       <r>   24.9276    0.0000 </r>
       <r>   26.0474    0.0000 </r>
      </set>
      <set comment="kpoint 24">
       <r>   -3.6438    1.0000 </r>
       <r>   16.2417    0.0000 </r>
       <r>   18.0929    0.0000 </r>
       <r>   20.9956    0.0000 </r>
       <r>   23.1131    0.0000 </r>
       <r>   23.8135    0.0000 </r>
       <r>   25.0180    0.0000 </r>
       <r>   26.2160    0.0000 </r>
      </set>
      <set comment="kpoint 25">
       <r>   -4.0128    1.0000 </r>
       <r>   18.6270    0.0000 </r>
       <r>   18.8288    0.0000 </r>
       <r>   21.3926    0.0000 </r>
       <r>   22.3960    0.0000 </r>
       <r>   23.4485    0.0000 </r>
       <r>   24.2156    0.0000 </r>
       <r>   27.3233    0.0000 </r>
      </set>
      <set comment="kpoint 26">
       <r>   -3.7443    1.0000 </r>
       <r>   18.2937    0.0000 </r>
       <r>   18.2937    0.0000 </r>
       <r>   19.9583    0.0000 </r>
       <r>   20.1530    0.0000 </r>
       <r>   24.7486    0.0000 </r>
       <r>   25.8147    0.0000 </r>
       <r>   25.8147    0.0000 </r>
      </set>
      <set comment="kpoint 27">
       <r>   -3.3758    1.0000 </r>
       <r>   16.3969    0.0000 </r>
       <r>   17.6301    0.0000 </r>
       <r>   19.4486    0.0000 </r>
       <r>   20.4504    0.0000 </r>
       <r>   23.4478    0.0000 </r>
       <r>   26.4846    0.0000 </r>
       <r>   26.7659    0.0000 </r>
      </set>
      <set comment="kpoint 28">
       <r>   -2.8076    1.0000 </r>
       <r>   13.9773    0.0000 </r>
       <r>   17.1334    0.0000 </r>
       <r>   18.8643    0.0000 </r>
       <r>   20.7302    0.0000 </r>
       <r>   23.1565    0.0000 </r>
       <r>   26.6758    0.0000 </r>
       <r>   26.9325    0.0000 </r>
      </set>
      <set comment="kpoint 29">
       <r>   -2.0416    1.0000 </r>
       <r>   11.6036    0.0000 </r>
       <r>   16.8074    0.0000 </r>
       <r>   18.2737    0.0000 </r>
       <r>   20.1414    0.0000 </r>
       <r>   24.1504    0.0000 </r>
       <r>   26.2223    0.0000 </r>
       <r>   26.8178    0.0000 </r>
      </set>
      <set comment="kpoint 30">
       <r>   -1.0805    1.0000 </r>
       <r>    9.3509    1.0000 </r>
       <r>   16.6536    0.0000 </r>
       <r>   17.6013    0.0000 </r>
       <r>   19.6333    0.0000 </r>
       <r>   25.2196    0.0000 </r>
       <r>   25.3272    0.0000 </r>
       <r>   27.3451    0.0000 </r>
      </set>
      <set comment="kpoint 31">
       <r>    0.0716    1.0000 </r>
       <r>    7.2481    1.0000 </r>
       <r>   16.6695    0.0000 </r>
       <r>   16.8709    0.0000 </r>
       <r>   19.4601    0.0000 </r>
       <r>   24.4830    0.0000 </r>
       <r>   25.6755    0.0000 </r>
       <r>   28.6095    0.0000 </r>
      </set>
      <set comment="kpoint 32">
       <r>    1.4062    1.0000 </r>
       <r>    5.3154    1.0000 </r>
       <r>   16.1865    0.0000 </r>
       <r>   16.8533    0.0000 </r>
       <r>   19.5740    0.0000 </r>
       <r>   23.7681    0.0000 </r>
       <r>   25.7316    0.0000 </r>
       <r>   29.1137    0.0000 </r>
      </set>
      <set comment="kpoint 33">
       <r>    2.8182    1.0000 </r>
       <r>    3.6629    1.0000 </r>
       <r>   15.6191    0.0000 </r>
       <r>   17.1997    0.0000 </r>
       <r>   19.9188    0.0000 </r>
       <r>   23.2142    0.0000 </r>
       <r>   25.6107    0.0000 </r>
       <r>   29.0832    0.0000 </r>
      </set>
      <set comment="kpoint 34">
       <r>    1.8862    1.0000 </r>
       <r>    4.7147    1.0000 </r>
       <r>   15.2023    0.0000 </r>
       <r>   17.7011    0.0000 </r>
       <r>   20.4699    0.0000 </r>
       <r>   22.8436    0.0000 </r>
       <r>   25.4167    0.0000 </r>
       <r>   29.3414    0.0000 </r>
      </set>
      <set comment="kpoint 35">
       <r>    0.4969    1.0000 </r>
       <r>    6.5825    1.0000 </r>
       <r>   14.9502    0.0000 </r>
       <r>   18.3407    0.0000 </r>
       <r>   21.2057    0.0000 </r>
       <r>   22.6695    0.0000 </r>
       <r>   25.2228    0.0000 </r>
       <r>   29.7903    0.0000 </r>
      </set>
      <set comment="kpoint 36">
       <r>   -0.7176    1.0000 </r>
       <r>    8.6292    1.0000 </r>
       <r>   14.8729    0.0000 </r>
       <r>   19.0908    0.0000 </r>
       <r>   22.1110    0.0000 </r>
       <r>   22.7134    0.0000 </r>
       <r>   25.0714    0.0000 </r>
       <r>   28.4108    0.0000 </r>
      </set>
      <set comment="kpoint 37">
       <r>   -1.7430    1.0000 </r>
       <r>   10.8301    0.0000 </r>
       <r>   14.9741    0.0000 </r>
       <r>   19.8999    0.0000 </r>
       <r>   22.9861    0.0000 </r>
       <r>   23.1524    0.0000 </r>
       <r>   24.9539    0.0000 </r>
       <r>   26.6399    0.0000 </r>
      </set>
      <set comment="kpoint 38">
       <r>   -2.5743    1.0000 </r>
       <r>   13.1534    0.0000 </r>
       <r>   15.2641    0.0000 </r>
       <r>   20.6844    0.0000 </r>
       <r>   23.3877    0.0000 </r>
       <r>   24.2548    0.0000 </r>
       <r>   24.7932    0.0000 </r>
       <r>   25.2493    0.0000 </r>
      </set>
      <set comment="kpoint 39">
       <r>   -3.2086    1.0000 </r>
       <r>   15.3665    0.0000 </r>
       <r>   15.9311    0.0000 </r>
       <r>   21.2585    0.0000 </r>
       <r>   23.1685    0.0000 </r>
       <r>   24.4219    0.0000 </r>
       <r>   25.1324    0.0000 </r>
       <r>   25.1645    0.0000 </r>
      </set>
      <set comment="kpoint 40">
       <r>   -3.0746    1.0000 </r>
       <r>   16.9097    0.0000 </r>
       <r>   16.9097    0.0000 </r>
       <r>   18.5169    0.0000 </r>
       <r>   18.8230    0.0000 </r>
       <r>   21.9054    0.0000 </r>
       <r>   27.9552    0.0000 </r>
       <r>   27.9552    0.0000 </r>
      </set>
      <set comment="kpoint 41">
       <r>   -2.5738    1.0000 </r>
       <r>   15.0903    0.0000 </r>
       <r>   16.3563    0.0000 </r>
       <r>   17.9335    0.0000 </r>
       <r>   18.8221    0.0000 </r>
       <r>   21.1202    0.0000 </r>
       <r>   28.5702    0.0000 </r>
       <r>   28.6452    0.0000 </r>
      </set>
      <set comment="kpoint 42">
       <r>   -1.8750    1.0000 </r>
       <r>   12.7584    0.0000 </r>
       <r>   15.9747    0.0000 </r>
       <r>   17.0207    0.0000 </r>
       <r>   18.7512    0.0000 </r>
       <r>   21.8041    0.0000 </r>
       <r>   28.0920    0.0000 </r>
       <r>   28.8532    0.0000 </r>
      </set>
      <set comment="kpoint 43">
       <r>   -0.9804    1.0000 </r>
       <r>   10.4860    0.0000 </r>
       <r>   15.7664    0.0000 </r>
       <r>   16.0337    0.0000 </r>
       <r>   18.4888    0.0000 </r>
       <r>   23.2878    0.0000 </r>
       <r>   27.2506    0.0000 </r>
       <r>   28.8870    0.0000 </r>
      </set>
      <set comment="kpoint 44">
       <r>    0.1064    1.0000 </r>
       <r>    8.3437    1.0000 </r>
       <r>   15.0905    0.0000 </r>
       <r>   15.7307    0.0000 </r>
       <r>   18.4058    0.0000 </r>
       <r>   24.9496    0.0000 </r>
       <r>   26.3955    0.0000 </r>
       <r>   28.9070    0.0000 </r>
      </set>
      <set comment="kpoint 45">
       <r>    1.3793    1.0000 </r>
       <r>    6.3594    1.0000 </r>
       <r>   14.2648    0.0000 </r>
       <r>   15.8678    0.0000 </r>
       <r>   18.5338    0.0000 </r>
       <r>   25.6441    0.0000 </r>
       <r>   26.3919    0.0000 </r>
       <r>   29.1765    0.0000 </r>
      </set>
      <set comment="kpoint 46">
       <r>    2.8095    1.0000 </r>
       <r>    4.5710    1.0000 </r>
       <r>   13.5931    0.0000 </r>
       <r>   16.1758    0.0000 </r>
       <r>   18.8638    0.0000 </r>
       <r>   25.0362    0.0000 </r>
       <r>   27.0067    0.0000 </r>
       <r>   30.1862    0.0000 </r>
      </set>
      <set comment="kpoint 47">
       <r>    2.8098    1.0000 </r>
       <r>    4.5697    1.0000 </r>
       <r>   13.0909    0.0000 </r>
       <r>   16.6500    0.0000 </r>
       <r>   19.3865    0.0000 </r>
       <r>   24.5904    0.0000 </r>
       <r>   26.9695    0.0000 </r>
       <r>   31.4797    0.0000 </r>
      </set>
      <set comment="kpoint 48">
       <r>    1.3791    1.0000 </r>
       <r>    6.3547    1.0000 </r>
       <r>   12.7672    0.0000 </r>
       <r>   17.2840    0.0000 </r>
       <r>   20.0931    0.0000 </r>
       <r>   24.3177    0.0000 </r>
       <r>   26.7489    0.0000 </r>
       <r>   30.1500    0.0000 </r>
      </set>
      <set comment="kpoint 49">
       <r>    0.1059    1.0000 </r>
       <r>    8.3314    1.0000 </r>
       <r>   12.6294    0.0000 </r>
       <r>   18.0663    0.0000 </r>
       <r>   20.9721    0.0000 </r>
       <r>   24.2317    0.0000 </r>
       <r>   26.4857    0.0000 </r>
       <r>   28.1375    0.0000 </r>
      </set>
      <set comment="kpoint 50">
       <r>   -0.9810    1.0000 </r>
       <r>   10.4455    0.0000 </r>
       <r>   12.6964    0.0000 </r>
       <r>   18.9704    0.0000 </r>
       <r>   22.0021    0.0000 </r>
       <r>   24.3388    0.0000 </r>
       <r>   26.1533    0.0000 </r>
       <r>   26.2663    0.0000 </r>
      </set>
      <set comment="kpoint 51">
       <r>   -1.8755    1.0000 </r>
       <r>   12.4231    0.0000 </r>
       <r>   13.2190    0.0000 </r>
       <r>   19.9301    0.0000 </r>
       <r>   23.1391    0.0000 </r>
       <r>   24.4587    0.0000 </r>
       <r>   24.8120    0.0000 </r>
       <r>   25.6168    0.0000 </r>
      </set>
      <set comment="kpoint 52">
       <r>   -2.1406    1.0000 </r>
       <r>   15.7458    0.0000 </r>
       <r>   15.7458    0.0000 </r>
       <r>   16.7604    0.0000 </r>
       <r>   17.2493    0.0000 </r>
       <r>   19.8309    0.0000 </r>
       <r>   30.0515    0.0000 </r>
       <r>   30.0515    0.0000 </r>
      </set>
      <set comment="kpoint 53">
       <r>   -1.5094    1.0000 </r>
       <r>   13.9935    0.0000 </r>
       <r>   15.3061    0.0000 </r>
       <r>   15.5877    0.0000 </r>
       <r>   17.4683    0.0000 </r>
       <r>   19.6987    0.0000 </r>
       <r>   30.0145    0.0000 </r>
       <r>   30.7226    0.0000 </r>
      </set>
      <set comment="kpoint 54">
       <r>   -0.6822    1.0000 </r>
       <r>   11.7654    0.0000 </r>
       <r>   14.4079    0.0000 </r>
       <r>   15.0410    0.0000 </r>
       <r>   17.5279    0.0000 </r>
       <r>   20.8484    0.0000 </r>
       <r>   29.2743    0.0000 </r>
       <r>   30.8821    0.0000 </r>
      </set>
      <set comment="kpoint 55">
       <r>    0.3379    1.0000 </r>
       <r>    9.6060    1.0000 </r>
       <r>   13.3316    0.0000 </r>
       <r>   14.9502    0.0000 </r>
       <r>   17.5012    0.0000 </r>
       <r>   22.5524    0.0000 </r>
       <r>   28.4494    0.0000 </r>
       <r>   30.7456    0.0000 </r>
      </set>
      <set comment="kpoint 56">
       <r>    1.5460    1.0000 </r>
       <r>    7.5824    1.0000 </r>
       <r>   12.4053    0.0000 </r>
       <r>   15.0336    0.0000 </r>
       <r>   17.6143    0.0000 </r>
       <r>   24.4549    0.0000 </r>
       <r>   27.6819    0.0000 </r>
       <r>   30.4487    0.0000 </r>
      </set>
      <set comment="kpoint 57">
       <r>    2.9286    1.0000 </r>
       <r>    5.7280    1.0000 </r>
       <r>   11.6484    0.0000 </r>
       <r>   15.2898    0.0000 </r>
       <r>   17.9067    0.0000 </r>
       <r>   26.3696    0.0000 </r>
       <r>   27.0340    0.0000 </r>
       <r>   30.1245    0.0000 </r>
      </set>
      <set comment="kpoint 58">
       <r>    3.8678    1.0000 </r>
       <r>    4.6671    1.0000 </r>
       <r>   11.0718    0.0000 </r>
       <r>   15.7172    0.0000 </r>
       <r>   18.3857    0.0000 </r>
       <r>   26.5348    0.0000 </r>
       <r>   27.8880    0.0000 </r>
       <r>   30.0874    0.0000 </r>
      </set>
      <set comment="kpoint 59">
       <r>    2.4504    1.0000 </r>
       <r>    6.3109    1.0000 </r>
       <r>   10.6851    0.0000 </r>
       <r>   16.3122    0.0000 </r>
       <r>   19.0476    0.0000 </r>
       <r>   26.1978    0.0000 </r>
       <r>   28.2618    0.0000 </r>
       <r>   30.1353    0.0000 </r>
      </set>
      <set comment="kpoint 60">
       <r>    1.1217    1.0000 </r>
       <r>    8.1909    1.0000 </r>
       <r>   10.5119    0.0000 </r>
       <r>   17.0676    0.0000 </r>
       <r>   19.8853    0.0000 </r>
       <r>   26.0271    0.0000 </r>
       <r>   27.9038    0.0000 </r>
       <r>   28.0559    0.0000 </r>
      </set>
      <set comment="kpoint 61">
       <r>   -0.0248    1.0000 </r>
       <r>    9.9254    1.0000 </r>
       <r>   10.8343    0.0000 </r>
       <r>   17.9681    0.0000 </r>
       <r>   20.8819    0.0000 </r>
       <r>   25.9156    0.0000 </r>
       <r>   26.2367    0.0000 </r>
       <r>   27.1901    0.0000 </r>
      </set>
      <set comment="kpoint 62">
       <r>   -0.9461    1.0000 </r>
       <r>   14.1087    0.0000 </r>
       <r>   14.8092    0.0000 </r>
       <r>   14.8092    0.0000 </r>
       <r>   16.2010    0.0000 </r>
       <r>   18.5897    0.0000 </r>
       <r>   31.8227    0.0000 </r>
       <r>   32.0121    0.0000 </r>
      </set>
      <set comment="kpoint 63">
       <r>   -0.1870    1.0000 </r>
       <r>   12.7136    0.0000 </r>
       <r>   13.2790    0.0000 </r>
       <r>   14.4865    0.0000 </r>
       <r>   16.5380    0.0000 </r>
       <r>   18.7802    0.0000 </r>
       <r>   31.3209    0.0000 </r>
       <r>   32.6066    0.0000 </r>
      </set>
      <set comment="kpoint 64">
       <r>    0.7652    1.0000 </r>
       <r>   10.9515    0.0000 </r>
       <r>   11.7526    0.0000 </r>
       <r>   14.3385    0.0000 </r>
       <r>   16.7216    0.0000 </r>
       <r>   20.1478    0.0000 </r>
       <r>   30.5761    0.0000 </r>
       <r>   32.6315    0.0000 </r>
      </set>
      <set comment="kpoint 65">
       <r>    1.9060    1.0000 </r>
       <r>    8.9547    1.0000 </r>
       <r>   10.6946    0.0000 </r>
       <r>   14.3654    0.0000 </r>
       <r>   16.8437    0.0000 </r>
       <r>   22.0117    0.0000 </r>
       <r>   29.8280    0.0000 </r>
       <r>   32.2887    0.0000 </r>
      </set>
      <set comment="kpoint 66">
       <r>    3.2264    1.0000 </r>
       <r>    7.0656    1.0000 </r>
       <r>    9.8502    1.0000 </r>
       <r>   14.5666    0.0000 </r>
       <r>   17.1002    0.0000 </r>
       <r>   24.0768    0.0000 </r>
       <r>   29.1554    0.0000 </r>
       <r>   31.7360    0.0000 </r>
      </set>
      <set comment="kpoint 67">
       <r>    4.6422    1.0000 </r>
       <r>    5.4109    1.0000 </r>
       <r>    9.2034    1.0000 </r>
       <r>   14.9411    0.0000 </r>
       <r>   17.5313    0.0000 </r>
       <r>   26.2176    0.0000 </r>
       <r>   28.6085    0.0000 </r>
       <r>   31.0550    0.0000 </r>
      </set>
      <set comment="kpoint 68">
       <r>    3.7042    1.0000 </r>
       <r>    6.4279    1.0000 </r>
       <r>    8.7761    1.0000 </r>
       <r>   15.4869    0.0000 </r>
       <r>   18.1432    0.0000 </r>
       <r>   28.1928    0.0000 </r>
       <r>   28.2719    0.0000 </r>
       <r>   30.2363    0.0000 </r>
      </set>
      <set comment="kpoint 69">
       <r>    2.3253    1.0000 </r>
       <r>    7.9127    1.0000 </r>
       <r>    8.8618    1.0000 </r>
       <r>   16.1989    0.0000 </r>
       <r>   18.9325    0.0000 </r>
       <r>   27.6961    0.0000 </r>
       <r>   28.4681    0.0000 </r>
       <r>   29.1603    0.0000 </r>
      </set>
      <set comment="kpoint 70">
       <r>    0.5037    1.0000 </r>
       <r>   11.3853    0.0000 </r>
       <r>   14.1055    0.0000 </r>
       <r>   14.1055    0.0000 </r>
       <r>   15.4126    0.0000 </r>
       <r>   17.7894    0.0000 </r>
       <r>   32.9265    0.0000 </r>
       <r>   33.7877    0.0000 </r>
      </set>
      <set comment="kpoint 71">
       <r>    1.3866    1.0000 </r>
       <r>   10.1223    0.9996 </r>
       <r>   12.5861    0.0000 </r>
       <r>   13.8998    0.0000 </r>
       <r>   15.8865    0.0000 </r>
       <r>   18.1575    0.0000 </r>
       <r>   32.6323    0.0000 </r>
       <r>   34.2506    0.0000 </r>
      </set>
      <set comment="kpoint 72">
       <r>    2.4575    1.0000 </r>
       <r>    9.0165    1.0000 </r>
       <r>   10.6016    0.0000 </r>
       <r>   13.8692    0.0000 </r>
       <r>   16.1965    0.0000 </r>
       <r>   19.6794    0.0000 </r>
       <r>   31.9745    0.0000 </r>
       <r>   34.0717    0.0000 </r>
      </set>
      <set comment="kpoint 73">
       <r>    3.7069    1.0000 </r>
       <r>    8.0237    1.0000 </r>
       <r>    8.7698    1.0000 </r>
       <r>   14.0138    0.0000 </r>
       <r>   16.4534    0.0000 </r>
       <r>   21.6802    0.0000 </r>
       <r>   31.3165    0.0000 </r>
       <r>   33.4780    0.0000 </r>
      </set>
      <set comment="kpoint 74">
       <r>    5.0993    1.0000 </r>
       <r>    6.7133    1.0000 </r>
       <r>    7.6234    1.0000 </r>
       <r>   14.3327    0.0000 </r>
       <r>   16.8440    0.0000 </r>
       <r>   23.8785    0.0000 </r>
       <r>   30.6973    0.0000 </r>
       <r>   32.5955    0.0000 </r>
      </set>
      <set comment="kpoint 75">
       <r>    5.1199    1.0000 </r>
       <r>    6.3980    1.0000 </r>
       <r>    7.3854    1.0000 </r>
       <r>   14.8246    0.0000 </r>
       <r>   17.4056    0.0000 </r>
       <r>   26.1520    0.0000 </r>
       <r>   29.9134    0.0000 </r>
       <r>   31.0605    0.0000 </r>
      </set>
      <set comment="kpoint 76">
       <r>    2.1988    1.0000 </r>
       <r>    8.7963    1.0000 </r>
       <r>   13.6356    0.0000 </r>
       <r>   13.6356    0.0000 </r>
       <r>   14.8836    0.0000 </r>
       <r>   17.2758    0.0000 </r>
       <r>   33.9926    0.0000 </r>
       <r>   35.2967    0.0000 </r>
      </set>
      <set comment="kpoint 77">
       <r>    3.1951    1.0000 </r>
       <r>    7.6411    1.0000 </r>
       <r>   12.2111    0.0000 </r>
       <r>   13.5473    0.0000 </r>
       <r>   15.4963    0.0000 </r>
       <r>   17.7870    0.0000 </r>
       <r>   33.8468    0.0000 </r>
       <r>   35.5286    0.0000 </r>
      </set>
      <set comment="kpoint 78">
       <r>    4.3525    1.0000 </r>
       <r>    6.6875    1.0000 </r>
       <r>   10.3296    0.0061 </r>
       <r>   13.6343    0.0000 </r>
       <r>   15.9353    0.0000 </r>
       <r>   19.4438    0.0000 </r>
       <r>   33.2667    0.0000 </r>
       <r>   35.0150    0.0000 </r>
      </set>
      <set comment="kpoint 79">
       <r>    5.3874    1.0000 </r>
       <r>    6.2062    1.0000 </r>
       <r>    8.5520    1.0000 </r>
       <r>   13.8964    0.0000 </r>
       <r>   16.3236    0.0000 </r>
       <r>   21.5679    0.0000 </r>
       <r>   32.3873    0.0000 </r>
       <r>   33.8188    0.0000 </r>
      </set>
      <set comment="kpoint 80">
       <r>    4.0978    1.0000 </r>
       <r>    6.4412    1.0000 </r>
       <r>   13.4005    0.0000 </r>
       <r>   13.4005    0.0000 </r>
       <r>   14.6181    0.0000 </r>
       <r>   17.0206    0.0000 </r>
       <r>   34.7158    0.0000 </r>
       <r>   36.2788    0.0000 </r>
      </set>
      <set comment="kpoint 81">
       <r>    4.8818    1.0000 </r>
       <r>    5.7262    1.0000 </r>
       <r>   12.0867    0.0000 </r>
       <r>   13.4297    0.0000 </r>
       <r>   15.3652    0.0000 </r>
       <r>   17.6623    0.0000 </r>
       <r>   34.4622    0.0000 </r>
       <r>   36.0387    0.0000 </r>
      </set>
      <set comment="kpoint 82">
       <r>   -3.6103    1.0000 </r>
       <r>   17.0141    0.0000 </r>
       <r>   17.3625    0.0000 </r>
       <r>   20.8672    0.0000 </r>
       <r>   21.4147    0.0000 </r>
       <r>   24.9444    0.0000 </r>
       <r>   25.1963    0.0000 </r>
       <r>   25.6591    0.0000 </r>
      </set>
      <set comment="kpoint 83">
       <r>   -3.1083    1.0000 </r>
       <r>   14.7100    0.0000 </r>
       <r>   16.6707    0.0000 </r>
       <r>   20.3804    0.0000 </r>
       <r>   21.9820    0.0000 </r>
       <r>   24.1412    0.0000 </r>
       <r>   25.5700    0.0000 </r>
       <r>   25.9555    0.0000 </r>
      </set>
      <set comment="kpoint 84">
       <r>   -2.4077    1.0000 </r>
       <r>   12.3039    0.0000 </r>
       <r>   16.2773    0.0000 </r>
       <r>   19.7472    0.0000 </r>
       <r>   21.7259    0.0000 </r>
       <r>   24.4254    0.0000 </r>
       <r>   25.3978    0.0000 </r>
       <r>   25.9473    0.0000 </r>
      </set>
      <set comment="kpoint 85">
       <r>   -1.5109    1.0000 </r>
       <r>   10.0042    1.0000 </r>
       <r>   16.0592    0.0000 </r>
       <r>   19.0482    0.0000 </r>
       <r>   21.2140    0.0000 </r>
       <r>   24.1008    0.0000 </r>
       <r>   25.1726    0.0000 </r>
       <r>   27.0501    0.0000 </r>
      </set>
      <set comment="kpoint 86">
       <r>   -0.4214    1.0000 </r>
       <r>    7.8476    1.0000 </r>
       <r>   16.0121    0.0000 </r>
       <r>   18.3077    0.0000 </r>
       <r>   20.9483    0.0000 </r>
       <r>   23.2649    0.0000 </r>
       <r>   25.2430    0.0000 </r>
       <r>   28.5976    0.0000 </r>
      </set>
      <set comment="kpoint 87">
       <r>    0.8547    1.0000 </r>
       <r>    5.8545    1.0000 </r>
       <r>   16.1245    0.0000 </r>
       <r>   17.6187    0.0000 </r>
       <r>   20.9283    0.0000 </r>
       <r>   22.5236    0.0000 </r>
       <r>   25.3252    0.0000 </r>
       <r>   28.7748    0.0000 </r>
      </set>
      <set comment="kpoint 88">
       <r>    2.2867    1.0000 </r>
       <r>    4.0622    1.0000 </r>
       <r>   16.3446    0.0000 </r>
       <r>   17.0967    0.0000 </r>
       <r>   21.0489    0.0000 </r>
       <r>   22.0236    0.0000 </r>
       <r>   25.3893    0.0000 </r>
       <r>   28.4629    0.0000 </r>
      </set>
      <set comment="kpoint 89">
       <r>   -2.9410    1.0000 </r>
       <r>   15.5790    0.0000 </r>
       <r>   16.0088    0.0000 </r>
       <r>   19.4482    0.0000 </r>
       <r>   20.0623    0.0000 </r>
       <r>   22.3735    0.0000 </r>
       <r>   27.2595    0.0000 </r>
       <r>   27.4425    0.0000 </r>
      </set>
      <set comment="kpoint 90">
       <r>   -2.3075    1.0000 </r>
       <r>   13.3794    0.0000 </r>
       <r>   15.3957    0.0000 </r>
       <r>   18.6049    0.0000 </r>
       <r>   20.3420    0.0000 </r>
       <r>   22.4871    0.0000 </r>
       <r>   26.8830    0.0000 </r>
       <r>   27.8662    0.0000 </r>
      </set>
      <set comment="kpoint 91">
       <r>   -1.4772    1.0000 </r>
       <r>   11.0698    0.0000 </r>
       <r>   15.1075    0.0000 </r>
       <r>   17.6094    0.0000 </r>
       <r>   20.1230    0.0000 </r>
       <r>   23.7178    0.0000 </r>
       <r>   26.0897    0.0000 </r>
       <r>   28.0040    0.0000 </r>
      </set>
      <set comment="kpoint 92">
       <r>   -0.4531    1.0000 </r>
       <r>    8.8764    1.0000 </r>
       <r>   14.9916    0.0000 </r>
       <r>   16.6547    0.0000 </r>
       <r>   19.9860    0.0000 </r>
       <r>   24.6866    0.0000 </r>
       <r>   25.7493    0.0000 </r>
       <r>   28.2143    0.0000 </r>
      </set>
      <set comment="kpoint 93">
       <r>    0.7600    1.0000 </r>
       <r>    6.8342    1.0000 </r>
       <r>   14.9989    0.0000 </r>
       <r>   15.8635    0.0000 </r>
       <r>   20.0345    0.0000 </r>
       <r>   24.1493    0.0000 </r>
       <r>   26.6513    0.0000 </r>
       <r>   28.9001    0.0000 </r>
      </set>
      <set comment="kpoint 94">
       <r>    2.1478    1.0000 </r>
       <r>    4.9692    1.0000 </r>
       <r>   14.8214    0.0000 </r>
       <r>   15.5796    0.0000 </r>
       <r>   20.2694    0.0000 </r>
       <r>   23.5151    0.0000 </r>
       <r>   27.0273    0.0000 </r>
       <r>   30.2783    0.0000 </r>
      </set>
      <set comment="kpoint 95">
       <r>    3.0815    1.0000 </r>
       <r>    3.9155    1.0000 </r>
       <r>   14.3698    0.0000 </r>
       <r>   15.9088    0.0000 </r>
       <r>   20.6757    0.0000 </r>
       <r>   23.0289    0.0000 </r>
       <r>   27.0143    0.0000 </r>
       <r>   30.7502    0.0000 </r>
      </set>
      <set comment="kpoint 96">
       <r>    1.6680    1.0000 </r>
       <r>    5.5673    1.0000 </r>
       <r>   14.0122    0.0000 </r>
       <r>   16.4841    0.0000 </r>
       <r>   21.2187    0.0000 </r>
       <r>   22.7469    0.0000 </r>
       <r>   26.8449    0.0000 </r>
       <r>   30.3324    0.0000 </r>
      </set>
      <set comment="kpoint 97">
       <r>    0.3348    1.0000 </r>
       <r>    7.4941    1.0000 </r>
       <r>   13.8189    0.0000 </r>
       <r>   17.2324    0.0000 </r>
       <r>   21.7872    0.0000 </r>
       <r>   22.7765    0.0000 </r>
       <r>   26.5616    0.0000 </r>
       <r>   28.6507    0.0000 </r>
      </set>
      <set comment="kpoint 98">
       <r>   -0.8160    1.0000 </r>
       <r>    9.5848    1.0000 </r>
       <r>   13.8044    0.0000 </r>
       <r>   18.1237    0.0000 </r>
       <r>   22.1677    0.0000 </r>
       <r>   23.2877    0.0000 </r>
       <r>   25.8892    0.0000 </r>
       <r>   27.3752    0.0000 </r>
      </set>
      <set comment="kpoint 99">
       <r>   -1.7759    1.0000 </r>
       <r>   11.8054    0.0000 </r>
       <r>   13.9848    0.0000 </r>
       <r>   19.1097    0.0000 </r>
       <r>   22.4526    0.0000 </r>
       <r>   23.8077    0.0000 </r>
       <r>   24.9637    0.0000 </r>
       <r>   26.8463    0.0000 </r>
      </set>
      <set comment="kpoint 100">
       <r>   -2.5408    1.0000 </r>
       <r>   13.9032    0.0000 </r>
       <r>   14.5804    0.0000 </r>
       <r>   20.0636    0.0000 </r>
       <r>   22.3713    0.0000 </r>
       <r>   23.5150    0.0000 </r>
       <r>   25.4433    0.0000 </r>
       <r>   26.3594    0.0000 </r>
      </set>
      <set comment="kpoint 101">
       <r>   -2.0077    1.0000 </r>
       <r>   14.3645    0.0000 </r>
       <r>   14.8300    0.0000 </r>
       <r>   17.1392    0.0000 </r>
       <r>   18.8571    0.0000 </r>
       <r>   20.6297    0.0000 </r>
       <r>   28.6173    0.0000 </r>
       <r>   29.6931    0.0000 </r>
      </set>
      <set comment="kpoint 102">
       <r>   -1.2446    1.0000 </r>
       <r>   12.2728    0.0000 </r>
       <r>   14.3039    0.0000 </r>
       <r>   15.9988    0.0000 </r>
       <r>   19.1230    0.0000 </r>
       <r>   21.3817    0.0000 </r>
       <r>   27.9454    0.0000 </r>
       <r>   30.1361    0.0000 </r>
      </set>
      <set comment="kpoint 103">
       <r>   -0.2872    1.0000 </r>
       <r>   10.0711    1.0000 </r>
       <r>   14.0704    0.0000 </r>
       <r>   14.9589    0.0000 </r>
       <r>   19.0810    0.0000 </r>
       <r>   22.9388    0.0000 </r>
       <r>   27.1076    0.0000 </r>
       <r>   30.2014    0.0000 </r>
      </set>
      <set comment="kpoint 104">
       <r>    0.8607    1.0000 </r>
       <r>    7.9923    1.0000 </r>
       <r>   13.6695    0.0000 </r>
       <r>   14.4112    0.0000 </r>
       <r>   19.1333    0.0000 </r>
       <r>   24.6507    0.0000 </r>
       <r>   26.3987    0.0000 </r>
       <r>   30.1235    0.0000 </r>
      </set>
      <set comment="kpoint 105">
       <r>    2.1903    1.0000 </r>
       <r>    6.0731    1.0000 </r>
       <r>   12.9685    0.0000 </r>
       <r>   14.5074    0.0000 </r>
       <r>   19.3477    0.0000 </r>
       <r>   25.2801    0.0000 </r>
       <r>   26.8918    0.0000 </r>
       <r>   29.9988    0.0000 </r>
      </set>
      <set comment="kpoint 106">
       <r>    3.6055    1.0000 </r>
       <r>    4.4195    1.0000 </r>
       <r>   12.3590    0.0000 </r>
       <r>   14.8653    0.0000 </r>
       <r>   19.7382    0.0000 </r>
       <r>   24.8336    0.0000 </r>
       <r>   28.1524    0.0000 </r>
       <r>   30.0949    0.0000 </r>
      </set>
      <set comment="kpoint 107">
       <r>    2.6692    1.0000 </r>
       <r>    5.4716    1.0000 </r>
       <r>   11.9161    0.0000 </r>
       <r>   15.4139    0.0000 </r>
[...]
      <set comment="kpoint 154">
       <r>    4.6071    1.0000 </r>
       <r>    6.9344    1.0000 </r>
       <r>   10.1753    0.9682 </r>
       <r>   11.1035    0.0000 </r>
       <r>   18.8253    0.0000 </r>
       <r>   20.1252    0.0000 </r>
       <r>   31.4455    0.0000 </r>
       <r>   32.9836    0.0000 </r>
      </set>
      <set comment="kpoint 155">
       <r>    5.6402    1.0000 </r>
       <r>    6.4574    1.0000 </r>
       <r>    8.7382    1.0000 </r>
       <r>   11.0379    0.0000 </r>
       <r>   19.5874    0.0000 </r>
       <r>   21.8415    0.0000 </r>
       <r>   30.7208    0.0000 </r>
       <r>   31.0040    0.0000 </r>
      </set>
      <set comment="kpoint 156">
       <r>    1.6780    1.0000 </r>
       <r>    9.4235    1.0000 </r>
       <r>   10.2769    0.1542 </r>
       <r>   12.6468    0.0000 </r>
       <r>   22.2547    0.0000 </r>
       <r>   22.8792    0.0000 </r>
       <r>   25.6348    0.0000 </r>
       <r>   32.9379    0.0000 </r>
      </set>
      <set comment="kpoint 157">
       <r>    2.9403    1.0000 </r>
       <r>    7.8057    1.0000 </r>
       <r>   10.0716    1.0000 </r>
       <r>   11.7754    0.0000 </r>
       <r>   22.6395    0.0000 </r>
       <r>   23.9801    0.0000 </r>
       <r>   25.5488    0.0000 </r>
       <r>   31.4372    0.0000 </r>
      </set>
      <set comment="kpoint 158">
       <r>    4.3622    1.0000 </r>
       <r>    6.0682    1.0000 </r>
       <r>   10.2750    0.1671 </r>
       <r>   11.1662    0.0000 </r>
       <r>   22.7775    0.0000 </r>
       <r>   24.0166    0.0000 </r>
       <r>   27.0602    0.0000 </r>
       <r>   29.5806    0.0000 </r>
      </set>
      <set comment="kpoint 159">
       <r>    3.3595    1.0000 </r>
       <r>    8.9207    1.0000 </r>
       <r>    9.4643    1.0000 </r>
       <r>   10.3832    0.0000 </r>
       <r>   21.7783    0.0000 </r>
       <r>   22.6068    0.0000 </r>
       <r>   26.9680    0.0000 </r>
       <r>   31.9881    0.0000 </r>
      </set>
      <set comment="kpoint 160">
       <r>    4.7232    1.0000 </r>
       <r>    7.4102    1.0000 </r>
       <r>    9.0354    1.0000 </r>
       <r>    9.9975    1.0000 </r>
       <r>   22.3856    0.0000 </r>
       <r>   24.2389    0.0000 </r>
       <r>   26.4325    0.0000 </r>
       <r>   29.9447    0.0000 </r>
      </set>
      <set comment="kpoint 161">
       <r>    5.6738    1.0000 </r>
       <r>    6.3484    1.0000 </r>
       <r>    8.5889    1.0000 </r>
       <r>   10.3113    0.0232 </r>
       <r>   22.7985    0.0000 </r>
       <r>   25.2881    0.0000 </r>
       <r>   26.5110    0.0000 </r>
       <r>   28.3358    0.0000 </r>
      </set>
      <set comment="kpoint 162">
       <r>    4.2526    1.0000 </r>
       <r>    7.6609    1.0000 </r>
       <r>    8.5559    1.0000 </r>
       <r>   10.9312    0.0000 </r>
       <r>   23.2455    0.0000 </r>
       <r>   24.6922    0.0000 </r>
       <r>   25.7011    0.0000 </r>
       <r>   29.5707    0.0000 </r>
      </set>
      <set comment="kpoint 163">
       <r>    5.2393    1.0000 </r>
       <r>    7.5159    1.0000 </r>
       <r>    8.6694    1.0000 </r>
       <r>    9.7456    1.0000 </r>
       <r>   21.5384    0.0000 </r>
       <r>   22.4407    0.0000 </r>
       <r>   28.5302    0.0000 </r>
       <r>   30.3981    0.0000 </r>
      </set>
      <set comment="kpoint 164">
       <r>    6.3985    1.0000 </r>
       <r>    6.9382    1.0000 </r>
       <r>    7.5952    1.0000 </r>
       <r>    9.7560    1.0000 </r>
       <r>   22.2862    0.0000 </r>
       <r>   24.2397    0.0000 </r>
       <r>   27.5510    0.0000 </r>
       <r>   28.6537    0.0000 </r>
      </set>
      <set comment="kpoint 165">
       <r>    6.1075    1.0000 </r>
       <r>    7.4086    1.0000 </r>
       <r>    7.9602    1.0000 </r>
       <r>    8.9727    1.0000 </r>
       <r>   24.2569    0.0000 </r>
       <r>   24.4609    0.0000 </r>
       <r>   25.8386    0.0000 </r>
       <r>   28.0723    0.0000 </r>
      </set>
     </set>
    </set>
   </array>
  </eigenvalues>
  <separator name="orbital magnetization" >
   <v name="MAGDIPOLOUT">      0.00000000      0.00000000      0.00000000</v>
  </separator>
  <dos>
   <i name="efermi">     10.24089223 </i>
   <total>
    <array>
     <dimension dim="1">gridpoints</dimension>
     <dimension dim="2">spin</dimension>
     <field>energy</field>
     <field>total</field>
     <field>integrated</field>
     <set>
      <set comment="spin 1">
       <r>    -6.3096     0.0000     0.0000 </r>
       <r>    -6.1609     0.0000     0.0000 </r>
       <r>    -6.0122     0.0000     0.0000 </r>
       <r>    -5.8635     0.0000     0.0000 </r>
       <r>    -5.7147     0.0000     0.0000 </r>
       <r>    -5.5660     0.0000     0.0000 </r>
       <r>    -5.4173     0.0000     0.0000 </r>
       <r>    -5.2686     0.0000     0.0000 </r>
       <r>    -5.1199     0.0000     0.0000 </r>
       <r>    -4.9711     0.0000     0.0000 </r>
       <r>    -4.8224     0.0000     0.0000 </r>
       <r>    -4.6737     0.0000     0.0000 </r>
       <r>    -4.5250     0.0000     0.0000 </r>
       <r>    -4.3763     0.0000     0.0000 </r>
       <r>    -4.2275     0.0048     0.0007 </r>
       <r>    -4.0788     0.0368     0.0062 </r>
       <r>    -3.9301     0.0537     0.0142 </r>
       <r>    -3.7814     0.0686     0.0244 </r>
       <r>    -3.6326     0.0724     0.0351 </r>
       <r>    -3.4839     0.1004     0.0501 </r>
       <r>    -3.3352     0.1150     0.0672 </r>
       <r>    -3.1865     0.0369     0.0727 </r>
       <r>    -3.0378     0.2055     0.1032 </r>
       <r>    -2.8890     0.0824     0.1155 </r>
       <r>    -2.7403     0.1282     0.1345 </r>
       <r>    -2.5916     0.0687     0.1448 </r>
       <r>    -2.4429     0.1724     0.1704 </r>
       <r>    -2.2942     0.2384     0.2059 </r>
       <r>    -2.1454     0.0767     0.2173 </r>
       <r>    -1.9967     0.1505     0.2397 </r>
       <r>    -1.8480     0.1356     0.2598 </r>
       <r>    -1.6993     0.2284     0.2938 </r>
       <r>    -1.5505     0.0994     0.3086 </r>
       <r>    -1.4018     0.3051     0.3540 </r>
       <r>    -1.2531     0.1174     0.3714 </r>
       <r>    -1.1044     0.0949     0.3855 </r>
       <r>    -0.9557     0.2335     0.4202 </r>
       <r>    -0.8069     0.2131     0.4519 </r>
       <r>    -0.6582     0.3329     0.5014 </r>
       <r>    -0.5095     0.0392     0.5073 </r>
       <r>    -0.3608     0.3129     0.5538 </r>
       <r>    -0.2121     0.1709     0.5792 </r>
       <r>    -0.0633     0.1035     0.5946 </r>
       <r>     0.0854     0.2701     0.6348 </r>
       <r>     0.2341     0.2811     0.6766 </r>
       <r>     0.3828     0.3326     0.7260 </r>
       <r>     0.5316     0.1366     0.7464 </r>
       <r>     0.6803     0.2227     0.7795 </r>
       <r>     0.8290     0.2524     0.8170 </r>
       <r>     0.9777     0.2188     0.8496 </r>
       <r>     1.1264     0.1566     0.8729 </r>
       <r>     1.2752     0.2854     0.9153 </r>
       <r>     1.4239     0.4122     0.9766 </r>
       <r>     1.5726     0.1222     0.9948 </r>
       <r>     1.7213     0.5103     1.0707 </r>
       <r>     1.8701     0.1768     1.0970 </r>
       <r>     2.0188     0.1143     1.1140 </r>
       <r>     2.1675     0.2112     1.1454 </r>
       <r>     2.3162     0.3541     1.1980 </r>
       <r>     2.4649     0.4029     1.2580 </r>
       <r>     2.6137     0.2016     1.2879 </r>
       <r>     2.7624     0.3382     1.3382 </r>
       <r>     2.9111     0.3703     1.3933 </r>
       <r>     3.0598     0.2401     1.4290 </r>
       <r>     3.2085     0.3341     1.4787 </r>
       <r>     3.3573     0.1418     1.4998 </r>
       <r>     3.5060     0.3139     1.5465 </r>
       <r>     3.6547     0.2017     1.5765 </r>
       <r>     3.8034     0.2741     1.6173 </r>
       <r>     3.9522     0.5246     1.6953 </r>
       <r>     4.1009     0.3335     1.7449 </r>
       <r>     4.2496     0.3210     1.7926 </r>
       <r>     4.3983     0.2788     1.8341 </r>
       <r>     4.5470     0.2212     1.8670 </r>
       <r>     4.6958     0.3418     1.9178 </r>
       <r>     4.8445     0.3883     1.9756 </r>
       <r>     4.9932     0.4154     2.0373 </r>
       <r>     5.1419     0.2535     2.0750 </r>
       <r>     5.2906     0.2236     2.1083 </r>
       <r>     5.4394     0.3493     2.1602 </r>
       <r>     5.5881     0.4125     2.2216 </r>
       <r>     5.7368     0.5118     2.2977 </r>
       <r>     5.8855     0.2847     2.3401 </r>
       <r>     6.0343     0.3179     2.3873 </r>
       <r>     6.1830     0.3041     2.4326 </r>
       <r>     6.3317     0.1824     2.4597 </r>
       <r>     6.4804     0.5238     2.5376 </r>
       <r>     6.6291     0.4047     2.5978 </r>
       <r>     6.7779     0.3481     2.6495 </r>
       <r>     6.9266     0.2339     2.6843 </r>
       <r>     7.0753     0.5087     2.7600 </r>
       <r>     7.2240     0.1623     2.7841 </r>
       <r>     7.3727     0.5854     2.8712 </r>
       <r>     7.5215     0.3903     2.9292 </r>
       <r>     7.6702     0.4163     2.9911 </r>
       <r>     7.8189     0.2619     3.0301 </r>
       <r>     7.9676     0.5517     3.1121 </r>
       <r>     8.1164     0.2510     3.1495 </r>
       <r>     8.2651     0.3213     3.1972 </r>
       <r>     8.4138     0.2908     3.2405 </r>
       <r>     8.5625     0.2495     3.2776 </r>
       <r>     8.7112     0.5908     3.3655 </r>
       <r>     8.8600     0.4453     3.4317 </r>
       <r>     9.0087     0.6581     3.5296 </r>
       <r>     9.1574     0.4106     3.5906 </r>
       <r>     9.3061     0.3184     3.6380 </r>
       <r>     9.4548     0.4017     3.6977 </r>
       <r>     9.6036     0.3465     3.7492 </r>
       <r>     9.7523     0.2772     3.7905 </r>
       <r>     9.9010     0.3487     3.8423 </r>
       <r>    10.0497     0.5325     3.9215 </r>
       <r>    10.1985     0.4405     3.9870 </r>
       <r>    10.3472     0.5665     4.0713 </r>
       <r>    10.4959     0.5360     4.1510 </r>
       <r>    10.6446     0.2555     4.1890 </r>
       <r>    10.7933     0.4828     4.2608 </r>
       <r>    10.9421     0.4533     4.3282 </r>
       <r>    11.0908     0.4260     4.3916 </r>
       <r>    11.2395     0.5802     4.4779 </r>
       <r>    11.3882     0.2826     4.5199 </r>
       <r>    11.5369     0.3724     4.5753 </r>
       <r>    11.6857     0.4837     4.6472 </r>
       <r>    11.8344     0.7298     4.7557 </r>
       <r>    11.9831     0.4045     4.8159 </r>
       <r>    12.1318     0.5230     4.8937 </r>
       <r>    12.2806     0.2718     4.9341 </r>
       <r>    12.4293     0.4499     5.0010 </r>
       <r>    12.5780     0.2647     5.0404 </r>
       <r>    12.7267     0.7466     5.1514 </r>
       <r>    12.8754     0.5812     5.2379 </r>
       <r>    13.0242     0.8994     5.3716 </r>
       <r>    13.1729     0.3270     5.4202 </r>
       <r>    13.3216     0.3774     5.4764 </r>
       <r>    13.4703     0.4852     5.5485 </r>
       <r>    13.6190     0.4287     5.6123 </r>
       <r>    13.7678     0.8006     5.7313 </r>
       <r>    13.9165     0.5082     5.8069 </r>
       <r>    14.0652     0.7805     5.9230 </r>
       <r>    14.2139     0.1785     5.9495 </r>
       <r>    14.3627     0.5072     6.0250 </r>
       <r>    14.5114     0.7105     6.1307 </r>
       <r>    14.6601     0.4345     6.1953 </r>
       <r>    14.8088     0.2959     6.2393 </r>
       <r>    14.9575     0.6442     6.3351 </r>
       <r>    15.1063     0.6969     6.4387 </r>
       <r>    15.2550     0.3436     6.4898 </r>
       <r>    15.4037     0.4479     6.5564 </r>
       <r>    15.5524     0.5016     6.6310 </r>
       <r>    15.7011     0.3182     6.6783 </r>
       <r>    15.8499     0.2729     6.7189 </r>
       <r>    15.9986     0.6257     6.8120 </r>
       <r>    16.1473     0.6504     6.9087 </r>
       <r>    16.2960     0.4984     6.9829 </r>
       <r>    16.4448     0.4999     7.0572 </r>
       <r>    16.5935     0.3486     7.1090 </r>
       <r>    16.7422     0.5462     7.1903 </r>
       <r>    16.8909     0.3305     7.2394 </r>
       <r>    17.0396     0.3107     7.2856 </r>
       <r>    17.1884     0.7515     7.3974 </r>
       <r>    17.3371     0.5270     7.4758 </r>
       <r>    17.4858     0.1725     7.5014 </r>
       <r>    17.6345     0.9187     7.6381 </r>
       <r>    17.7832     0.4807     7.7096 </r>
       <r>    17.9320     0.4654     7.7788 </r>
       <r>    18.0807     0.4580     7.8469 </r>
       <r>    18.2294     0.5709     7.9318 </r>
       <r>    18.3781     0.6566     8.0294 </r>
       <r>    18.5269     0.3704     8.0845 </r>
       <r>    18.6756     0.4577     8.1526 </r>
       <r>    18.8243     0.5593     8.2358 </r>
       <r>    18.9730     0.5094     8.3115 </r>
       <r>    19.1217     0.7720     8.4264 </r>
       <r>    19.2705     0.3763     8.4823 </r>
       <r>    19.4192     0.3683     8.5371 </r>
       <r>    19.5679     0.6128     8.6282 </r>
       <r>    19.7166     0.6162     8.7199 </r>
       <r>    19.8653     0.3454     8.7713 </r>
       <r>    20.0141     0.5932     8.8595 </r>
       <r>    20.1628     1.0558     9.0165 </r>
       <r>    20.3115     0.3942     9.0751 </r>
       <r>    20.4602     0.5841     9.1620 </r>
       <r>    20.6090     0.4200     9.2245 </r>
       <r>    20.7577     0.6412     9.3198 </r>
       <r>    20.9064     0.5326     9.3990 </r>
       <r>    21.0551     0.7375     9.5087 </r>
       <r>    21.2038     0.4079     9.5694 </r>
       <r>    21.3526     0.4621     9.6381 </r>
       <r>    21.5013     0.8118     9.7588 </r>
       <r>    21.6500     0.4508     9.8259 </r>
       <r>    21.7987     0.6735     9.9260 </r>
       <r>    21.9474     0.5802    10.0123 </r>
       <r>    22.0962     0.7327    10.1213 </r>
       <r>    22.2449     0.4142    10.1829 </r>
       <r>    22.3936     0.5738    10.2682 </r>
       <r>    22.5423     0.6463    10.3644 </r>
       <r>    22.6911     0.5091    10.4401 </r>
       <r>    22.8398     0.9527    10.5818 </r>
       <r>    22.9885     0.5464    10.6630 </r>
       <r>    23.1372     0.4220    10.7258 </r>
       <r>    23.2859     0.5072    10.8012 </r>
       <r>    23.4347     0.6192    10.8933 </r>
       <r>    23.5834     0.3671    10.9479 </r>
       <r>    23.7321     0.2683    10.9878 </r>
       <r>    23.8808     0.8274    11.1109 </r>
       <r>    24.0295     0.7165    11.2174 </r>
       <r>    24.1783     1.2409    11.4020 </r>
       <r>    24.3270     1.1130    11.5675 </r>
       <r>    24.4757     0.6937    11.6707 </r>
       <r>    24.6244     0.4469    11.7371 </r>
       <r>    24.7732     0.4065    11.7976 </r>
       <r>    24.9219     0.4269    11.8611 </r>
       <r>    25.0706     0.4582    11.9292 </r>
       <r>    25.2193     0.4604    11.9977 </r>
       <r>    25.3680     0.8798    12.1285 </r>
       <r>    25.5168     0.5268    12.2069 </r>
       <r>    25.6655     0.7679    12.3211 </r>
       <r>    25.8142     0.7425    12.4315 </r>
       <r>    25.9629     0.6875    12.5337 </r>
       <r>    26.1116     0.6491    12.6303 </r>
       <r>    26.2604     0.8443    12.7558 </r>
       <r>    26.4091     0.6842    12.8576 </r>
       <r>    26.5578     0.6106    12.9484 </r>
       <r>    26.7065     0.3530    13.0009 </r>
       <r>    26.8553     0.4081    13.0616 </r>
       <r>    27.0040     0.7516    13.1734 </r>
       <r>    27.1527     1.1113    13.3387 </r>
       <r>    27.3014     0.6132    13.4299 </r>
       <r>    27.4501     0.5634    13.5137 </r>
       <r>    27.5989     0.3821    13.5705 </r>
       <r>    27.7476     0.4172    13.6325 </r>
       <r>    27.8963     0.4736    13.7030 </r>
       <r>    28.0450     0.4933    13.7763 </r>
       <r>    28.1937     0.5386    13.8564 </r>
       <r>    28.3425     0.5075    13.9319 </r>
       <r>    28.4912     0.7009    14.0362 </r>
       <r>    28.6399     0.9228    14.1734 </r>
       <r>    28.7886     0.5598    14.2566 </r>
       <r>    28.9374     0.5206    14.3341 </r>
       <r>    29.0861     0.1961    14.3632 </r>
       <r>    29.2348     0.6977    14.4670 </r>
       <r>    29.3835     0.4182    14.5292 </r>
       <r>    29.5322     0.1872    14.5570 </r>
       <r>    29.6810     0.4671    14.6265 </r>
       <r>    29.8297     0.3905    14.6846 </r>
       <r>    29.9784     0.5883    14.7721 </r>
       <r>    30.1271     0.8604    14.9000 </r>
       <r>    30.2758     0.6998    15.0041 </r>
       <r>    30.4246     0.5009    15.0786 </r>
       <r>    30.5733     0.4040    15.1387 </r>
       <r>    30.7220     0.2265    15.1724 </r>
       <r>    30.8707     0.4798    15.2437 </r>
       <r>    31.0195     0.4327    15.3081 </r>
       <r>    31.1682     0.1408    15.3290 </r>
       <r>    31.3169     0.1832    15.3563 </r>
       <r>    31.4656     0.3634    15.4103 </r>
       <r>    31.6143     0.2804    15.4520 </r>
       <r>    31.7631     0.2835    15.4942 </r>
       <r>    31.9118     0.2048    15.5246 </r>
       <r>    32.0605     0.3963    15.5836 </r>
       <r>    32.2092     0.2328    15.6182 </r>
       <r>    32.3579     0.1102    15.6346 </r>
       <r>    32.5067     0.1591    15.6582 </r>
       <r>    32.6554     0.2852    15.7007 </r>
       <r>    32.8041     0.0442    15.7072 </r>
       <r>    32.9528     0.1956    15.7363 </r>
       <r>    33.1016     0.0839    15.7488 </r>
       <r>    33.2503     0.2088    15.7798 </r>
       <r>    33.3990     0.2038    15.8102 </r>
       <r>    33.5477     0.1088    15.8263 </r>
       <r>    33.6964     0.0348    15.8315 </r>
       <r>    33.8452     0.2681    15.8714 </r>
       <r>    33.9939     0.1515    15.8939 </r>
       <r>    34.1426     0.1180    15.9115 </r>
       <r>    34.2913     0.0779    15.9231 </r>
       <r>    34.4400     0.0272    15.9271 </r>
       <r>    34.5888     0.1449    15.9487 </r>
       <r>    34.7375     0.0123    15.9505 </r>
       <r>    34.8862     0.0044    15.9512 </r>
       <r>    35.0349     0.0468    15.9581 </r>
       <r>    35.1837     0.0333    15.9631 </r>
       <r>    35.3324     0.1266    15.9819 </r>
       <r>    35.4811     0.0127    15.9838 </r>
       <r>    35.6298     0.0597    15.9927 </r>
       <r>    35.7785     0.0001    15.9927 </r>
       <r>    35.9273     0.0000    15.9927 </r>
       <r>    36.0760     0.0280    15.9968 </r>
       <r>    36.2247     0.0058    15.9977 </r>
       <r>    36.3734     0.0153    16.0000 </r>
       <r>    36.5221     0.0001    16.0000 </r>
       <r>    36.6709     0.0000    16.0000 </r>
       <r>    36.8196     0.0000    16.0000 </r>
       <r>    36.9683     0.0000    16.0000 </r>
       <r>    37.1170     0.0000    16.0000 </r>
       <r>    37.2658     0.0000    16.0000 </r>
       <r>    37.4145     0.0000    16.0000 </r>
       <r>    37.5632     0.0000    16.0000 </r>
       <r>    37.7119     0.0000    16.0000 </r>
       <r>    37.8606     0.0000    16.0000 </r>
       <r>    38.0094     0.0000    16.0000 </r>
       <r>    38.1581     0.0000    16.0000 </r>
       <r>    38.3068     0.0000    16.0000 </r>
      </set>
     </set>
    </array>
   </total>
  </dos>
 </calculation>
 <structure name="finalpos" >
  <crystal>
   <varray name="basis" >
    <v>       2.36831301      -0.00000000       1.36734500 </v>
    <v>       0.78943767       2.23286668       1.36734500 </v>
    <v>      -0.00000001      -0.00000001       2.73469203 </v>
   </varray>
   <i name="volume">     14.46139939 </i>
   <varray name="rec_basis" >
    <v>       0.42224148      -0.14928492       0.00000000 </v>
    <v>       0.00000000       0.44785477       0.00000000 </v>
    <v>      -0.21112058      -0.14928481       0.36567189 </v>
   </varray>
  </crystal>
  <varray name="positions" >
   <v>       0.00000000      -0.00000000       0.00000000 </v>
  </varray>
 </structure>
</modeling>
