   64   64    1    2
  0.9103146E+01  0.8352000E-09  0.8352000E-09  0.8352000E-09  0.5000000E-15
  1.000000000000000E-004
  CAR 
 bulk_NiO                                
    704     10    440
 
  0.1250000E+00  0.1250000E+00  0.1250000E+00  0.3125000E-01
      1        -58.228331      -58.228331   1.000000   1.000000
      2        -58.228331      -58.228331   1.000000   1.000000
      3        -58.228331      -58.228331   1.000000   1.000000
      4        -58.223818      -58.223818   1.000000   1.000000
      5        -58.223818      -58.223818   1.000000   1.000000
      6        -58.223818      -58.223818   1.000000   1.000000
      7        -58.223818      -58.223818   1.000000   1.000000
      8        -58.223818      -58.223818   1.000000   1.000000
      9        -58.223818      -58.223818   1.000000   1.000000
     10        -58.221428      -58.221428   1.000000   1.000000
     11        -58.219440      -58.219440   1.000000   1.000000
     12        -58.219440      -58.219440   1.000000   1.000000
     13        -58.219440      -58.219440   1.000000   1.000000
     14        -58.219305      -58.219305   1.000000   1.000000
     15        -58.219305      -58.219305   1.000000   1.000000
     16        -58.219305      -58.219305   1.000000   1.000000
     17        -58.218041      -58.218041   1.000000   1.000000
     18        -58.218041      -58.218041   1.000000   1.000000
     19        -58.218039      -58.218039   1.000000   1.000000
     20        -58.217692      -58.217692   1.000000   1.000000
     21        -58.217692      -58.217692   1.000000   1.000000
     22        -58.217692      -58.217692   1.000000   1.000000
     23        -58.217691      -58.217691   1.000000   1.000000
     24        -58.217691      -58.217691   1.000000   1.000000
     25        -58.217691      -58.217691   1.000000   1.000000
     26        -58.217389      -58.217389   1.000000   1.000000
     27        -58.217389      -58.217389   1.000000   1.000000
     28        -58.217389      -58.217389   1.000000   1.000000
     29        -58.217209      -58.217209   1.000000   1.000000
     30        -58.217209      -58.217209   1.000000   1.000000
     31        -58.217209      -58.217209   1.000000   1.000000
     32        -58.215831      -58.215831   1.000000   1.000000
     33        -58.215831      -58.215831   1.000000   1.000000
     34        -58.215831      -58.215831   1.000000   1.000000
     35        -58.215828      -58.215828   1.000000   1.000000
     36        -58.215828      -58.215828   1.000000   1.000000
     37        -58.215828      -58.215828   1.000000   1.000000
     38        -58.212853      -58.212853   1.000000   1.000000
     39        -58.212849      -58.212849   1.000000   1.000000
     40        -58.212849      -58.212849   1.000000   1.000000
     41        -58.209629      -58.209629   1.000000   1.000000
     42        -58.209629      -58.209629   1.000000   1.000000
     43        -58.209629      -58.209629   1.000000   1.000000
     44        -58.209477      -58.209477   1.000000   1.000000
     45        -58.209477      -58.209477   1.000000   1.000000
     46        -58.209477      -58.209477   1.000000   1.000000
     47        -58.207444      -58.207444   1.000000   1.000000
     48        -58.207444      -58.207444   1.000000   1.000000
     49        -56.131326      -56.131326   1.000000   1.000000
     50        -56.131326      -56.131326   1.000000   1.000000
     51        -56.131325      -56.131325   1.000000   1.000000
     52        -56.126347      -56.126347   1.000000   1.000000
     53        -56.126347      -56.126347   1.000000   1.000000
     54        -56.126347      -56.126347   1.000000   1.000000
     55        -56.126347      -56.126347   1.000000   1.000000
     56        -56.126347      -56.126347   1.000000   1.000000
     57        -56.126347      -56.126347   1.000000   1.000000
     58        -56.121858      -56.121858   1.000000   1.000000
     59        -56.119828      -56.119828   1.000000   1.000000
     60        -56.119828      -56.119828   1.000000   1.000000
     61        -56.119828      -56.119828   1.000000   1.000000
     62        -56.119810      -56.119810   1.000000   1.000000
     63        -56.119810      -56.119810   1.000000   1.000000
     64        -56.119810      -56.119810   1.000000   1.000000
     65        -56.118929      -56.118929   1.000000   1.000000
     66        -56.118929      -56.118929   1.000000   1.000000
     67        -56.118929      -56.118929   1.000000   1.000000
     68        -56.118809      -56.118809   1.000000   1.000000
     69        -56.118809      -56.118809   1.000000   1.000000
     70        -56.118809      -56.118809   1.000000   1.000000
     71        -56.118219      -56.118219   1.000000   1.000000
     72        -56.118219      -56.118219   1.000000   1.000000
     73        -56.118216      -56.118216   1.000000   1.000000
     74        -56.117875      -56.117875   1.000000   1.000000
     75        -56.117875      -56.117875   1.000000   1.000000
     76        -56.117875      -56.117875   1.000000   1.000000
     77        -56.117872      -56.117872   1.000000   1.000000
     78        -56.117872      -56.117872   1.000000   1.000000
     79        -56.117872      -56.117872   1.000000   1.000000
     80        -56.117296      -56.117296   1.000000   1.000000
     81        -56.117296      -56.117296   1.000000   1.000000
     82        -56.117296      -56.117296   1.000000   1.000000
     83        -56.117294      -56.117294   1.000000   1.000000
     84        -56.117294      -56.117294   1.000000   1.000000
     85        -56.117294      -56.117294   1.000000   1.000000
     86        -56.113682      -56.113682   1.000000   1.000000
     87        -56.113678      -56.113678   1.000000   1.000000
     88        -56.113678      -56.113678   1.000000   1.000000
     89        -56.110128      -56.110128   1.000000   1.000000
     90        -56.110128      -56.110128   1.000000   1.000000
     91        -56.110128      -56.110128   1.000000   1.000000
     92        -56.109923      -56.109923   1.000000   1.000000
     93        -56.109923      -56.109923   1.000000   1.000000
     94        -56.109923      -56.109923   1.000000   1.000000
     95        -56.107566      -56.107566   1.000000   1.000000
     96        -56.107566      -56.107566   1.000000   1.000000
     97        -12.842764      -12.842764   1.000000   1.000000
     98        -12.222661      -12.222661   1.000000   1.000000
     99        -12.222661      -12.222661   1.000000   1.000000
    100        -12.222661      -12.222661   1.000000   1.000000
    101        -11.935157      -11.935157   1.000000   1.000000
    102        -11.935157      -11.935157   1.000000   1.000000
    103        -11.935157      -11.935157   1.000000   1.000000
    104        -11.756092      -11.756092   1.000000   1.000000
    105        -11.756092      -11.756092   1.000000   1.000000
    106        -11.756092      -11.756092   1.000000   1.000000
    107        -11.570124      -11.570124   1.000000   1.000000
    108        -11.570124      -11.570124   1.000000   1.000000
    109        -11.570124      -11.570124   1.000000   1.000000
    110        -11.570118      -11.570118   1.000000   1.000000
    111        -11.570118      -11.570118   1.000000   1.000000
    112        -11.570118      -11.570118   1.000000   1.000000
    113        -11.500759      -11.500759   1.000000   1.000000
    114        -11.455552      -11.455552   1.000000   1.000000
    115        -11.455548      -11.455548   1.000000   1.000000
    116        -11.455548      -11.455548   1.000000   1.000000
    117        -11.439253      -11.439253   1.000000   1.000000
    118        -11.439253      -11.439253   1.000000   1.000000
    119        -11.439253      -11.439253   1.000000   1.000000
    120        -11.402609      -11.402609   1.000000   1.000000
    121        -11.402607      -11.402607   1.000000   1.000000
    122        -11.402607      -11.402607   1.000000   1.000000
    123        -11.304589      -11.304589   1.000000   1.000000
    124        -11.304589      -11.304589   1.000000   1.000000
    125        -11.304589      -11.304589   1.000000   1.000000
    126        -11.304585      -11.304585   1.000000   1.000000
    127        -11.304585      -11.304585   1.000000   1.000000
    128        -11.304585      -11.304585   1.000000   1.000000
    129         -1.313665       -1.313665   1.000000   1.000000
    130         -1.313665       -1.313665   1.000000   1.000000
    131         -1.313651       -1.313651   1.000000   1.000000
    132         -1.253167       -1.253167   1.000000   1.000000
    133         -0.811519       -0.811519   1.000000   1.000000
    134         -0.811519       -0.811519   1.000000   1.000000
    135         -0.811519       -0.811519   1.000000   1.000000
    136         -0.792782       -0.792782   1.000000   1.000000
    137         -0.792782       -0.792782   1.000000   1.000000
    138         -0.792782       -0.792782   1.000000   1.000000
    139         -0.736209       -0.736209   1.000000   1.000000
    140         -0.736209       -0.736209   1.000000   1.000000
    141         -0.736209       -0.736209   1.000000   1.000000
    142         -0.736176       -0.736176   1.000000   1.000000
    143         -0.736176       -0.736176   1.000000   1.000000
    144         -0.736176       -0.736176   1.000000   1.000000
    145         -0.212577       -0.212577   1.000000   1.000000
    146         -0.212577       -0.212577   1.000000   1.000000
    147         -0.142135       -0.142135   1.000000   1.000000
    148         -0.142135       -0.142135   1.000000   1.000000
    149         -0.142053       -0.142053   1.000000   1.000000
    150         -0.110056       -0.110056   1.000000   1.000000
    151         -0.110056       -0.110056   1.000000   1.000000
    152         -0.110056       -0.110056   1.000000   1.000000
    153         -0.081747       -0.081747   1.000000   1.000000
    154         -0.081747       -0.081747   1.000000   1.000000
    155         -0.081747       -0.081747   1.000000   1.000000
    156         -0.045039       -0.045039   1.000000   1.000000
    157         -0.045026       -0.045026   1.000000   1.000000
    158         -0.045026       -0.045026   1.000000   1.000000
    159          0.051372        0.051372   1.000000   1.000000
    160          0.051372        0.051372   1.000000   1.000000
    161          0.051372        0.051372   1.000000   1.000000
    162          0.051374        0.051374   1.000000   1.000000
    163          0.051374        0.051374   1.000000   1.000000
    164          0.051374        0.051374   1.000000   1.000000
    165          0.261246        0.261246   1.000000   1.000000
    166          0.261246        0.261246   1.000000   1.000000
    167          0.261246        0.261246   1.000000   1.000000
    168          0.275739        0.275739   1.000000   1.000000
    169          0.275739        0.275739   1.000000   1.000000
    170          0.275739        0.275739   1.000000   1.000000
    171          0.357670        0.357670   1.000000   1.000000
    172          0.357670        0.357670   1.000000   1.000000
    173          0.357670        0.357670   1.000000   1.000000
    174          0.357680        0.357680   1.000000   1.000000
    175          0.357680        0.357680   1.000000   1.000000
    176          0.357680        0.357680   1.000000   1.000000
    177          0.460438        0.460438   1.000000   1.000000
    178          0.460438        0.460438   1.000000   1.000000
    179          0.460438        0.460438   1.000000   1.000000
    180          0.460472        0.460472   1.000000   1.000000
    181          0.460472        0.460472   1.000000   1.000000
    182          0.460472        0.460472   1.000000   1.000000
    183          0.541860        0.541860   1.000000   1.000000
    184          0.541863        0.541863   1.000000   1.000000
    185          0.541863        0.541863   1.000000   1.000000
    186          0.683979        0.683979   1.000000   1.000000
    187          0.683979        0.683979   1.000000   1.000000
    188          0.683979        0.683979   1.000000   1.000000
    189          0.683988        0.683988   1.000000   1.000000
    190          0.683988        0.683988   1.000000   1.000000
    191          0.683988        0.683988   1.000000   1.000000
    192          0.712558        0.712558   1.000000   1.000000
    193          0.712558        0.712558   1.000000   1.000000
    194          0.712558        0.712558   1.000000   1.000000
    195          0.848191        0.848191   1.000000   1.000000
    196          0.848191        0.848191   1.000000   1.000000
    197          0.848191        0.848191   1.000000   1.000000
    198          1.142149        1.142149   1.000000   1.000000
    199          1.142151        1.142151   1.000000   1.000000
    200          1.142151        1.142151   1.000000   1.000000
    201          1.178541        1.178541   1.000000   1.000000
    202          1.178541        1.178541   1.000000   1.000000
    203          1.178541        1.178541   1.000000   1.000000
    204          1.178546        1.178546   1.000000   1.000000
    205          1.178546        1.178546   1.000000   1.000000
    206          1.178546        1.178546   1.000000   1.000000
    207          1.507411        1.507411   1.000000   1.000000
    208          1.507411        1.507411   1.000000   1.000000
    209          1.507411        1.507411   1.000000   1.000000
    210          1.628458        1.628458   1.000000   1.000000
    211          1.628458        1.628458   1.000000   1.000000
    212          1.628458        1.628458   1.000000   1.000000
    213          1.633032        1.633032   1.000000   1.000000
    214          1.633032        1.633032   1.000000   1.000000
    215          1.635954        1.635954   1.000000   1.000000
    216          1.635954        1.635954   1.000000   1.000000
    217          1.635954        1.635954   1.000000   1.000000
    218          1.658925        1.658925   1.000000   1.000000
    219          1.658925        1.658925   1.000000   1.000000
    220          1.658925        1.658925   1.000000   1.000000
    221          1.830340        1.830340   1.000000   1.000000
    222          1.941876        1.941876   1.000000   1.000000
    223          1.941876        1.941876   1.000000   1.000000
    224          1.941876        1.941876   1.000000   1.000000
    225          2.041426        2.041426   1.000000   1.000000
    226          2.041426        2.041426   1.000000   1.000000
    227          2.041426        2.041426   1.000000   1.000000
    228          2.057858        2.057858   1.000000   1.000000
    229          2.057858        2.057858   1.000000   1.000000
    230          2.057858        2.057858   1.000000   1.000000
    231          2.242398        2.242398   1.000000   1.000000
    232          2.242398        2.242398   1.000000   1.000000
    233          2.242399        2.242399   1.000000   1.000000
    234          2.383665        2.383665   1.000000   1.000000
    235          2.383665        2.383665   1.000000   1.000000
    236          2.383665        2.383665   1.000000   1.000000
    237          2.383669        2.383669   1.000000   1.000000
    238          2.383669        2.383669   1.000000   1.000000
    239          2.383669        2.383669   1.000000   1.000000
    240          2.502880        2.502880   1.000000   1.000000
    241          2.502880        2.502880   1.000000   1.000000
    242          2.502880        2.502880   1.000000   1.000000
    243          2.502882        2.502882   1.000000   1.000000
    244          2.502882        2.502882   1.000000   1.000000
    245          2.502882        2.502882   1.000000   1.000000
    246          2.739044        2.739044   1.000000   1.000000
    247          2.739044        2.739044   1.000000   1.000000
    248          2.758712        2.758712   1.000000   1.000000
    249          2.758712        2.758712   1.000000   1.000000
    250          2.758712        2.758712   1.000000   1.000000
    251          2.840458        2.840458   1.000000   1.000000
    252          2.840458        2.840458   1.000000   1.000000
    253          2.840458        2.840458   1.000000   1.000000
    254          2.876565        2.876565   1.000000   1.000000
    255          2.876565        2.876565   1.000000   1.000000
    256          2.876565        2.876565   1.000000   1.000000
    257          2.968254        2.968254   1.000000   1.000000
    258          2.968254        2.968254   1.000000   1.000000
    259          2.968259        2.968259   1.000000   1.000000
    260          2.983584        2.983584   1.000000   1.000000
    261          2.983591        2.983591   1.000000   1.000000
    262          2.983591        2.983591   1.000000   1.000000
    263          3.036806        3.036806   1.000000   1.000000
    264          3.036806        3.036806   1.000000   1.000000
    265          3.036806        3.036806   1.000000   1.000000
    266          3.183795        3.183795   1.000000   1.000000
    267          3.183795        3.183795   1.000000   1.000000
    268          3.183795        3.183795   1.000000   1.000000
    269          3.183797        3.183797   1.000000   1.000000
    270          3.183797        3.183797   1.000000   1.000000
    271          3.183797        3.183797   1.000000   1.000000
    272          3.218463        3.218463   1.000000   1.000000
    273          3.218463        3.218463   1.000000   1.000000
    274          3.218463        3.218463   1.000000   1.000000
    275          3.505123        3.505123   1.000000   1.000000
    276          3.505126        3.505126   1.000000   1.000000
    277          3.505126        3.505126   1.000000   1.000000
    278          3.553723        3.553723   1.000000   1.000000
    279          3.553723        3.553723   1.000000   1.000000
    280          3.553723        3.553723   1.000000   1.000000
    281          3.553727        3.553727   1.000000   1.000000
    282          3.553727        3.553727   1.000000   1.000000
    283          3.553727        3.553727   1.000000   1.000000
    284          3.649089        3.649089   1.000000   1.000000
    285          3.649089        3.649089   1.000000   1.000000
    286          3.649089        3.649089   1.000000   1.000000
    287          3.649094        3.649094   1.000000   1.000000
    288          3.649094        3.649094   1.000000   1.000000
    289          3.649094        3.649094   1.000000   1.000000
    290          3.696770        3.696770   1.000000   1.000000
    291          3.696770        3.696770   1.000000   1.000000
    292          3.696770        3.696770   1.000000   1.000000
    293          3.710803        3.710803   1.000000   1.000000
    294          3.710803        3.710803   1.000000   1.000000
    295          3.710803        3.710803   1.000000   1.000000
    296          3.786669        3.786669   1.000000   1.000000
    297          3.945579        3.945579   1.000000   1.000000
    298          3.945579        3.945579   1.000000   1.000000
    299          3.945580        3.945580   1.000000   1.000000
    300          3.966990        3.966990   1.000000   1.000000
    301          3.966990        3.966990   1.000000   1.000000
    302          3.966990        3.966990   1.000000   1.000000
    303          3.967000        3.967000   1.000000   1.000000
    304          3.967000        3.967000   1.000000   1.000000
    305          3.967000        3.967000   1.000000   1.000000
    306          4.171350        4.171350   1.000000   1.000000
    307          4.171350        4.171350   1.000000   1.000000
    308          4.171350        4.171350   1.000000   1.000000
    309          4.211529        4.211529   1.000000   1.000000
    310          4.211529        4.211529   1.000000   1.000000
    311          4.211529        4.211529   1.000000   1.000000
    312          4.255348        4.255348   1.000000   1.000000
    313          4.255348        4.255348   1.000000   1.000000
    314          4.255348        4.255348   1.000000   1.000000
    315          4.342247        4.342247   1.000000   1.000000
    316          4.342247        4.342247   1.000000   1.000000
    317          4.342247        4.342247   1.000000   1.000000
    318          4.363697        4.363697   1.000000   1.000000
    319          4.395575        4.395575   1.000000   1.000000
    320          4.395575        4.395575   1.000000   1.000000
    321          4.446834        4.446834   1.000000   1.000000
    322          4.446834        4.446834   1.000000   1.000000
    323          4.446834        4.446834   1.000000   1.000000
    324          4.446838        4.446838   1.000000   1.000000
    325          4.446838        4.446838   1.000000   1.000000
    326          4.446838        4.446838   1.000000   1.000000
    327          4.615794        4.615794   1.000000   1.000000
    328          4.615794        4.615794   1.000000   1.000000
    329          4.615794        4.615794   1.000000   1.000000
    330          4.617898        4.617898   1.000000   1.000000
    331          4.617898        4.617898   1.000000   1.000000
    332          4.617898        4.617898   1.000000   1.000000
    333          4.706790        4.706790   1.000000   1.000000
    334          4.706790        4.706790   1.000000   1.000000
    335          4.706790        4.706790   1.000000   1.000000
    336          4.706790        4.706790   1.000000   1.000000
    337          4.706790        4.706790   1.000000   1.000000
    338          4.706790        4.706790   1.000000   1.000000
    339          4.811829        4.811829   1.000000   1.000000
    340          4.811829        4.811829   1.000000   1.000000
    341          4.811829        4.811829   1.000000   1.000000
    342          4.812239        4.812239   1.000000   1.000000
    343          4.812239        4.812239   1.000000   1.000000
    344          4.812239        4.812239   1.000000   1.000000
    345          4.888488        4.888488   1.000000   1.000000
    346          4.888490        4.888490   1.000000   1.000000
    347          4.888490        4.888490   1.000000   1.000000
    348          4.960368        4.960368   1.000000   1.000000
    349          4.960368        4.960368   1.000000   1.000000
    350          4.960376        4.960376   1.000000   1.000000
    351          4.982413        4.982413   1.000000   1.000000
    352          4.982413        4.982413   1.000000   1.000000
    353          9.114367        9.114367   0.000000   0.000000
    354          9.185791        9.185791   0.000000   0.000000
    355          9.185791        9.185791   0.000000   0.000000
    356          9.185791        9.185791   0.000000   0.000000
    357          9.190303        9.190303   0.000000   0.000000
    358          9.190303        9.190303   0.000000   0.000000
    359          9.190303        9.190303   0.000000   0.000000
    360          9.483760        9.483760   0.000000   0.000000
    361          9.483760        9.483760   0.000000   0.000000
    362          9.483760        9.483760   0.000000   0.000000
    363          9.483760        9.483760   0.000000   0.000000
    364          9.483760        9.483760   0.000000   0.000000
    365          9.483760        9.483760   0.000000   0.000000
    366          9.842627        9.842627   0.000000   0.000000
    367          9.842627        9.842627   0.000000   0.000000
    368          9.886751        9.886751   0.000000   0.000000
    369          9.886751        9.886751   0.000000   0.000000
    370          9.886751        9.886751   0.000000   0.000000
    371          9.935093        9.935093   0.000000   0.000000
    372          9.935093        9.935093   0.000000   0.000000
    373          9.935093        9.935093   0.000000   0.000000
    374         10.002047       10.002047   0.000000   0.000000
    375         10.002053       10.002053   0.000000   0.000000
    376         10.002053       10.002053   0.000000   0.000000
    377         10.100220       10.100220   0.000000   0.000000
    378         10.100220       10.100220   0.000000   0.000000
    379         10.100220       10.100220   0.000000   0.000000
    380         10.100221       10.100221   0.000000   0.000000
    381         10.100221       10.100221   0.000000   0.000000
    382         10.100221       10.100221   0.000000   0.000000
    383         10.113788       10.113788   0.000000   0.000000
    384         10.113788       10.113788   0.000000   0.000000
    385         10.113795       10.113795   0.000000   0.000000
    386         12.398887       12.398887   0.000000   0.000000
    387         12.398887       12.398887   0.000000   0.000000
    388         12.398887       12.398887   0.000000   0.000000
    389         12.715600       12.715600   0.000000   0.000000
    390         13.000730       13.000730   0.000000   0.000000
    391         13.000730       13.000730   0.000000   0.000000
    392         13.000730       13.000730   0.000000   0.000000
    393         13.364205       13.364205   0.000000   0.000000
    394         13.364205       13.364205   0.000000   0.000000
    395         13.364205       13.364205   0.000000   0.000000
    396         13.482208       13.482208   0.000000   0.000000
    397         13.482208       13.482208   0.000000   0.000000
    398         13.482224       13.482224   0.000000   0.000000
    399         13.578373       13.578373   0.000000   0.000000
    400         13.578373       13.578373   0.000000   0.000000
    401         13.578373       13.578373   0.000000   0.000000
    402         14.398034       14.398034   0.000000   0.000000
    403         14.398034       14.398034   0.000000   0.000000
    404         14.398034       14.398034   0.000000   0.000000
    405         14.398036       14.398036   0.000000   0.000000
    406         14.398036       14.398036   0.000000   0.000000
    407         14.398036       14.398036   0.000000   0.000000
    408         15.038529       15.038529   0.000000   0.000000
    409         15.038529       15.038529   0.000000   0.000000
    410         15.038529       15.038529   0.000000   0.000000
    411         15.707321       15.707321   0.000000   0.000000
    412         15.707321       15.707321   0.000000   0.000000
    413         15.707321       15.707321   0.000000   0.000000
    414         15.707325       15.707325   0.000000   0.000000
    415         15.707325       15.707325   0.000000   0.000000
    416         15.707325       15.707325   0.000000   0.000000
    417         17.166143       17.166143   0.000000   0.000000
    418         17.166143       17.166143   0.000000   0.000000
    419         17.166143       17.166143   0.000000   0.000000
    420         17.314591       17.314591   0.000000   0.000000
    421         17.314591       17.314591   0.000000   0.000000
    422         17.314593       17.314593   0.000000   0.000000
    423         17.406345       17.406345   0.000000   0.000000
    424         17.474923       17.474923   0.000000   0.000000
    425         17.474924       17.474924   0.000000   0.000000
    426         17.474925       17.474925   0.000000   0.000000
    427         17.474926       17.474926   0.000000   0.000000
    428         17.474928       17.474929   0.000000   0.000000
    429         17.474933       17.474933   0.000000   0.000000
    430         17.713905       17.713907   0.000000   0.000000
    431         17.713912       17.713916   0.000000   0.000000
    432         17.714900       17.714962   0.000000   0.000000
    433         17.716597       17.715374   0.000000   0.000000
    434         17.719716       17.718650   0.000000   0.000000
    435         17.723290       17.729158   0.000000   0.000000
    436         17.814471       17.814497   0.000000   0.000000
    437         17.814500       17.814616   0.000000   0.000000
    438         17.817465       17.818800   0.000000   0.000000
    439         17.835180       17.838798   0.000000   0.000000
    440         17.874646       17.890218   0.000000   0.000000
 
 -0.1250000E+00  0.1250000E+00  0.1250000E+00  0.9375000E-01
      1        -58.227703      -58.227703   1.000000   1.000000
      2        -58.227702      -58.227702   1.000000   1.000000
      3        -58.227370      -58.227370   1.000000   1.000000
      4        -58.224638      -58.224638   1.000000   1.000000
      5        -58.224638      -58.224638   1.000000   1.000000
      6        -58.224337      -58.224337   1.000000   1.000000
      7        -58.224337      -58.224337   1.000000   1.000000
      8        -58.223156      -58.223156   1.000000   1.000000
      9        -58.223156      -58.223156   1.000000   1.000000
     10        -58.221428      -58.221428   1.000000   1.000000
     11        -58.221038      -58.221038   1.000000   1.000000
     12        -58.219757      -58.219757   1.000000   1.000000
     13        -58.219581      -58.219581   1.000000   1.000000
     14        -58.219581      -58.219581   1.000000   1.000000
     15        -58.219573      -58.219573   1.000000   1.000000
     16        -58.219573      -58.219573   1.000000   1.000000
     17        -58.218829      -58.218829   1.000000   1.000000
     18        -58.218786      -58.218786   1.000000   1.000000
     19        -58.218786      -58.218786   1.000000   1.000000
     20        -58.218652      -58.218652   1.000000   1.000000
     21        -58.218404      -58.218404   1.000000   1.000000
     22        -58.218403      -58.218403   1.000000   1.000000
     23        -58.217966      -58.217966   1.000000   1.000000