 vasp.6.4.2 20Jul23 (build Jan 24 2024 16:42:28) complex                        
  
 executed on             LinuxIFC date 2024.09.17  05:37:59
 running   20 mpi-ranks, with    1 threads/rank, on    1 nodes
 distrk:  each k-point on   20 cores,    1 groups
 distr:  one band on NCORE=   1 cores,   20 groups


--------------------------------------------------------------------------------------------------------


 INCAR:
   SYSTEM = bulk_NiO
   ISTART = 0
   ICHARG = 2
   ISMEAR = 0
   SIGMA = 0.05
   ENCUT = 400
   IBRION = -1
   ISPIN = 2
   MAGMOM = 3 -3 -3 3 -3 3 3 -3 -3 3 3 -3 3 -3 -3 3 -3 3 3 -3 3 -3 -3 3 -3 3 3 -3 3 -3 -3 3 32*0
   NSW = 0
   EDIFF = 0.1E-06
   NELM = 180
   EDIFFG = -0.001
   PREC = Accurate
   ALGO = Normal
   LORBIT = 11
   LCHARG = .TRUE.
   LWAVE = .TRUE.
   LREAL = Auto
   LDAU = .TRUE.
   LDAUTYPE = 2
   LDAUL = 2 0
   LDAUU = 6.2 0
   LDAUJ = 0 0
   LMAXMIX = 4
   LDAUPRINT = 0

 POTCAR:    PAW_PBE Ni_pv 06Sep2000               
 POTCAR:    PAW_PBE O 08Apr2002                   
 POTCAR:    PAW_PBE Ni_pv 06Sep2000               
   VRHFIN =Ni:                                                                                      
   LEXCH  = PE                                                                                      
   EATOM  =  3501.1230 eV,  257.3253 Ry                                                             
                                                                                                    
   TITEL  = PAW_PBE Ni_pv 06Sep2000                                                                 
   LULTRA =        F    use ultrasoft PP ?                                                          
   IUNSCR =        1    unscreen: 0-lin 1-nonlin 2-no                                               
   RPACOR =    1.500    partial core radius                                                         
   POMASS =   58.690; ZVAL   =   16.000    mass and valenz                                          
   RCORE  =    2.000    outmost cutoff radius                                                       
   RWIGS  =    2.000; RWIGS  =    1.058    wigner-seitz radius (au A)                               
   ENMAX  =  367.986; ENMIN  =  275.989 eV                                                          
   RCLOC  =    1.301    cutoff for local pot                                                        
   LCOR   =        T    correct aug charges                                                         
   LPAW   =        T    paw PP                                                                      
   EAUG   =  703.443                                                                                
   DEXC   =    0.000                                                                                
   RMAX   =    2.041    core radius for proj-oper                                                   
   RAUG   =    1.300    factor for augmentation sphere                                              
   RDEP   =    2.103    radius for radial grids                                                     
   RDEPT  =    1.618    core radius for aug-charge                                                  
                                                                                                    
   Atomic configuration                                                                             
    8 entries                                                                                       
     n  l   j            E        occ.                                                              
     1  0  0.50     -8206.4253   2.0000                                                             
     2  0  0.50      -976.1748   2.0000                                                             
     2  1  1.50      -839.0571   6.0000                                                             
     3  0  0.50      -105.9991   2.0000                                                             
     3  1  1.50       -66.4603   6.0000                                                             
     3  2  2.50        -4.6458   9.0000                                                             
     4  0  0.50        -4.4926   1.0000                                                             
     4  3  2.50        -1.3606   0.0000                                                             
   Description                                                                                      
     l       E           TYP  RCUT    TYP  RCUT                                                     
     1    -66.4602962     23  1.700                                                                 
     1     -1.3605826     23  1.700                                                                 
     2     -4.6457867     23  2.000                                                                 
     2     -6.0063693     23  2.000                                                                 
     0     -4.4925576     23  1.900                                                                 
     0     16.3626226     23  1.900                                                                 
  local pseudopotential read in
  partial core-charges read in
  partial kinetic energy density read in
  atomic valenz-charges read in
  non local Contribution for L=           1  read in
    real space projection operators read in
  non local Contribution for L=           1  read in
    real space projection operators read in
  non local Contribution for L=           2  read in
    real space projection operators read in
  non local Contribution for L=           2  read in
    real space projection operators read in
  non local Contribution for L=           0  read in
    real space projection operators read in
  non local Contribution for L=           0  read in
    real space projection operators read in
    PAW grid and wavefunctions read in
 
   number of l-projection  operators is LMAX  =           6
   number of lm-projection operators is LMMAX =          18
 
 POTCAR:    PAW_PBE O 08Apr2002                   
   VRHFIN =O: s2p4                                                                                  
   LEXCH  = PE                                                                                      
   EATOM  =   432.3788 eV,   31.7789 Ry                                                             
                                                                                                    
   TITEL  = PAW_PBE O 08Apr2002                                                                     
   LULTRA =        F    use ultrasoft PP ?                                                          
   IUNSCR =        1    unscreen: 0-lin 1-nonlin 2-no                                               
   RPACOR =    1.200    partial core radius                                                         
   POMASS =   16.000; ZVAL   =    6.000    mass and valenz                                          
   RCORE  =    1.520    outmost cutoff radius                                                       
   RWIGS  =    1.550; RWIGS  =    0.820    wigner-seitz radius (au A)                               
   ENMAX  =  400.000; ENMIN  =  300.000 eV                                                          
   ICORE  =        2    local potential                                                             
   LCOR   =        T    correct aug charges                                                         
   LPAW   =        T    paw PP                                                                      
   EAUG   =  605.392                                                                                
   DEXC   =    0.000                                                                                
   RMAX   =    1.553    core radius for proj-oper                                                   
   RAUG   =    1.300    factor for augmentation sphere                                              
   RDEP   =    1.550    radius for radial grids                                                     
   RDEPT  =    1.329    core radius for aug-charge                                                  
                                                                                                    
   Atomic configuration                                                                             
    4 entries                                                                                       
     n  l   j            E        occ.                                                              
     1  0  0.50      -514.6923   2.0000                                                             
     2  0  0.50       -23.9615   2.0000                                                             
     2  1  0.50        -9.0305   4.0000                                                             
     3  2  1.50        -9.5241   0.0000                                                             
   Description                                                                                      
     l       E           TYP  RCUT    TYP  RCUT                                                     
     0    -23.9615318     23  1.200                                                                 
     0     -9.5240782     23  1.200                                                                 
     1     -9.0304911     23  1.520                                                                 
     1      8.1634956     23  1.520                                                                 
     2     -9.5240782      7  1.500                                                                 
  local pseudopotential read in
  partial core-charges read in
  partial kinetic energy density read in
  kinetic energy density of atom read in
  atomic valenz-charges read in
  non local Contribution for L=           0  read in
    real space projection operators read in
  non local Contribution for L=           0  read in
    real space projection operators read in
  non local Contribution for L=           1  read in
    real space projection operators read in
  non local Contribution for L=           1  read in
    real space projection operators read in
    PAW grid and wavefunctions read in
 
   number of l-projection  operators is LMAX  =           4
   number of lm-projection operators is LMMAX =           8
 
 Optimization of the real space projectors (new method)

 maximal supplied QI-value         = 18.90
 optimisation between [QCUT,QGAM] = [ 10.20, 20.41] = [ 29.16,116.64] Ry 
 Optimized for a Real-space Cutoff    1.38 Angstroem

   l    n(q)    QCUT    max X(q) W(low)/X(q) W(high)/X(q)  e(spline) 
   1      8    10.205     2.836    0.91E-04    0.41E-04    0.14E-06
   1      8    10.205     4.023    0.14E-03    0.20E-04    0.30E-06
   2      7    10.205    73.368    0.17E-03    0.41E-03    0.36E-06
   2      7    10.205    69.010    0.17E-03    0.42E-03    0.37E-06
   0      8    10.205    54.797    0.81E-04    0.42E-04    0.70E-07
   0      8    10.205    24.266    0.72E-04    0.35E-04    0.64E-07
 Optimization of the real space projectors (new method)

 maximal supplied QI-value         = 24.76
 optimisation between [QCUT,QGAM] = [ 10.15, 20.30] = [ 28.85,115.39] Ry 
 Optimized for a Real-space Cutoff    1.51 Angstroem

   l    n(q)    QCUT    max X(q) W(low)/X(q) W(high)/X(q)  e(spline) 
   0      9    10.150    20.381    0.17E-03    0.18E-03    0.41E-06
   0      9    10.150    15.268    0.18E-03    0.20E-03    0.43E-06
   1      9    10.150     5.964    0.16E-03    0.20E-03    0.36E-06
   1      9    10.150     5.382    0.13E-03    0.16E-03    0.33E-06
  PAW_PBE Ni_pv 06Sep2000               :
 energy of atom  1       EATOM=-3501.1230
 kinetic energy error for atom=    0.1021 (will be added to EATOM!!)
  PAW_PBE O 08Apr2002                   :
 energy of atom  2       EATOM= -432.3788
 kinetic energy error for atom=    0.1156 (will be added to EATOM!!)
 
 
 POSCAR: Ni4 O4
  positions in direct lattice
  No initial velocities read in
 exchange correlation table for  LEXCH =        8
   RHO(1)=    0.500       N(1)  =     2000
   RHO(2)=  100.500       N(2)  =     4000
 


--------------------------------------------------------------------------------------------------------


 ion  position               nearest neighbor table
   1  0.000  0.000  0.000-  33 2.09  37 2.09  49 2.09  50 2.09  57 2.09  59 2.09
   2  0.000  0.000  0.500-  34 2.09  38 2.09  49 2.09  50 2.09  58 2.09  60 2.09
   3  0.000  0.500  0.000-  35 2.09  39 2.09  51 2.09  52 2.09  57 2.09  59 2.09
   4  0.000  0.500  0.500-  36 2.09  40 2.09  51 2.09  52 2.09  58 2.09  60 2.09
   5  0.500  0.000  0.000-  33 2.09  37 2.09  53 2.09  54 2.09  61 2.09  63 2.09
   6  0.500  0.000  0.500-  34 2.09  38 2.09  53 2.09  54 2.09  62 2.09  64 2.09
   7  0.500  0.500  0.000-  35 2.09  39 2.09  55 2.09  56 2.09  61 2.09  63 2.09
   8  0.500  0.500  0.500-  36 2.09  40 2.09  55 2.09  56 2.09  62 2.09  64 2.09
   9  0.000  0.250  0.250-  41 2.09  45 2.09  49 2.09  51 2.09  57 2.09  58 2.09
  10  0.000  0.250  0.750-  42 2.09  46 2.09  50 2.09  52 2.09  57 2.09  58 2.09
  11  0.000  0.750  0.250-  43 2.09  47 2.09  49 2.09  51 2.09  59 2.09  60 2.09
  12  0.000  0.750  0.750-  44 2.09  48 2.09  50 2.09  52 2.09  59 2.09  60 2.09
  13  0.500  0.250  0.250-  41 2.09  45 2.09  53 2.09  55 2.09  61 2.09  62 2.09
  14  0.500  0.250  0.750-  42 2.09  46 2.09  54 2.09  56 2.09  61 2.09  62 2.09
  15  0.500  0.750  0.250-  43 2.09  47 2.09  53 2.09  55 2.09  63 2.09  64 2.09
  16  0.500  0.750  0.750-  44 2.09  48 2.09  54 2.09  56 2.09  63 2.09  64 2.09
  17  0.250  0.000  0.250-  33 2.09  34 2.09  41 2.09  43 2.09  49 2.09  53 2.09
  18  0.250  0.000  0.750-  33 2.09  34 2.09  42 2.09  44 2.09  50 2.09  54 2.09
  19  0.250  0.500  0.250-  35 2.09  36 2.09  41 2.09  43 2.09  51 2.09  55 2.09
  20  0.250  0.500  0.750-  35 2.09  36 2.09  42 2.09  44 2.09  52 2.09  56 2.09
  21  0.750  0.000  0.250-  37 2.09  38 2.09  45 2.09  47 2.09  49 2.09  53 2.09
  22  0.750  0.000  0.750-  37 2.09  38 2.09  46 2.09  48 2.09  50 2.09  54 2.09
  23  0.750  0.500  0.250-  39 2.09  40 2.09  45 2.09  47 2.09  51 2.09  55 2.09
  24  0.750  0.500  0.750-  39 2.09  40 2.09  46 2.09  48 2.09  52 2.09  56 2.09
  25  0.250  0.250  0.000-  33 2.09  35 2.09  41 2.09  42 2.09  57 2.09  61 2.09
  26  0.250  0.250  0.500-  34 2.09  36 2.09  41 2.09  42 2.09  58 2.09  62 2.09
  27  0.250  0.750  0.000-  33 2.09  35 2.09  43 2.09  44 2.09  59 2.09  63 2.09
  28  0.250  0.750  0.500-  34 2.09  36 2.09  43 2.09  44 2.09  60 2.09  64 2.09
  29  0.750  0.250  0.000-  37 2.09  39 2.09  45 2.09  46 2.09  57 2.09  61 2.09
  30  0.750  0.250  0.500-  38 2.09  40 2.09  45 2.09  46 2.09  58 2.09  62 2.09
  31  0.750  0.750  0.000-  37 2.09  39 2.09  47 2.09  48 2.09  59 2.09  63 2.09
  32  0.750  0.750  0.500-  38 2.09  40 2.09  47 2.09  48 2.09  60 2.09  64 2.09
  33  0.250  0.000  0.000-   1 2.09   5 2.09  17 2.09  18 2.09  25 2.09  27 2.09
  34  0.250  0.000  0.500-   2 2.09   6 2.09  17 2.09  18 2.09  26 2.09  28 2.09
  35  0.250  0.500  0.000-   3 2.09   7 2.09  19 2.09  20 2.09  25 2.09  27 2.09
  36  0.250  0.500  0.500-   4 2.09   8 2.09  19 2.09  20 2.09  26 2.09  28 2.09
  37  0.750  0.000  0.000-   1 2.09   5 2.09  21 2.09  22 2.09  29 2.09  31 2.09
  38  0.750  0.000  0.500-   2 2.09   6 2.09  21 2.09  22 2.09  30 2.09  32 2.09
  39  0.750  0.500  0.000-   3 2.09   7 2.09  23 2.09  24 2.09  29 2.09  31 2.09
  40  0.750  0.500  0.500-   4 2.09   8 2.09  23 2.09  24 2.09  30 2.09  32 2.09
  41  0.250  0.250  0.250-   9 2.09  13 2.09  17 2.09  19 2.09  25 2.09  26 2.09
  42  0.250  0.250  0.750-  10 2.09  14 2.09  18 2.09  20 2.09  25 2.09  26 2.09
  43  0.250  0.750  0.250-  11 2.09  15 2.09  17 2.09  19 2.09  27 2.09  28 2.09
  44  0.250  0.750  0.750-  12 2.09  16 2.09  18 2.09  20 2.09  27 2.09  28 2.09
  45  0.750  0.250  0.250-   9 2.09  13 2.09  21 2.09  23 2.09  29 2.09  30 2.09
  46  0.750  0.250  0.750-  10 2.09  14 2.09  22 2.09  24 2.09  29 2.09  30 2.09
  47  0.750  0.750  0.250-  11 2.09  15 2.09  21 2.09  23 2.09  31 2.09  32 2.09
  48  0.750  0.750  0.750-  12 2.09  16 2.09  22 2.09  24 2.09  31 2.09  32 2.09
  49  0.000  0.000  0.250-   1 2.09   2 2.09   9 2.09  11 2.09  17 2.09  21 2.09
  50  0.000  0.000  0.750-   1 2.09   2 2.09  10 2.09  12 2.09  18 2.09  22 2.09
  51  0.000  0.500  0.250-   3 2.09   4 2.09   9 2.09  11 2.09  19 2.09  23 2.09
  52  0.000  0.500  0.750-   3 2.09   4 2.09  10 2.09  12 2.09  20 2.09  24 2.09
  53  0.500  0.000  0.250-   5 2.09   6 2.09  13 2.09  15 2.09  17 2.09  21 2.09
  54  0.500  0.000  0.750-   5 2.09   6 2.09  14 2.09  16 2.09  18 2.09  22 2.09
  55  0.500  0.500  0.250-   7 2.09   8 2.09  13 2.09  15 2.09  19 2.09  23 2.09
  56  0.500  0.500  0.750-   7 2.09   8 2.09  14 2.09  16 2.09  20 2.09  24 2.09
  57  0.000  0.250  0.000-   1 2.09   3 2.09   9 2.09  10 2.09  25 2.09  29 2.09
  58  0.000  0.250  0.500-   2 2.09   4 2.09   9 2.09  10 2.09  26 2.09  30 2.09
  59  0.000  0.750  0.000-   1 2.09   3 2.09  11 2.09  12 2.09  27 2.09  31 2.09
  60  0.000  0.750  0.500-   2 2.09   4 2.09  11 2.09  12 2.09  28 2.09  32 2.09
  61  0.500  0.250  0.000-   5 2.09   7 2.09  13 2.09  14 2.09  25 2.09  29 2.09
  62  0.500  0.250  0.500-   6 2.09   8 2.09  13 2.09  14 2.09  26 2.09  30 2.09
  63  0.500  0.750  0.000-   5 2.09   7 2.09  15 2.09  16 2.09  27 2.09  31 2.09
  64  0.500  0.750  0.500-   6 2.09   8 2.09  15 2.09  16 2.09  28 2.09  32 2.09
 
  LATTYP: Found a simple cubic cell.
 ALAT       =     8.3520002365
  
  Lattice vectors:
  
 A1 = (   8.3520002365,   0.0000000000,   0.0000000000)
 A2 = (   0.0000000000,   8.3520002365,   0.0000000000)
 A3 = (   0.0000000000,   0.0000000000,   8.3520002365)


Analysis of symmetry for initial positions (statically):
=====================================================================
 Subroutine PRICEL returns following result:
 
  LATTYP: Found a face centered cubic cell.
 ALAT       =     4.1760001183
  
  Lattice vectors:
  
 A1 = (   2.0880000591,  -2.0880000591,   0.0000000000)
 A2 = (   2.0880000591,   0.0000000000,   2.0880000591)
 A3 = (   0.0000000000,  -2.0880000591,   2.0880000591)
 
  32 primitive cells build up your supercell.
 

 Routine SETGRP: Setting up the symmetry group for a 
 simple cubic supercell.


 Subroutine GETGRP returns: Found 48 space group operations
 (whereof 48 operations were pure point group operations)
 out of a pool of 48 trial point group operations.


The static configuration has the point symmetry O_h .


Analysis of symmetry for dynamics (positions and initial velocities):
=====================================================================
 Subroutine PRICEL returns following result:
 
  LATTYP: Found a face centered cubic cell.
 ALAT       =     4.1760001183
  
  Lattice vectors:
  
 A1 = (   2.0880000591,  -2.0880000591,   0.0000000000)
 A2 = (   2.0880000591,   0.0000000000,   2.0880000591)
 A3 = (   0.0000000000,  -2.0880000591,   2.0880000591)
 
  32 primitive cells build up your supercell.
 

 Routine SETGRP: Setting up the symmetry group for a 
 simple cubic supercell.


 Subroutine GETGRP returns: Found 48 space group operations
 (whereof 48 operations were pure point group operations)
 out of a pool of 48 trial point group operations.


The dynamic configuration has the point symmetry O_h .


Analysis of structural, dynamic, and magnetic symmetry:
=====================================================================
 Subroutine PRICEL returns following result:
 
  LATTYP: Found a face centered cubic cell.
 ALAT       =     4.1760001183
  
  Lattice vectors:
  
 A1 = (   2.0880000591,  -2.0880000591,   0.0000000000)
 A2 = (   2.0880000591,   0.0000000000,   2.0880000591)
 A3 = (   0.0000000000,  -2.0880000591,   2.0880000591)
 
  32 primitive cells build up your supercell.
 

 Routine SETGRP: Setting up the symmetry group for a 
 simple cubic supercell.


 Subroutine GETGRP returns: Found 12 space group operations
 (whereof 12 operations were pure point group operations)
 out of a pool of 48 trial point group operations.


The overall configuration has the point symmetry D_3d.


 Subroutine INISYM returns: Found 12 space group operations
 (whereof 12 operations are pure point group operations),
 and found    32 'primitive' translations


----------------------------------------------------------------------------------------

                                     Primitive cell                                     

  volume of cell :      18.2063

  direct lattice vectors                    reciprocal lattice vectors
     2.088000059 -2.088000059  0.000000000     0.239463595 -0.239463595 -0.239463595
     2.088000059  0.000000000  2.088000059     0.239463595  0.239463595  0.239463595
     0.000000000 -2.088000059  2.088000059    -0.239463595 -0.239463595  0.239463595

  length of vectors
     2.952878002  2.952878002  2.952878002     0.414763113  0.414763113  0.414763113

  position of ions in fractional coordinates (direct lattice)
     0.000000000  0.000000000  0.000000000
     0.500000000  0.500000000  0.500000000

  ion indices of the primitive-cell ions
   primitive index   ion index
                 1           1
                 2          33

----------------------------------------------------------------------------------------

 
 
 KPOINTS: K-Points                                

Automatic generation of k-mesh.
 Grid dimensions read from file:
 generate k-points for:    4    4    4

 Generating k-lattice:

  Cartesian coordinates                     Fractional coordinates (reciprocal lattice)
     0.029932949  0.000000000  0.000000000     0.250000000  0.000000000  0.000000000
     0.000000000  0.029932949  0.000000000     0.000000000  0.250000000  0.000000000
     0.000000000  0.000000000  0.029932949     0.000000000  0.000000000  0.250000000

  Length of vectors
     0.029932949  0.029932949  0.029932949

  Shift w.r.t. Gamma in fractional coordinates (k-lattice)
     0.500000000  0.500000000  0.500000000

 
 Subroutine IBZKPT returns following result:
 ===========================================
 
 Found     10 irreducible k-points:
 
 Following reciprocal coordinates:
            Coordinates               Weight
  0.125000  0.125000  0.125000      2.000000
 -0.125000  0.125000  0.125000      6.000000
  0.375000  0.125000  0.125000      6.000000
 -0.125000  0.375000  0.125000     12.000000
 -0.375000  0.125000  0.125000      6.000000
  0.375000  0.375000  0.125000      6.000000
 -0.375000  0.375000  0.125000     12.000000
 -0.125000  0.375000  0.375000      6.000000
  0.375000  0.375000  0.375000      2.000000
 -0.375000  0.375000  0.375000      6.000000
 
 Following cartesian coordinates:
            Coordinates               Weight
  0.014966  0.014966  0.014966      2.000000
 -0.014966  0.014966  0.014966      6.000000
  0.044899  0.014966  0.014966      6.000000
 -0.014966  0.044899  0.014966     12.000000
 -0.044899  0.014966  0.014966      6.000000
  0.044899  0.044899  0.014966      6.000000
 -0.044899  0.044899  0.014966     12.000000
 -0.014966  0.044899  0.044899      6.000000
  0.044899  0.044899  0.044899      2.000000
 -0.044899  0.044899  0.044899      6.000000
 


--------------------------------------------------------------------------------------------------------




 Dimension of arrays:
   k-points           NKPTS =     10   k-points in BZ     NKDIM =     10   number of bands    NBANDS=    440
   number of dos      NEDOS =    301   number of ions     NIONS =     64
   non local maximal  LDIM  =      6   non local SUM 2l+1 LMDIM =     18
   total plane-waves  NPLWV = 157464
   max r-space proj   IRMAX =   3936   max aug-charges    IRDMAX=   6166
   dimension x,y,z NGX =    54 NGY =   54 NGZ =   54
   dimension x,y,z NGXF=   108 NGYF=  108 NGZF=  108
   support grid    NGXF=   108 NGYF=  108 NGZF=  108
   ions per type =              32  32
   NGX,Y,Z   is equivalent  to a cutoff of  10.75, 10.75, 10.75 a.u.
   NGXF,Y,Z  is equivalent  to a cutoff of  21.50, 21.50, 21.50 a.u.

 SYSTEM =  bulk_NiO                                
 POSCAR =  Ni4 O4                                  

 Startparameter for this run:
   NWRITE =      2    write-flag & timer
   PREC   = accura    normal or accurate (medium, high low for compatibility)
   ISTART =      0    job   : 0-new  1-cont  2-samecut
   ICHARG =      2    charge: 1-file 2-atom 10-const
   ISPIN  =      2    spin polarized calculation?
   LNONCOLLINEAR =      F non collinear calculations
   LSORBIT =      F    spin-orbit coupling
   INIWAV =      1    electr: 0-lowe 1-rand  2-diag
   LASPH  =      F    aspherical Exc in radial PAW
 Electronic Relaxation 1
   ENCUT  =  400.0 eV  29.40 Ry    5.42 a.u.  13.62 13.62 13.62*2*pi/ulx,y,z
   ENINI  =  400.0     initial cutoff
   ENAUG  =  703.4 eV  augmentation charge cutoff
   NELM   =    180;   NELMIN=  2; NELMDL= -5     # of ELM steps 
   EDIFF  = 0.1E-06   stopping-criterion for ELM
   LREAL  =      T    real-space projection
   NLSPLINE    = F    spline interpolate recip. space projectors
   LCOMPAT=      F    compatible to vasp.4.4
   GGA_COMPAT  = T    GGA compatible to vasp.4.4-vasp.4.6
   LMAXPAW     = -100 max onsite density
   LMAXMIX     =    4 max onsite mixed and CHGCAR
   VOSKOWN=      0    Vosko Wilk Nusair interpolation
   ROPT   =   -0.00025  -0.00025
 Ionic relaxation
   EDIFFG = -.1E-02   stopping-criterion for IOM
   NSW    =      0    number of steps for IOM
   NBLOCK =      1;   KBLOCK =      1    inner block; outer block 
   IBRION =     -1    ionic relax: 0-MD 1-quasi-New 2-CG
   NFREE  =      0    steps in history (QN), initial steepest desc. (CG)
   ISIF   =      2    stress and relaxation
   IWAVPR =     10    prediction:  0-non 1-charg 2-wave 3-comb
   ISYM   =      2    0-nonsym 1-usesym 2-fastsym
   LCORR  =      T    Harris-Foulkes like correction to forces

   POTIM  = 0.5000    time-step for ionic-motion
   TEIN   =    0.0    initial temperature
   TEBEG  =    0.0;   TEEND  =   0.0 temperature during run
   SMASS  =  -3.00    Nose mass-parameter (am)
   estimated Nose-frequenzy (Omega)   =  0.10E-29 period in steps = 0.13E+47 mass=  -0.159E-26a.u.
   SCALEE = 1.0000    scale energy and forces
   NPACO  =    256;   APACO  = 10.0  distance and # of slots for P.C.
   PSTRESS=    0.0 pullay stress

  Mass of Ions in am
   POMASS =  58.69 16.00
  Ionic Valenz
   ZVAL   =  16.00  6.00
  Atomic Wigner-Seitz radii
   RWIGS  =  -1.00 -1.00
  virtual crystal weights 
   VCA    =   1.00  1.00
   NELECT =     704.0000    total number of electrons
   NUPDOWN=      -1.0000    fix difference up-down

 DOS related values:
   EMIN   =  10.00;   EMAX   =-10.00  energy-range for DOS
   EFERMI =   0.00;   METHOD = LEGACY      
   ISMEAR =     0;   SIGMA  =   0.05  broadening in eV -4-tet -1-fermi 0-gaus

 Electronic relaxation 2 (details)
   IALGO  =     38    algorithm
   LDIAG  =      T    sub-space diagonalisation (order eigenvalues)
   LSUBROT=      F    optimize rotation matrix (better conditioning)
   TURBO    =      0    0=normal 1=particle mesh
   IRESTART =      0    0=no restart 2=restart with 2 vectors
   NREBOOT  =      0    no. of reboots
   NMIN     =      0    reboot dimension
   EREF     =   0.00    reference energy to select bands
   IMIX   =      4    mixing-type and parameters
     AMIX     =   0.40;   BMIX     =  1.00
     AMIX_MAG =   1.60;   BMIX_MAG =  1.00
     AMIN     =   0.10
     WC   =   100.;   INIMIX=   1;  MIXPRE=   1;  MAXMIX= -45

 Intra band minimization:
   WEIMIN = 0.0000     energy-eigenvalue tresh-hold
   EBREAK =  0.57E-10  absolut break condition
   DEPER  =   0.30     relativ break condition  

   TIME   =   0.40     timestep for ELM

  volume/ion in A,a.u.               =       9.10        61.43
  Fermi-wavevector in a.u.,A,eV,Ry     =   1.743714  3.295141 41.369031  3.040538
  Thomas-Fermi vector in A             =   2.815733
 
 Write flags
   LWAVE        =      T    write WAVECAR
   LDOWNSAMPLE  =      F    k-point downsampling of WAVECAR
   LCHARG       =      T    write CHGCAR
   LVTOT        =      F    write LOCPOT, total local potential
   LVHAR        =      F    write LOCPOT, Hartree potential only
   LELF         =      F    write electronic localiz. function (ELF)
   LORBIT       =     11    0 simple, 1 ext, 2 COOP (PROOUT), +10 PAW based schemes


 Dipole corrections
   LMONO  =      F    monopole corrections only (constant potential shift)
   LDIPOL =      F    correct potential (dipole corrections)
   IDIPOL =      0    1-x, 2-y, 3-z, 4-all directions 
   EPSILON=  1.0000000 bulk dielectric constant

 LDA+U is selected, type is set to LDAUTYPE =  2
   angular momentum for each species LDAUL =     2    0
   U (eV)           for each species LDAUU =   6.2  0.0
   J (eV)           for each species LDAUJ =   0.0  0.0
 Exchange correlation treatment:
   GGA     =    --    GGA type
   LEXCH   =     8    internal setting for exchange type
   LIBXC   =     F    Libxc                    
   VOSKOWN =     0    Vosko Wilk Nusair interpolation
   LHFCALC =     F    Hartree Fock is set to
   LHFONE  =     F    Hartree Fock one center treatment
   AEXX    =    0.0000 exact exchange contribution

 Linear response parameters
   LEPSILON=     F    determine dielectric tensor
   LRPA    =     F    only Hartree local field effects (RPA)
   LNABLA  =     F    use nabla operator in PAW spheres
   LVEL    =     F    velocity operator in full k-point grid
   CSHIFT  =0.1000    complex shift for real part using Kramers Kronig
   OMEGAMAX=  -1.0    maximum frequency
   DEG_THRESHOLD= 0.2000000E-02 threshold for treating states as degnerate
   RTIME   =   -0.100 relaxation time in fs
  (WPLASMAI=    0.000 imaginary part of plasma frequency in eV, 0.658/RTIME)
   DFIELD  = 0.0000000 0.0000000 0.0000000 field for delta impulse in time
 
  Optional k-point grid parameters
   LKPOINTS_OPT  =     F    use optional k-point grid
   KPOINTS_OPT_MODE=     1    mode for optional k-point grid
 
 Orbital magnetization related:
   ORBITALMAG=     F  switch on orbital magnetization
   LCHIMAG   =     F  perturbation theory with respect to B field
   DQ        =  0.001000  dq finite difference perturbation B field
   LLRAUG    =     F  two centre corrections for induced B field
   LBONE     =     F  B-component reconstruction in AE one-centre
   LVGVCALC  =     T  calculate vGv susceptibility
   LVGVAPPL  =     F  apply vGv susceptibility instead of pGv for G=0

 Random number generation:
   RANDOM_GENERATOR = DEFAULT
   PCG_SEED         = not used


--------------------------------------------------------------------------------------------------------


 Static calculation
 charge density and potential will be updated during run
 spin polarized calculation
 Variant of blocked Davidson
 Davidson routine will perform the subspace rotation
 perform sub-space diagonalisation
    after iterative eigenvector-optimisation
 modified Broyden-mixing scheme, WC =      100.0
 initial mixing is a Kerker type mixing with AMIX =  0.4000 and BMIX =      1.0000
 Hartree-type preconditioning will be used
 using additional bands           88
 real space projection scheme for non local part
 use partial core corrections
 calculate Harris-corrections to forces 
   (improved forces if not selfconsistent)
 use gradient corrections 
 use of overlap-Matrix (Vanderbilt PP)
 Gauss-broadening in eV      SIGMA  =   0.05


--------------------------------------------------------------------------------------------------------


  energy-cutoff  :      400.00
  volume of cell :      582.60
      direct lattice vectors                 reciprocal lattice vectors
     8.352000237  0.000000000  0.000000000     0.119731797  0.000000000  0.000000000
     0.000000000  8.352000237  0.000000000     0.000000000  0.119731797  0.000000000
     0.000000000  0.000000000  8.352000237     0.000000000  0.000000000  0.119731797

  length of vectors
     8.352000237  8.352000237  8.352000237     0.119731797  0.119731797  0.119731797


 
 k-points in units of 2pi/SCALE and weight: K-Points                                
   0.01496647  0.01496647  0.01496647       0.031
  -0.01496647  0.01496647  0.01496647       0.094
   0.04489942  0.01496647  0.01496647       0.094
  -0.01496647  0.04489942  0.01496647       0.188
  -0.04489942  0.01496647  0.01496647       0.094
   0.04489942  0.04489942  0.01496647       0.094
  -0.04489942  0.04489942  0.01496647       0.188
  -0.01496647  0.04489942  0.04489942       0.094
   0.04489942  0.04489942  0.04489942       0.031
  -0.04489942  0.04489942  0.04489942       0.094
 
 k-points in reciprocal lattice and weights: K-Points                                
   0.12500000  0.12500000  0.12500000       0.031
  -0.12500000  0.12500000  0.12500000       0.094
   0.37500000  0.12500000  0.12500000       0.094
  -0.12500000  0.37500000  0.12500000       0.188
  -0.37500000  0.12500000  0.12500000       0.094
   0.37500000  0.37500000  0.12500000       0.094
  -0.37500000  0.37500000  0.12500000       0.188
  -0.12500000  0.37500000  0.37500000       0.094
   0.37500000  0.37500000  0.37500000       0.031
  -0.37500000  0.37500000  0.37500000       0.094
 
 position of ions in fractional coordinates (direct lattice) 
   0.00000000  0.00000000  0.00000000
   0.00000000  0.00000000  0.50000000
   0.00000000  0.50000000  0.00000000
   0.00000000  0.50000000  0.50000000
   0.50000000  0.00000000  0.00000000
   0.50000000  0.00000000  0.50000000
   0.50000000  0.50000000  0.00000000
   0.50000000  0.50000000  0.50000000
   0.00000000  0.25000000  0.25000000
   0.00000000  0.25000000  0.75000000
   0.00000000  0.75000000  0.25000000
   0.00000000  0.75000000  0.75000000
   0.50000000  0.25000000  0.25000000
   0.50000000  0.25000000  0.75000000
   0.50000000  0.75000000  0.25000000
   0.50000000  0.75000000  0.75000000
   0.25000000  0.00000000  0.25000000
   0.25000000  0.00000000  0.75000000
   0.25000000  0.50000000  0.25000000
   0.25000000  0.50000000  0.75000000
   0.75000000  0.00000000  0.25000000
   0.75000000  0.00000000  0.75000000
   0.75000000  0.50000000  0.25000000
   0.75000000  0.50000000  0.75000000
   0.25000000  0.25000000  0.00000000
   0.25000000  0.25000000  0.50000000
   0.25000000  0.75000000  0.00000000
   0.25000000  0.75000000  0.50000000
   0.75000000  0.25000000  0.00000000
   0.75000000  0.25000000  0.50000000
   0.75000000  0.75000000  0.00000000
   0.75000000  0.75000000  0.50000000
   0.25000000  0.00000000  0.00000000
   0.25000000  0.00000000  0.50000000
   0.25000000  0.50000000  0.00000000
   0.25000000  0.50000000  0.50000000
   0.75000000  0.00000000  0.00000000
   0.75000000  0.00000000  0.50000000
   0.75000000  0.50000000  0.00000000
   0.75000000  0.50000000  0.50000000
   0.25000000  0.25000000  0.25000000
   0.25000000  0.25000000  0.75000000
   0.25000000  0.75000000  0.25000000
   0.25000000  0.75000000  0.75000000
   0.75000000  0.25000000  0.25000000
   0.75000000  0.25000000  0.75000000
   0.75000000  0.75000000  0.25000000
   0.75000000  0.75000000  0.75000000
   0.00000000  0.00000000  0.25000000
   0.00000000  0.00000000  0.75000000
   0.00000000  0.50000000  0.25000000
   0.00000000  0.50000000  0.75000000
   0.50000000  0.00000000  0.25000000
   0.50000000  0.00000000  0.75000000
   0.50000000  0.50000000  0.25000000
   0.50000000  0.50000000  0.75000000
   0.00000000  0.25000000  0.00000000
   0.00000000  0.25000000  0.50000000
   0.00000000  0.75000000  0.00000000
   0.00000000  0.75000000  0.50000000
   0.50000000  0.25000000  0.00000000
   0.50000000  0.25000000  0.50000000
   0.50000000  0.75000000  0.00000000
   0.50000000  0.75000000  0.50000000
 
 position of ions in cartesian coordinates  (Angst):
   0.00000000  0.00000000  0.00000000
   0.00000000  0.00000000  4.17600012
   0.00000000  4.17600012  0.00000000
   0.00000000  4.17600012  4.17600012
   4.17600012  0.00000000  0.00000000
   4.17600012  0.00000000  4.17600012
   4.17600012  4.17600012  0.00000000
   4.17600012  4.17600012  4.17600012
   0.00000000  2.08800006  2.08800006
   0.00000000  2.08800006  6.26400018
   0.00000000  6.26400018  2.08800006
   0.00000000  6.26400018  6.26400018
   4.17600012  2.08800006  2.08800006
   4.17600012  2.08800006  6.26400018
   4.17600012  6.26400018  2.08800006
   4.17600012  6.26400018  6.26400018
   2.08800006  0.00000000  2.08800006
   2.08800006  0.00000000  6.26400018
   2.08800006  4.17600012  2.08800006
   2.08800006  4.17600012  6.26400018
   6.26400018  0.00000000  2.08800006
   6.26400018  0.00000000  6.26400018
   6.26400018  4.17600012  2.08800006
   6.26400018  4.17600012  6.26400018
   2.08800006  2.08800006  0.00000000
   2.08800006  2.08800006  4.17600012
   2.08800006  6.26400018  0.00000000
   2.08800006  6.26400018  4.17600012
   6.26400018  2.08800006  0.00000000
   6.26400018  2.08800006  4.17600012
   6.26400018  6.26400018  0.00000000
   6.26400018  6.26400018  4.17600012
   2.08800006  0.00000000  0.00000000
   2.08800006  0.00000000  4.17600012
   2.08800006  4.17600012  0.00000000
   2.08800006  4.17600012  4.17600012
   6.26400018  0.00000000  0.00000000
   6.26400018  0.00000000  4.17600012
   6.26400018  4.17600012  0.00000000
   6.26400018  4.17600012  4.17600012
   2.08800006  2.08800006  2.08800006
   2.08800006  2.08800006  6.26400018
   2.08800006  6.26400018  2.08800006
   2.08800006  6.26400018  6.26400018
   6.26400018  2.08800006  2.08800006
   6.26400018  2.08800006  6.26400018
   6.26400018  6.26400018  2.08800006
   6.26400018  6.26400018  6.26400018
   0.00000000  0.00000000  2.08800006
   0.00000000  0.00000000  6.26400018
   0.00000000  4.17600012  2.08800006
   0.00000000  4.17600012  6.26400018
   4.17600012  0.00000000  2.08800006
   4.17600012  0.00000000  6.26400018
   4.17600012  4.17600012  2.08800006
   4.17600012  4.17600012  6.26400018
   0.00000000  2.08800006  0.00000000
   0.00000000  2.08800006  4.17600012
   0.00000000  6.26400018  0.00000000
   0.00000000  6.26400018  4.17600012
   4.17600012  2.08800006  0.00000000
   4.17600012  2.08800006  4.17600012
   4.17600012  6.26400018  0.00000000
   4.17600012  6.26400018  4.17600012
 


--------------------------------------------------------------------------------------------------------


 k-point   1 :   0.1250 0.1250 0.1250  plane waves:   10599
 k-point   2 :  -0.1250 0.1250 0.1250  plane waves:   10599
 k-point   3 :   0.3750 0.1250 0.1250  plane waves:   10579
 k-point   4 :  -0.1250 0.3750 0.1250  plane waves:   10579
 k-point   5 :  -0.3750 0.1250 0.1250  plane waves:   10579
 k-point   6 :   0.3750 0.3750 0.1250  plane waves:   10568
 k-point   7 :  -0.3750 0.3750 0.1250  plane waves:   10568
 k-point   8 :  -0.1250 0.3750 0.3750  plane waves:   10568
 k-point   9 :   0.3750 0.3750 0.3750  plane waves:   10564
 k-point  10 :  -0.3750 0.3750 0.3750  plane waves:   10564

 maximum and minimum number of plane-waves per node :     10599    10564

 maximum number of plane-waves:     10599
 maximum index in each direction: 
   IXMAX=   13   IYMAX=   13   IZMAX=   13
   IXMIN=  -13   IYMIN=  -13   IZMIN=  -13


 serial   3D FFT for wavefunctions
 parallel 3D FFT for charge:
    minimum data exchange during FFTs selected (reduces bandwidth)


 total amount of memory used by VASP MPI-rank0   161347. kBytes
=======================================================================

   base      :      30000. kBytes
   nonlr-proj:      27467. kBytes
   fftplans  :       2981. kBytes
   grid      :      18372. kBytes
   one-center:       1990. kBytes
   wavefun   :      80537. kBytes
 
     INWAV:  cpu time      0.0001: real time      0.0006
 Broyden mixing: mesh for mixing (old mesh)
   NGX = 27   NGY = 27   NGZ = 27
  (NGX  =108   NGY  =108   NGZ  =108)
  gives a total of  19683 points

 initial charge density was supplied:
 charge density of overlapping atoms calculated
 number of electron     704.0000000 magnetization       0.0000000
 keeping initial charge density in first step


--------------------------------------------------------------------------------------------------------


 Maximum index for non-local projection operator         3840
 Maximum index for augmentation-charges          570 (set IRDMAX)


--------------------------------------------------------------------------------------------------------


 First call to EWALD:  gamma=   0.212
 Maximum number of real-space cells 3x 3x 3
 Maximum number of reciprocal cells 3x 3x 3

    FEWALD:  cpu time      0.0051: real time      0.0065


--------------------------------------- Ionic step        1  -------------------------------------------




--------------------------------------- Iteration      1(   1)  ---------------------------------------


    POTLOK:  cpu time      0.1517: real time      0.1519
    SETDIJ:  cpu time      0.0352: real time      0.0353
     EDDAV:  cpu time     74.6978: real time     74.9771
       DOS:  cpu time      0.0038: real time      0.0039
    --------------------------------------------
      LOOP:  cpu time     74.8886: real time     75.1682

 eigenvalue-minimisations  : 20340
 total energy-change (2. order) : 0.1023921E+05  (-0.3753932E+05)
 number of electron     704.0000000 magnetization       0.0000000
 augmentation part      704.0000000 magnetization       0.0000000

 Free energy of the ion-electron system (eV)
  ---------------------------------------------------
  alpha Z        PSCENC =      4967.64425984
  Ewald energy   TEWEN  =    -85406.11067571
  -Hartree energ DENC   =    -35783.02061391
  -exchange      EXHF   =         0.00000000
  -V(xc)+E(xc)   XCENC  =      3763.40338716
  PAW double counting   =    104306.72255533  -108138.12595770
  entropy T*S    EENTRO =        -0.01398914
  eigenvalues    EBANDS =       663.61730752
  atomic energy  EATOM  =    125865.09097427
  Solvation  Ediel_sol  =         0.00000000
  ---------------------------------------------------
  free energy    TOTEN  =     10239.20724766 eV

  energy without entropy =    10239.22123681  energy(sigma->0) =    10239.21424224


--------------------------------------------------------------------------------------------------------




--------------------------------------- Iteration      1(   2)  ---------------------------------------


     EDDAV:  cpu time     66.6823: real time     66.9341
       DOS:  cpu time      0.0039: real time      0.0039
    --------------------------------------------
      LOOP:  cpu time     66.6862: real time     66.9380

 eigenvalue-minimisations  : 17600
 total energy-change (2. order) :-0.9327430E+04  (-0.8851720E+04)
 number of electron     704.0000000 magnetization       0.0000000
 augmentation part      704.0000000 magnetization       0.0000000

 Free energy of the ion-electron system (eV)
  ---------------------------------------------------
  alpha Z        PSCENC =      4967.64425984
  Ewald energy   TEWEN  =    -85406.11067571
  -Hartree energ DENC   =    -35783.02061391
  -exchange      EXHF   =         0.00000000
  -V(xc)+E(xc)   XCENC  =      3763.40338716
  PAW double counting   =    104306.72255533  -108138.12595770
  entropy T*S    EENTRO =        -0.04804060
  eigenvalues    EBANDS =     -8663.77911880
  atomic energy  EATOM  =    125865.09097427
  Solvation  Ediel_sol  =         0.00000000
  ---------------------------------------------------
  free energy    TOTEN  =       911.77676988 eV

  energy without entropy =      911.82481048  energy(sigma->0) =      911.80079018


--------------------------------------------------------------------------------------------------------




--------------------------------------- Iteration      1(   3)  ---------------------------------------


     EDDAV:  cpu time     70.0113: real time     70.2928
       DOS:  cpu time      0.0036: real time      0.0036
    --------------------------------------------
      LOOP:  cpu time     70.0150: real time     70.2964

 eigenvalue-minimisations  : 18680
 total energy-change (2. order) :-0.1132771E+04  (-0.1059240E+04)
 number of electron     704.0000000 magnetization       0.0000000
 augmentation part      704.0000000 magnetization       0.0000000

 Free energy of the ion-electron system (eV)
  ---------------------------------------------------
  alpha Z        PSCENC =      4967.64425984
  Ewald energy   TEWEN  =    -85406.11067571
  -Hartree energ DENC   =    -35783.02061391
  -exchange      EXHF   =         0.00000000
  -V(xc)+E(xc)   XCENC  =      3763.40338716
  PAW double counting   =    104306.72255533  -108138.12595770
  entropy T*S    EENTRO =        -0.05357669
  eigenvalues    EBANDS =     -9796.54409843
  atomic energy  EATOM  =    125865.09097427
  Solvation  Ediel_sol  =         0.00000000
  ---------------------------------------------------
  free energy    TOTEN  =      -220.99374583 eV

  energy without entropy =     -220.94016914  energy(sigma->0) =     -220.96695749


--------------------------------------------------------------------------------------------------------




--------------------------------------- Iteration      1(   4)  ---------------------------------------


     EDDAV:  cpu time     72.4488: real time     72.7181
       DOS:  cpu time      0.0031: real time      0.0031
    --------------------------------------------
      LOOP:  cpu time     72.4519: real time     72.7212

 eigenvalue-minimisations  : 19560
 total energy-change (2. order) :-0.5961735E+02  (-0.5834010E+02)
 number of electron     704.0000000 magnetization       0.0000000
 augmentation part      704.0000000 magnetization       0.0000000

 Free energy of the ion-electron system (eV)
  ---------------------------------------------------
  alpha Z        PSCENC =      4967.64425984
  Ewald energy   TEWEN  =    -85406.11067571
  -Hartree energ DENC   =    -35783.02061391
  -exchange      EXHF   =         0.00000000
  -V(xc)+E(xc)   XCENC  =      3763.40338716
  PAW double counting   =    104306.72255533  -108138.12595770
  entropy T*S    EENTRO =        -0.13414046
  eigenvalues    EBANDS =     -9856.08088650
  atomic energy  EATOM  =    125865.09097427
  Solvation  Ediel_sol  =         0.00000000
  ---------------------------------------------------
  free energy    TOTEN  =      -280.61109768 eV

  energy without entropy =     -280.47695722  energy(sigma->0) =     -280.54402745


--------------------------------------------------------------------------------------------------------




--------------------------------------- Iteration      1(   5)  ---------------------------------------


     EDDAV:  cpu time     72.2007: real time     72.4637
       DOS:  cpu time      0.0036: real time      0.0036
    CHARGE:  cpu time      2.0875: real time      2.0927
    MIXING:  cpu time      0.0039: real time      0.0040
    --------------------------------------------
      LOOP:  cpu time     74.2957: real time     74.5640

 eigenvalue-minimisations  : 19480
 total energy-change (2. order) :-0.1169088E+01  (-0.1160947E+01)
 number of electron     704.0001979 magnetization      -0.0000000
 augmentation part      316.6616387 magnetization      -0.0000000

 Broyden mixing:
  rms(total) = 0.94430E+01    rms(broyden)= 0.93116E+01
  rms(prec ) = 0.11096E+02
  weight for this iteration     100.00

 Free energy of the ion-electron system (eV)
  ---------------------------------------------------
  alpha Z        PSCENC =      4967.64425984
  Ewald energy   TEWEN  =    -85406.11067571
  -Hartree energ DENC   =    -35783.02061391
  -exchange      EXHF   =         0.00000000
  -V(xc)+E(xc)   XCENC  =      3763.40338716
  PAW double counting   =    104306.72255533  -108138.12595770
  entropy T*S    EENTRO =        -0.13705431
  eigenvalues    EBANDS =     -9857.24706034
  atomic energy  EATOM  =    125865.09097427
  Solvation  Ediel_sol  =         0.00000000
  ---------------------------------------------------
  free energy    TOTEN  =      -281.78018536 eV

  energy without entropy =     -281.64313106  energy(sigma->0) =     -281.71165821


--------------------------------------------------------------------------------------------------------




--------------------------------------- Iteration      1(   6)  ---------------------------------------


    POTLOK:  cpu time      0.1403: real time      0.1429
    SETDIJ:  cpu time      0.0297: real time      0.0297
     EDDAV:  cpu time     87.9474: real time     88.2608
       DOS:  cpu time      0.0019: real time      0.0019
    CHARGE:  cpu time      2.1639: real time      2.1699
    MIXING:  cpu time      0.0035: real time      0.0035
    --------------------------------------------
      LOOP:  cpu time     90.2867: real time     90.6087

 eigenvalue-minimisations  : 24820
 total energy-change (2. order) : 0.9050828E+01  (-0.5223003E+02)
 number of electron     704.0001821 magnetization       0.0000000
 augmentation part      330.0542660 magnetization       0.0000000

 Broyden mixing:
  rms(total) = 0.90940E+01    rms(broyden)= 0.90810E+01
  rms(prec ) = 0.92259E+01
  weight for this iteration     100.00

 eigenvalues of (default mixing * dielectric matrix)
  average eigenvalue GAMMA=   0.6044
  0.6044

 Free energy of the ion-electron system (eV)
  ---------------------------------------------------
  alpha Z        PSCENC =      4967.64425984
  Ewald energy   TEWEN  =    -85406.11067571
  -Hartree energ DENC   =    -34701.69222041
  -exchange      EXHF   =         0.00000000
  -V(xc)+E(xc)   XCENC  =      3737.85353646
  PAW double counting   =    105680.92265943  -109286.77557362
  entropy T*S    EENTRO =        -0.00000000
  eigenvalues    EBANDS =    -11129.66231775
  atomic energy  EATOM  =    125865.09097427
  Solvation  Ediel_sol  =         0.00000000
  ---------------------------------------------------
  free energy    TOTEN  =      -272.72935749 eV

  energy without entropy =     -272.72935749  energy(sigma->0) =     -272.72935749


--------------------------------------------------------------------------------------------------------




--------------------------------------- Iteration      1(   7)  ---------------------------------------


    POTLOK:  cpu time      0.1423: real time      0.1447
    SETDIJ:  cpu time      0.0304: real time      0.0304
     EDDAV:  cpu time     74.2213: real time     74.5183
       DOS:  cpu time      0.0017: real time      0.0017
    CHARGE:  cpu time      2.0554: real time      2.0611
    MIXING:  cpu time      0.0038: real time      0.0039
    --------------------------------------------
      LOOP:  cpu time     76.4549: real time     76.7600

 eigenvalue-minimisations  : 20220
 total energy-change (2. order) :-0.2179218E+02  (-0.8387166E+01)
 number of electron     704.0001790 magnetization      -0.0000000
 augmentation part      326.1301416 magnetization      -0.0000000

 Broyden mixing:
  rms(total) = 0.46492E+01    rms(broyden)= 0.46488E+01
  rms(prec ) = 0.47675E+01
  weight for this iteration     100.00

 eigenvalues of (default mixing * dielectric matrix)
  average eigenvalue GAMMA=   0.7653
  0.7653  0.7653

 Free energy of the ion-electron system (eV)
  ---------------------------------------------------
  alpha Z        PSCENC =      4967.64425984
  Ewald energy   TEWEN  =    -85406.11067571
  -Hartree energ DENC   =    -34966.68569615
  -exchange      EXHF   =         0.00000000
  -V(xc)+E(xc)   XCENC  =      3743.49528480
  PAW double counting   =    109331.93283615  -113131.35784358
  entropy T*S    EENTRO =        -0.00000000
  eigenvalues    EBANDS =    -10698.53067808
  atomic energy  EATOM  =    125865.09097427
  Solvation  Ediel_sol  =         0.00000000
  ---------------------------------------------------
  free energy    TOTEN  =      -294.52153844 eV

  energy without entropy =     -294.52153844  energy(sigma->0) =     -294.52153844


--------------------------------------------------------------------------------------------------------




--------------------------------------- Iteration      1(   8)  ---------------------------------------


    POTLOK:  cpu time      0.1429: real time      0.1454
    SETDIJ:  cpu time      0.0306: real time      0.0306
     EDDAV:  cpu time     87.4305: real time     87.7611
       DOS:  cpu time      0.0022: real time      0.0022
    CHARGE:  cpu time      2.0439: real time      2.0478
    MIXING:  cpu time      0.0035: real time      0.0035
    --------------------------------------------
      LOOP:  cpu time     89.6536: real time     89.9906

 eigenvalue-minimisations  : 24680
 total energy-change (2. order) :-0.3968004E+01  (-0.1953301E+01)
 number of electron     704.0001748 magnetization      -0.0000000
 augmentation part      323.7990707 magnetization      -0.0000000

 Broyden mixing:
  rms(total) = 0.32213E+01    rms(broyden)= 0.32194E+01
  rms(prec ) = 0.33377E+01
  weight for this iteration     100.00

 eigenvalues of (default mixing * dielectric matrix)
  average eigenvalue GAMMA=   0.9662
  1.3466  0.9803  0.5716

 Free energy of the ion-electron system (eV)
  ---------------------------------------------------
  alpha Z        PSCENC =      4967.64425984
  Ewald energy   TEWEN  =    -85406.11067571
  -Hartree energ DENC   =    -35010.31896195
  -exchange      EXHF   =         0.00000000
  -V(xc)+E(xc)   XCENC  =      3742.65253491
  PAW double counting   =    112205.64173739  -116033.32146064
  entropy T*S    EENTRO =        -0.00000000
  eigenvalues    EBANDS =    -10629.76795094
  atomic energy  EATOM  =    125865.09097427
  Solvation  Ediel_sol  =         0.00000000
  ---------------------------------------------------
  free energy    TOTEN  =      -298.48954283 eV

  energy without entropy =     -298.48954283  energy(sigma->0) =     -298.48954283


--------------------------------------------------------------------------------------------------------




--------------------------------------- Iteration      1(   9)  ---------------------------------------


    POTLOK:  cpu time      0.1466: real time      0.1493
    SETDIJ:  cpu time      0.0306: real time      0.0306
     EDDAV:  cpu time     85.4253: real time     85.7595
       DOS:  cpu time      0.0019: real time      0.0019
    CHARGE:  cpu time      2.0626: real time      2.0667
    MIXING:  cpu time      0.0037: real time      0.0037
    --------------------------------------------
      LOOP:  cpu time     87.6707: real time     88.0117

 eigenvalue-minimisations  : 24020
 total energy-change (2. order) :-0.2973214E+01  (-0.3729876E+00)
 number of electron     704.0001755 magnetization      -0.0000000
 augmentation part      324.6967994 magnetization      -0.0000000

 Broyden mixing:
  rms(total) = 0.11806E+01    rms(broyden)= 0.11805E+01
  rms(prec ) = 0.12526E+01
  weight for this iteration     100.00

 eigenvalues of (default mixing * dielectric matrix)
  average eigenvalue GAMMA=   1.0931
  2.3407  0.6674  0.6674  0.6970

 Free energy of the ion-electron system (eV)
  ---------------------------------------------------
  alpha Z        PSCENC =      4967.64425984
  Ewald energy   TEWEN  =    -85406.11067571
  -Hartree energ DENC   =    -34888.02173833
  -exchange      EXHF   =         0.00000000
  -V(xc)+E(xc)   XCENC  =      3742.61242292
  PAW double counting   =    114727.32830440  -118589.47486843
  entropy T*S    EENTRO =        -0.00000000
  eigenvalues    EBANDS =    -10720.53143566
  atomic energy  EATOM  =    125865.09097427
  Solvation  Ediel_sol  =         0.00000000
  ---------------------------------------------------
  free energy    TOTEN  =      -301.46275669 eV

  energy without entropy =     -301.46275669  energy(sigma->0) =     -301.46275669


--------------------------------------------------------------------------------------------------------




--------------------------------------- Iteration      1(  10)  ---------------------------------------


    POTLOK:  cpu time      0.1425: real time      0.1461
    SETDIJ:  cpu time      0.0305: real time      0.0305
     EDDAV:  cpu time     81.4235: real time     81.7007
       DOS:  cpu time      0.0020: real time      0.0020
    CHARGE:  cpu time      2.0623: real time      2.0661
    MIXING:  cpu time      0.0040: real time      0.0040
    --------------------------------------------
      LOOP:  cpu time     83.6648: real time     83.9495

 eigenvalue-minimisations  : 22660
 total energy-change (2. order) :-0.5295661E+00  (-0.2321107E+00)
 number of electron     704.0001750 magnetization      -0.0000000
 augmentation part      324.8545977 magnetization      -0.0000000

 Broyden mixing:
  rms(total) = 0.24605E+00    rms(broyden)= 0.24575E+00
  rms(prec ) = 0.25180E+00
  weight for this iteration     100.00

 eigenvalues of (default mixing * dielectric matrix)
  average eigenvalue GAMMA=   1.0620
  2.5679  0.7121  0.7121  0.7346  0.5834

 Free energy of the ion-electron system (eV)
  ---------------------------------------------------
  alpha Z        PSCENC =      4967.64425984
  Ewald energy   TEWEN  =    -85406.11067571
  -Hartree energ DENC   =    -34869.18201162
  -exchange      EXHF   =         0.00000000
  -V(xc)+E(xc)   XCENC  =      3743.27672758
  PAW double counting   =    116015.23605184  -119907.94943545
  entropy T*S    EENTRO =        -0.00000000
  eigenvalues    EBANDS =    -10709.99821355
  atomic energy  EATOM  =    125865.09097427
  Solvation  Ediel_sol  =         0.00000000
  ---------------------------------------------------
  free energy    TOTEN  =      -301.99232279 eV

  energy without entropy =     -301.99232279  energy(sigma->0) =     -301.99232279


--------------------------------------------------------------------------------------------------------




--------------------------------------- Iteration      1(  11)  ---------------------------------------


    POTLOK:  cpu time      0.1427: real time      0.1460
    SETDIJ:  cpu time      0.0307: real time      0.0307
     EDDAV:  cpu time     72.4301: real time     72.6844
       DOS:  cpu time      0.0019: real time      0.0019
    CHARGE:  cpu time      2.0547: real time      2.0605
    MIXING:  cpu time      0.0040: real time      0.0040
    --------------------------------------------
      LOOP:  cpu time     74.6641: real time     74.9275

 eigenvalue-minimisations  : 19440
 total energy-change (2. order) :-0.7762058E-01  (-0.6087476E-01)
 number of electron     704.0001747 magnetization      -0.0000000
 augmentation part      324.5435888 magnetization      -0.0000000

 Broyden mixing:
  rms(total) = 0.21515E+00    rms(broyden)= 0.21509E+00
  rms(prec ) = 0.21777E+00
  weight for this iteration     100.00

 eigenvalues of (default mixing * dielectric matrix)
  average eigenvalue GAMMA=   1.0323
  2.6923  0.7874  0.7874  0.7671  0.5798  0.5798

 Free energy of the ion-electron system (eV)
  ---------------------------------------------------
  alpha Z        PSCENC =      4967.64425984
  Ewald energy   TEWEN  =    -85406.11067571
  -Hartree energ DENC   =    -34879.48464190
  -exchange      EXHF   =         0.00000000
  -V(xc)+E(xc)   XCENC  =      3743.64691345
  PAW double counting   =    116103.37645409  -119999.88153302
  entropy T*S    EENTRO =        -0.00000000
  eigenvalues    EBANDS =    -10696.35169439
  atomic energy  EATOM  =    125865.09097427
  Solvation  Ediel_sol  =         0.00000000
  ---------------------------------------------------
  free energy    TOTEN  =      -302.06994337 eV

  energy without entropy =     -302.06994337  energy(sigma->0) =     -302.06994337


--------------------------------------------------------------------------------------------------------




--------------------------------------- Iteration      1(  12)  ---------------------------------------


    POTLOK:  cpu time      0.1447: real time      0.1480
    SETDIJ:  cpu time      0.0317: real time      0.0318
     EDDAV:  cpu time     72.3326: real time     72.6008
       DOS:  cpu time      0.0021: real time      0.0021
    CHARGE:  cpu time      2.1035: real time      2.1082
    MIXING:  cpu time      0.0047: real time      0.0047
    --------------------------------------------
      LOOP:  cpu time     74.6193: real time     74.8956

 eigenvalue-minimisations  : 19560
 total energy-change (2. order) :-0.6680781E-02  (-0.6327012E-03)
 number of electron     704.0001747 magnetization      -0.0000000
 augmentation part      324.5727994 magnetization      -0.0000000

 Broyden mixing:
  rms(total) = 0.13328E+00    rms(broyden)= 0.13328E+00
  rms(prec ) = 0.13609E+00
  weight for this iteration     100.00

 eigenvalues of (default mixing * dielectric matrix)
  average eigenvalue GAMMA=   1.0619
  2.8062  0.9408  0.9408  0.7357  0.7357  0.6370  0.6370

 Free energy of the ion-electron system (eV)
  ---------------------------------------------------
  alpha Z        PSCENC =      4967.64425984
  Ewald energy   TEWEN  =    -85406.11067571
  -Hartree energ DENC   =    -34876.07740432
  -exchange      EXHF   =         0.00000000
  -V(xc)+E(xc)   XCENC  =      3743.54650151
  PAW double counting   =    116161.03400312  -120058.12004800
  entropy T*S    EENTRO =        -0.00000000
  eigenvalues    EBANDS =    -10699.08423486
  atomic energy  EATOM  =    125865.09097427
  Solvation  Ediel_sol  =         0.00000000
  ---------------------------------------------------
  free energy    TOTEN  =      -302.07662415 eV

  energy without entropy =     -302.07662415  energy(sigma->0) =     -302.07662415


--------------------------------------------------------------------------------------------------------




--------------------------------------- Iteration      1(  13)  ---------------------------------------


    POTLOK:  cpu time      0.1379: real time      0.1410
    SETDIJ:  cpu time      0.0289: real time      0.0289
     EDDAV:  cpu time     89.7238: real time     90.0503
       DOS:  cpu time      0.0022: real time      0.0022
    CHARGE:  cpu time      2.0731: real time      2.0791
    MIXING:  cpu time      0.0043: real time      0.0043
    --------------------------------------------
      LOOP:  cpu time     91.9702: real time     92.3059

 eigenvalue-minimisations  : 25520
 total energy-change (2. order) :-0.1597096E-02  (-0.8260907E-03)
 number of electron     704.0001747 magnetization       0.0000000
 augmentation part      324.6109193 magnetization       0.0000000

 Broyden mixing:
  rms(total) = 0.44188E-01    rms(broyden)= 0.44162E-01
  rms(prec ) = 0.47033E-01
  weight for this iteration     100.00

 eigenvalues of (default mixing * dielectric matrix)
  average eigenvalue GAMMA=   1.2077
  3.0335  2.2778  0.9900  0.7381  0.7381  0.6118  0.6363  0.6363

 Free energy of the ion-electron system (eV)
  ---------------------------------------------------
  alpha Z        PSCENC =      4967.64425984
  Ewald energy   TEWEN  =    -85406.11067571
  -Hartree energ DENC   =    -34870.58252930
  -exchange      EXHF   =         0.00000000
  -V(xc)+E(xc)   XCENC  =      3743.51112013
  PAW double counting   =    116222.41999520  -120120.98667153
  entropy T*S    EENTRO =        -0.00000000
  eigenvalues    EBANDS =    -10703.06469414
  atomic energy  EATOM  =    125865.09097427
  Solvation  Ediel_sol  =         0.00000000
  ---------------------------------------------------
  free energy    TOTEN  =      -302.07822125 eV

  energy without entropy =     -302.07822125  energy(sigma->0) =     -302.07822125


--------------------------------------------------------------------------------------------------------




--------------------------------------- Iteration      1(  14)  ---------------------------------------


    POTLOK:  cpu time      0.1426: real time      0.1451
    SETDIJ:  cpu time      0.0309: real time      0.0309
     EDDAV:  cpu time     71.7312: real time     71.9920
       DOS:  cpu time      0.0020: real time      0.0020
    CHARGE:  cpu time      2.0914: real time      2.0980
    MIXING:  cpu time      0.0045: real time      0.0045
    --------------------------------------------
      LOOP:  cpu time     74.0025: real time     74.2725

 eigenvalue-minimisations  : 19220
 total energy-change (2. order) :-0.6229361E-03  (-0.4277260E-03)
 number of electron     704.0001747 magnetization      -0.0000000
 augmentation part      324.6272155 magnetization      -0.0000000

 Broyden mixing:
  rms(total) = 0.13501E-01    rms(broyden)= 0.13448E-01
  rms(prec ) = 0.15816E-01
  weight for this iteration     100.00

 eigenvalues of (default mixing * dielectric matrix)
  average eigenvalue GAMMA=   1.1674
  3.0012  2.4720  1.0462  0.7170  0.7170  0.6341  0.6341  0.6692  0.6163

 Free energy of the ion-electron system (eV)
  ---------------------------------------------------
  alpha Z        PSCENC =      4967.64425984
  Ewald energy   TEWEN  =    -85406.11067571
  -Hartree energ DENC   =    -34868.66337474
  -exchange      EXHF   =         0.00000000
  -V(xc)+E(xc)   XCENC  =      3743.34758774
  PAW double counting   =    116171.84461234  -120069.56959903
  entropy T*S    EENTRO =        -0.00000000
  eigenvalues    EBANDS =    -10705.66262890
  atomic energy  EATOM  =    125865.09097427
  Solvation  Ediel_sol  =         0.00000000
  ---------------------------------------------------
  free energy    TOTEN  =      -302.07884418 eV

  energy without entropy =     -302.07884418  energy(sigma->0) =     -302.07884418


--------------------------------------------------------------------------------------------------------




--------------------------------------- Iteration      1(  15)  ---------------------------------------


    POTLOK:  cpu time      0.1454: real time      0.1479
    SETDIJ:  cpu time      0.0301: real time      0.0301
     EDDAV:  cpu time     76.7703: real time     77.1253
       DOS:  cpu time      0.0020: real time      0.0020
    CHARGE:  cpu time      2.0937: real time      2.1127
    MIXING:  cpu time      0.0056: real time      0.0056
    --------------------------------------------
      LOOP:  cpu time     79.0473: real time     79.4237

 eigenvalue-minimisations  : 21120
 total energy-change (2. order) :-0.1235597E-03  (-0.4974079E-04)
 number of electron     704.0001746 magnetization       0.0000000
 augmentation part      324.6203820 magnetization       0.0000000

 Broyden mixing:
  rms(total) = 0.67876E-02    rms(broyden)= 0.67712E-02
  rms(prec ) = 0.72602E-02
  weight for this iteration     100.00

 eigenvalues of (default mixing * dielectric matrix)
  average eigenvalue GAMMA=   1.1652
  3.0015  2.5162  1.0572  1.0572  0.7276  0.7276  0.6540  0.6540  0.5940  0.6630

 Free energy of the ion-electron system (eV)
  ---------------------------------------------------
  alpha Z        PSCENC =      4967.64425984
  Ewald energy   TEWEN  =    -85406.11067571
  -Hartree energ DENC   =    -34869.20877232
  -exchange      EXHF   =         0.00000000
  -V(xc)+E(xc)   XCENC  =      3743.33879759
  PAW double counting   =    116163.51982558  -120060.96590519
  entropy T*S    EENTRO =        -0.00000000
  eigenvalues    EBANDS =    -10705.38747181
  atomic energy  EATOM  =    125865.09097427
  Solvation  Ediel_sol  =         0.00000000
  ---------------------------------------------------
  free energy    TOTEN  =      -302.07896774 eV

  energy without entropy =     -302.07896774  energy(sigma->0) =     -302.07896774


--------------------------------------------------------------------------------------------------------




--------------------------------------- Iteration      1(  16)  ---------------------------------------


    POTLOK:  cpu time      0.1406: real time      0.1439
    SETDIJ:  cpu time      0.0293: real time      0.0293
     EDDAV:  cpu time     81.2559: real time     82.1328
       DOS:  cpu time      0.0020: real time      0.0020
    CHARGE:  cpu time      2.0661: real time      2.0823
    MIXING:  cpu time      0.0049: real time      0.0049
    --------------------------------------------
      LOOP:  cpu time     83.4987: real time     84.3950

 eigenvalue-minimisations  : 22900
 total energy-change (2. order) :-0.9882945E-04  (-0.2347956E-04)
 number of electron     704.0001746 magnetization       0.0000000
 augmentation part      324.6206866 magnetization       0.0000000

 Broyden mixing:
  rms(total) = 0.37087E-02    rms(broyden)= 0.36847E-02
  rms(prec ) = 0.40318E-02
  weight for this iteration     100.00

 eigenvalues of (default mixing * dielectric matrix)
  average eigenvalue GAMMA=   1.2377
  3.1055  2.6352  2.0312  1.0809  0.7231  0.7231  0.8004  0.6487  0.6487  0.6343
  0.5835

 Free energy of the ion-electron system (eV)
  ---------------------------------------------------
  alpha Z        PSCENC =      4967.64425984
  Ewald energy   TEWEN  =    -85406.11067571
  -Hartree energ DENC   =    -34869.53630436
  -exchange      EXHF   =         0.00000000
  -V(xc)+E(xc)   XCENC  =      3743.34545771
  PAW double counting   =    116162.57715279  -120059.88356075
  entropy T*S    EENTRO =        -0.00000000
  eigenvalues    EBANDS =    -10705.20637035
  atomic energy  EATOM  =    125865.09097427
  Solvation  Ediel_sol  =         0.00000000
  ---------------------------------------------------
  free energy    TOTEN  =      -302.07906657 eV

  energy without entropy =     -302.07906657  energy(sigma->0) =     -302.07906657


--------------------------------------------------------------------------------------------------------




--------------------------------------- Iteration      1(  17)  ---------------------------------------


    POTLOK:  cpu time      0.1447: real time      0.1472
    SETDIJ:  cpu time      0.0315: real time      0.0315
     EDDAV:  cpu time     88.3307: real time     89.2829
       DOS:  cpu time      0.0020: real time      0.0020
    CHARGE:  cpu time      2.1093: real time      2.1270
    MIXING:  cpu time      0.0055: real time      0.0055
    --------------------------------------------
      LOOP:  cpu time     90.6236: real time     91.5961

 eigenvalue-minimisations  : 25140
 total energy-change (2. order) :-0.6271474E-04  (-0.4866583E-05)
 number of electron     704.0001747 magnetization       0.0000000
 augmentation part      324.6220187 magnetization       0.0000000

 Broyden mixing:
  rms(total) = 0.28373E-02    rms(broyden)= 0.27954E-02
  rms(prec ) = 0.29173E-02
  weight for this iteration     100.00

 eigenvalues of (default mixing * dielectric matrix)
  average eigenvalue GAMMA=   1.2984
  3.6595  2.8625  2.4096  1.0996  0.8793  0.7230  0.7230  0.6647  0.6647  0.6552
  0.6552  0.5852

 Free energy of the ion-electron system (eV)
  ---------------------------------------------------
  alpha Z        PSCENC =      4967.64425984
  Ewald energy   TEWEN  =    -85406.11067571
  -Hartree energ DENC   =    -34869.77624533
  -exchange      EXHF   =         0.00000000
  -V(xc)+E(xc)   XCENC  =      3743.35858374
  PAW double counting   =    116163.47726801  -120060.72308847
  entropy T*S    EENTRO =        -0.00000000
  eigenvalues    EBANDS =    -10705.04020563
  atomic energy  EATOM  =    125865.09097427
  Solvation  Ediel_sol  =         0.00000000
  ---------------------------------------------------
  free energy    TOTEN  =      -302.07912929 eV

  energy without entropy =     -302.07912929  energy(sigma->0) =     -302.07912929


--------------------------------------------------------------------------------------------------------




--------------------------------------- Iteration      1(  18)  ---------------------------------------


    POTLOK:  cpu time      0.1392: real time      0.1417
    SETDIJ:  cpu time      0.0298: real time      0.0298
     EDDAV:  cpu time     75.8434: real time     76.6677
       DOS:  cpu time      0.0021: real time      0.0021
    CHARGE:  cpu time      2.2130: real time      2.2315
    MIXING:  cpu time      0.0053: real time      0.0053
    --------------------------------------------
      LOOP:  cpu time     78.2327: real time     79.0781

 eigenvalue-minimisations  : 20900
 total energy-change (2. order) :-0.1362165E-04  (-0.2899747E-05)
 number of electron     704.0001746 magnetization      -0.0000000
 augmentation part      324.6215692 magnetization      -0.0000000

 Broyden mixing:
  rms(total) = 0.19448E-02    rms(broyden)= 0.19316E-02
  rms(prec ) = 0.20092E-02
  weight for this iteration     100.00

 eigenvalues of (default mixing * dielectric matrix)
  average eigenvalue GAMMA=   1.3511
  3.9362  2.9605  2.5920  1.6106  1.0286  0.8387  0.7222  0.7222  0.6540  0.6540
  0.6373  0.6373  0.5704

 Free energy of the ion-electron system (eV)
  ---------------------------------------------------
  alpha Z        PSCENC =      4967.64425984
  Ewald energy   TEWEN  =    -85406.11067571
  -Hartree energ DENC   =    -34869.81381868
  -exchange      EXHF   =         0.00000000
  -V(xc)+E(xc)   XCENC  =      3743.35987894
  PAW double counting   =    116164.39927722  -120061.63424976
  entropy T*S    EENTRO =        -0.00000000
  eigenvalues    EBANDS =    -10705.01478902
  atomic energy  EATOM  =    125865.09097427
  Solvation  Ediel_sol  =         0.00000000
  ---------------------------------------------------
  free energy    TOTEN  =      -302.07914291 eV

  energy without entropy =     -302.07914291  energy(sigma->0) =     -302.07914291


--------------------------------------------------------------------------------------------------------




--------------------------------------- Iteration      1(  19)  ---------------------------------------


    POTLOK:  cpu time      0.1372: real time      0.1446
    SETDIJ:  cpu time      0.0294: real time      0.0294
     EDDAV:  cpu time     82.0995: real time     82.9649
       DOS:  cpu time      0.0021: real time      0.0021
    CHARGE:  cpu time      2.1004: real time      2.1181
    MIXING:  cpu time      0.0054: real time      0.0056
    --------------------------------------------
      LOOP:  cpu time     84.3740: real time     85.2646

 eigenvalue-minimisations  : 22940
 total energy-change (2. order) :-0.4169618E-05  (-0.6129460E-06)
 number of electron     704.0001746 magnetization      -0.0000000
 augmentation part      324.6212165 magnetization      -0.0000000

 Broyden mixing:
  rms(total) = 0.10299E-02    rms(broyden)= 0.10192E-02
  rms(prec ) = 0.10544E-02
  weight for this iteration     100.00

 eigenvalues of (default mixing * dielectric matrix)
  average eigenvalue GAMMA=   1.4106
  4.5157  3.2622  2.6087  2.0925  1.0622  0.7208  0.7208  0.7894  0.7431  0.7431
  0.6546  0.6546  0.6014  0.5801

 Free energy of the ion-electron system (eV)
  ---------------------------------------------------
  alpha Z        PSCENC =      4967.64425984
  Ewald energy   TEWEN  =    -85406.11067571
  -Hartree energ DENC   =    -34869.78815583
  -exchange      EXHF   =         0.00000000
  -V(xc)+E(xc)   XCENC  =      3743.35750555
  PAW double counting   =    116164.81780836  -120062.06086822
  entropy T*S    EENTRO =        -0.00000000
  eigenvalues    EBANDS =    -10705.02999533
  atomic energy  EATOM  =    125865.09097427
  Solvation  Ediel_sol  =         0.00000000
  ---------------------------------------------------
  free energy    TOTEN  =      -302.07914708 eV

  energy without entropy =     -302.07914708  energy(sigma->0) =     -302.07914708


--------------------------------------------------------------------------------------------------------




--------------------------------------- Iteration      1(  20)  ---------------------------------------


    POTLOK:  cpu time      0.1433: real time      0.1457
    SETDIJ:  cpu time      0.0305: real time      0.0305
     EDDAV:  cpu time     77.4374: real time     78.2879
       DOS:  cpu time      0.0022: real time      0.0022
    CHARGE:  cpu time      2.0394: real time      2.0561
    MIXING:  cpu time      0.0065: real time      0.0065
    --------------------------------------------
      LOOP:  cpu time     79.6592: real time     80.5289

 eigenvalue-minimisations  : 21420
 total energy-change (2. order) :-0.9083305E-06  (-0.3506849E-06)
 number of electron     704.0001746 magnetization       0.0000000
 augmentation part      324.6208429 magnetization       0.0000000

 Broyden mixing:
  rms(total) = 0.75466E-03    rms(broyden)= 0.74834E-03
  rms(prec ) = 0.78280E-03
  weight for this iteration     100.00

 eigenvalues of (default mixing * dielectric matrix)
  average eigenvalue GAMMA=   1.3948
  4.8670  3.0767  2.4829  2.2952  1.0781  0.9273  0.9273  0.7226  0.7226  0.6527
  0.6527  0.7354  0.6097  0.6097  0.5619

 Free energy of the ion-electron system (eV)
  ---------------------------------------------------
  alpha Z        PSCENC =      4967.64425984
  Ewald energy   TEWEN  =    -85406.11067571
  -Hartree energ DENC   =    -34869.83317052
  -exchange      EXHF   =         0.00000000
  -V(xc)+E(xc)   XCENC  =      3743.35855703
  PAW double counting   =    116163.93057612  -120061.17530787
  entropy T*S    EENTRO =        -0.00000000
  eigenvalues    EBANDS =    -10704.98436115
  atomic energy  EATOM  =    125865.09097427
  Solvation  Ediel_sol  =         0.00000000
  ---------------------------------------------------
  free energy    TOTEN  =      -302.07914799 eV

  energy without entropy =     -302.07914799  energy(sigma->0) =     -302.07914799


--------------------------------------------------------------------------------------------------------




--------------------------------------- Iteration      1(  21)  ---------------------------------------


    POTLOK:  cpu time      0.1424: real time      0.1457
    SETDIJ:  cpu time      0.0307: real time      0.0307
     EDDAV:  cpu time     64.6488: real time     65.3410
       DOS:  cpu time      0.0020: real time      0.0020
    CHARGE:  cpu time      2.0083: real time      2.0288
    MIXING:  cpu time      0.0062: real time      0.0062
    --------------------------------------------
      LOOP:  cpu time     66.8384: real time     67.5545

 eigenvalue-minimisations  : 16860
 total energy-change (2. order) :-0.2494344E-06  (-0.1178024E-06)
 number of electron     704.0001746 magnetization       0.0000000
 augmentation part      324.6212808 magnetization       0.0000000

 Broyden mixing:
  rms(total) = 0.21005E-03    rms(broyden)= 0.20636E-03
  rms(prec ) = 0.21330E-03
  weight for this iteration     100.00

 eigenvalues of (default mixing * dielectric matrix)
  average eigenvalue GAMMA=   1.3748
  4.9851  2.9011  2.4916  2.4347  1.2148  0.9658  0.9658  0.7232  0.7232  0.7975
  0.6539  0.6539  0.6644  0.6644  0.6028  0.5555

 Free energy of the ion-electron system (eV)
  ---------------------------------------------------
  alpha Z        PSCENC =      4967.64425984
  Ewald energy   TEWEN  =    -85406.11067571
  -Hartree energ DENC   =    -34869.82253174
  -exchange      EXHF   =         0.00000000
  -V(xc)+E(xc)   XCENC  =      3743.35871304
  PAW double counting   =    116163.85392622  -120061.10247884
  entropy T*S    EENTRO =        -0.00000000
  eigenvalues    EBANDS =    -10704.99133532
  atomic energy  EATOM  =    125865.09097427
  Solvation  Ediel_sol  =         0.00000000
  ---------------------------------------------------
  free energy    TOTEN  =      -302.07914823 eV

  energy without entropy =     -302.07914823  energy(sigma->0) =     -302.07914823


--------------------------------------------------------------------------------------------------------




--------------------------------------- Iteration      1(  22)  ---------------------------------------


    POTLOK:  cpu time      0.1434: real time      0.1471
    SETDIJ:  cpu time      0.0313: real time      0.0313
     EDDAV:  cpu time     58.9730: real time     59.5862
       DOS:  cpu time      0.0020: real time      0.0020
    --------------------------------------------
[...]
   0.405E-11 0.143E-10 0.276E-10   0.341E-12 0.232E-12 -.568E-13   0.263E-23 -.105E-23 -.139E-23   0.454E-12 -.206E-12 0.382E-12
   0.208E-11 -.196E-12 -.957E-11   -.924E-13 -.178E-12 -.711E-13   -.332E-23 0.294E-23 0.330E-24   -.497E-12 0.566E-12 -.730E-12
   0.215E-11 0.147E-14 0.325E-11   -.497E-13 -.135E-12 -.639E-13   0.237E-23 -.330E-23 -.125E-23   -.601E-12 0.298E-12 0.580E-12
   0.208E-11 0.340E-11 -.109E-11   -.149E-12 -.206E-12 -.639E-13   0.159E-23 0.245E-23 -.130E-23   -.482E-12 -.240E-13 -.856E-12
   0.218E-11 0.671E-11 -.571E-11   -.107E-12 -.192E-12 -.639E-13   0.219E-24 -.447E-24 0.618E-24   -.603E-12 0.241E-12 0.564E-12
   0.642E-11 -.168E-12 -.195E-10   -.426E-13 -.192E-12 -.711E-13   0.378E-23 -.252E-23 0.759E-24   0.121E-13 0.452E-12 -.548E-12
   0.635E-11 0.649E-13 0.406E-10   -.426E-13 -.192E-12 -.121E-12   -.102E-23 0.324E-23 -.191E-23   0.116E-12 0.166E-12 0.438E-12
   0.639E-11 0.496E-11 -.177E-11   -.497E-13 -.163E-12 -.639E-13   0.153E-24 -.185E-23 -.116E-23   0.410E-13 0.106E-12 -.651E-12
   0.631E-11 -.505E-14 0.119E-10   -.163E-12 -.135E-12 -.568E-13   -.802E-24 0.994E-24 0.529E-24   0.176E-12 0.396E-12 0.483E-12
   0.210E-11 -.239E-11 0.153E-11   -.153E-12 0.199E-13 -.113E-13   0.907E-24 0.506E-24 0.113E-23   -.485E-12 0.641E-12 0.266E-12
   0.209E-11 0.611E-11 0.562E-11   -.959E-13 0.341E-13 -.796E-14   0.756E-24 -.204E-23 -.134E-23   -.405E-12 0.614E-12 -.494E-12
   0.214E-11 0.111E-10 0.172E-11   -.171E-12 0.108E-12 -.421E-14   0.132E-23 -.171E-23 0.131E-23   -.590E-12 -.190E-12 0.238E-13
   0.216E-11 0.345E-11 0.849E-11   -.114E-12 0.108E-12 -.853E-15   0.237E-23 0.560E-24 0.172E-23   -.519E-12 -.149E-12 -.192E-12
   0.642E-11 0.161E-10 -.173E-10   -.155E-12 0.564E-14 -.113E-13   -.301E-23 -.167E-23 -.150E-23   0.143E-12 0.788E-12 0.220E-12
   0.641E-11 0.320E-10 -.700E-11   -.114E-12 0.341E-13 -.796E-14   -.206E-23 0.201E-24 -.149E-23   0.725E-13 0.739E-12 -.336E-12
   0.635E-11 0.434E-10 -.484E-11   -.959E-13 0.374E-13 -.421E-14   -.225E-25 0.340E-23 -.556E-24   0.145E-12 -.324E-12 -.474E-13
   0.633E-11 0.303E-10 -.179E-10   -.114E-12 0.374E-13 -.853E-15   -.204E-23 -.160E-23 0.192E-24   0.596E-13 -.268E-12 -.358E-13
   0.175E-12 -.149E-12 -.380E-13   -.100E-12 -.728E-13 0.603E-13   0.284E-24 -.259E-24 -.335E-24   -.261E-12 0.674E-13 0.191E-12
   0.124E-12 -.195E-12 0.700E-11   -.995E-13 -.924E-13 0.687E-13   -.896E-24 0.217E-24 -.427E-24   -.930E-13 0.142E-12 -.135E-12
   0.123E-12 0.259E-12 0.637E-11   -.141E-12 -.915E-13 0.532E-13   -.322E-24 -.785E-26 -.433E-25   -.142E-12 0.113E-13 0.150E-12
   0.190E-12 0.306E-12 0.605E-12   -.135E-12 -.426E-13 0.616E-13   0.112E-24 -.553E-24 0.226E-25   -.189E-12 -.660E-13 -.992E-13
   0.417E-12 -.190E-12 0.497E-12   -.137E-12 -.746E-13 0.532E-13   0.106E-23 0.150E-24 0.723E-24   0.210E-12 0.960E-13 -.189E-13
   0.466E-12 -.909E-13 -.911E-11   -.121E-12 -.782E-13 0.616E-13   -.208E-24 0.568E-24 0.517E-24   0.473E-13 -.393E-13 0.237E-14
   0.465E-12 -.188E-10 0.118E-10   -.657E-13 -.897E-13 0.532E-13   -.403E-24 0.671E-24 0.209E-24   0.116E-12 -.327E-13 0.138E-12
   0.398E-12 -.270E-11 -.232E-11   -.782E-13 -.355E-13 0.616E-13   0.202E-25 0.314E-24 -.301E-24   0.160E-12 0.985E-13 -.133E-12
   0.148E-12 0.157E-11 -.903E-12   -.108E-12 -.803E-13 0.568E-13   -.707E-24 -.723E-24 -.565E-24   -.155E-12 0.129E-12 -.188E-12
   0.300E-13 -.160E-11 -.108E-11   -.108E-12 0.412E-14 0.639E-13   -.409E-24 0.375E-24 -.351E-24   -.491E-13 0.167E-12 0.306E-12
   0.731E-14 -.151E-11 -.941E-12   -.114E-12 -.319E-13 0.497E-13   -.365E-24 -.853E-25 0.119E-24   0.912E-14 -.133E-12 -.258E-12
   0.253E-12 0.210E-11 -.662E-12   -.114E-12 -.515E-13 0.568E-13   -.156E-24 0.857E-24 -.247E-24   -.319E-12 -.169E-12 0.401E-12
   0.432E-12 0.355E-11 -.138E-11   -.119E-12 -.501E-13 0.568E-13   0.397E-25 0.523E-24 -.138E-24   0.128E-12 0.260E-12 -.206E-12
   0.549E-12 0.849E-11 0.968E-11   -.119E-12 0.412E-14 0.639E-13   -.158E-26 -.195E-24 0.264E-24   0.231E-13 0.133E-12 0.273E-12
   0.573E-12 -.180E-11 0.101E-10   -.995E-13 -.266E-13 0.497E-13   0.473E-24 0.311E-24 0.276E-24   -.496E-13 -.289E-12 -.550E-13
   0.327E-12 0.136E-11 0.163E-11   -.853E-13 -.373E-13 0.568E-13   0.607E-24 -.258E-24 -.136E-24   0.272E-12 -.158E-12 0.147E-12
   -.108E-12 -.273E-12 0.275E-12   -.129E-12 -.426E-13 0.631E-13   -.268E-24 -.969E-25 0.219E-24   0.153E-12 0.217E-12 -.324E-12
   -.745E-14 0.677E-13 0.489E-12   -.150E-12 -.426E-13 0.773E-13   -.188E-24 0.221E-24 0.104E-24   -.153E-13 -.215E-12 0.336E-12
   -.549E-13 0.387E-12 0.235E-12   -.850E-13 -.639E-13 0.631E-13   -.715E-25 -.207E-24 0.107E-24   0.107E-13 -.163E-12 -.237E-12
   -.919E-13 -.933E-13 0.148E-12   -.716E-13 -.639E-13 0.702E-13   0.397E-24 0.304E-24 -.849E-26   0.179E-14 0.264E-12 0.275E-12
   0.249E-12 -.130E-12 -.150E-10   -.120E-12 -.284E-13 0.639E-13   0.638E-24 0.400E-24 -.319E-24   0.320E-13 0.617E-13 -.113E-12
   0.150E-12 -.160E-12 0.794E-11   -.108E-12 -.426E-13 0.782E-13   0.129E-24 -.384E-24 0.165E-24   0.202E-12 0.746E-13 0.218E-12
   0.179E-12 -.239E-11 0.324E-12   -.149E-12 -.497E-13 0.568E-13   0.329E-24 0.103E-24 -.115E-24   0.175E-12 0.282E-13 -.243E-12
   0.218E-12 0.564E-11 0.131E-11   -.150E-12 -.639E-13 0.711E-13   -.327E-24 0.102E-24 0.255E-24   0.181E-12 0.130E-13 0.372E-12
   -.107E-12 0.229E-13 -.346E-12   -.894E-13 -.147E-13 0.635E-13   -.341E-24 0.298E-24 0.348E-24   0.675E-13 0.181E-12 0.238E-12
   -.748E-13 -.220E-13 0.544E-12   -.132E-12 -.290E-13 0.740E-13   -.261E-24 0.101E-24 0.102E-24   0.510E-13 0.260E-12 -.311E-12
   -.127E-12 0.576E-12 -.806E-14   -.556E-13 0.711E-14 0.632E-13   0.496E-25 -.181E-24 0.742E-24   0.120E-12 -.223E-12 -.173E-12
   0.493E-13 0.235E-12 0.637E-13   -.169E-12 -.715E-14 0.666E-13   -.143E-24 -.571E-24 -.273E-24   -.104E-12 -.302E-12 0.121E-12
   0.232E-12 -.149E-10 0.836E-13   -.108E-12 -.143E-13 0.623E-13   -.844E-24 -.358E-24 0.567E-24   0.108E-12 0.307E-12 0.186E-12
   0.198E-12 0.158E-12 -.104E-10   -.108E-12 -.143E-13 0.728E-13   -.331E-24 0.103E-24 0.458E-24   0.128E-12 0.172E-12 -.146E-12
   0.265E-12 0.559E-11 0.117E-11   -.156E-12 0.756E-14 0.549E-13   0.129E-24 -.419E-24 -.355E-24   0.653E-13 -.285E-12 0.204E-12
   0.910E-13 -.103E-11 -.148E-11   -.127E-12 0.751E-14 0.654E-13   0.209E-24 0.531E-24 -.494E-24   0.293E-12 -.150E-12 -.156E-12
 -----------------------------------------------------------------------------------------------
   0.106E-09 0.146E-09 0.358E-10   -.191E-12 0.965E-13 -.171E-12   0.622E-23 -.494E-23 -.916E-23   0.124E-12 0.824E-11 -.217E-11
 
 
 POSITION                                       TOTAL-FORCE (eV/Angst)
 -----------------------------------------------------------------------------------
      0.00000      0.00000      0.00000        -0.000000     -0.000000      0.000000
      0.00000      0.00000      4.17600         0.000000      0.000000      0.000000
      0.00000      4.17600      0.00000        -0.000000      0.000000      0.000000
      0.00000      4.17600      4.17600         0.000000     -0.000000     -0.000000
      4.17600      0.00000      0.00000         0.000000      0.000000      0.000000
      4.17600      0.00000      4.17600         0.000000     -0.000000      0.000000
      4.17600      4.17600      0.00000         0.000000      0.000000     -0.000000
      4.17600      4.17600      4.17600        -0.000000     -0.000000      0.000000
      0.00000      2.08800      2.08800         0.000000     -0.000000      0.000000
      0.00000      2.08800      6.26400        -0.000000     -0.000000     -0.000000
      0.00000      6.26400      2.08800        -0.000000      0.000000     -0.000000
      0.00000      6.26400      6.26400         0.000000     -0.000000      0.000000
      4.17600      2.08800      2.08800        -0.000000     -0.000000     -0.000000
      4.17600      2.08800      6.26400         0.000000     -0.000000      0.000000
      4.17600      6.26400      2.08800         0.000000      0.000000     -0.000000
      4.17600      6.26400      6.26400        -0.000000      0.000000      0.000000
      2.08800      0.00000      2.08800         0.000000     -0.000000      0.000000
      2.08800      0.00000      6.26400         0.000000      0.000000      0.000000
      2.08800      4.17600      2.08800        -0.000000     -0.000000      0.000000
      2.08800      4.17600      6.26400         0.000000     -0.000000     -0.000000
      6.26400      0.00000      2.08800         0.000000     -0.000000      0.000000
      6.26400      0.00000      6.26400        -0.000000     -0.000000      0.000000
      6.26400      4.17600      2.08800         0.000000      0.000000     -0.000000
      6.26400      4.17600      6.26400        -0.000000      0.000000      0.000000
      2.08800      2.08800      0.00000         0.000000     -0.000000     -0.000000
      2.08800      2.08800      4.17600         0.000000     -0.000000     -0.000000
      2.08800      6.26400      0.00000        -0.000000      0.000000      0.000000
      2.08800      6.26400      4.17600         0.000000      0.000000     -0.000000
      6.26400      2.08800      0.00000        -0.000000     -0.000000      0.000000
      6.26400      2.08800      4.17600         0.000000     -0.000000     -0.000000
      6.26400      6.26400      0.00000        -0.000000      0.000000      0.000000
      6.26400      6.26400      4.17600         0.000000     -0.000000     -0.000000
      2.08800      0.00000      0.00000         0.000000      0.000000     -0.000000
      2.08800      0.00000      4.17600        -0.000000      0.000000      0.000000
      2.08800      4.17600      0.00000        -0.000000      0.000000     -0.000000
      2.08800      4.17600      4.17600        -0.000000      0.000000     -0.000000
      6.26400      0.00000      0.00000         0.000000     -0.000000     -0.000000
      6.26400      0.00000      4.17600        -0.000000      0.000000     -0.000000
      6.26400      4.17600      0.00000         0.000000      0.000000      0.000000
      6.26400      4.17600      4.17600         0.000000     -0.000000     -0.000000
      2.08800      2.08800      2.08800        -0.000000      0.000000     -0.000000
      2.08800      2.08800      6.26400         0.000000     -0.000000     -0.000000
      2.08800      6.26400      2.08800        -0.000000      0.000000     -0.000000
      2.08800      6.26400      6.26400        -0.000000      0.000000     -0.000000
      6.26400      2.08800      2.08800        -0.000000     -0.000000     -0.000000
      6.26400      2.08800      6.26400         0.000000      0.000000     -0.000000
      6.26400      6.26400      2.08800        -0.000000      0.000000      0.000000
      6.26400      6.26400      6.26400         0.000000      0.000000     -0.000000
      0.00000      0.00000      2.08800         0.000000      0.000000     -0.000000
      0.00000      0.00000      6.26400         0.000000      0.000000     -0.000000
      0.00000      4.17600      2.08800        -0.000000      0.000000     -0.000000
      0.00000      4.17600      6.26400        -0.000000      0.000000     -0.000000
      4.17600      0.00000      2.08800        -0.000000      0.000000     -0.000000
      4.17600      0.00000      6.26400        -0.000000      0.000000     -0.000000
      4.17600      4.17600      2.08800         0.000000      0.000000     -0.000000
      4.17600      4.17600      6.26400         0.000000      0.000000     -0.000000
      0.00000      2.08800      0.00000        -0.000000      0.000000     -0.000000
      0.00000      2.08800      4.17600        -0.000000      0.000000     -0.000000
      0.00000      6.26400      0.00000         0.000000     -0.000000      0.000000
      0.00000      6.26400      4.17600        -0.000000      0.000000     -0.000000
      4.17600      2.08800      0.00000        -0.000000      0.000000     -0.000000
      4.17600      2.08800      4.17600         0.000000      0.000000     -0.000000
      4.17600      6.26400      0.00000        -0.000000      0.000000      0.000000
      4.17600      6.26400      4.17600         0.000000      0.000000      0.000000
 -----------------------------------------------------------------------------------
    total drift:                                0.000000      0.000000      0.000000


--------------------------------------------------------------------------------------------------------



  FREE ENERGIE OF THE ION-ELECTRON SYSTEM (eV)
  ---------------------------------------------------
  free  energy   TOTEN  =      -302.07914833 eV

  energy  without entropy=     -302.07914833  energy(sigma->0) =     -302.07914833
 


--------------------------------------------------------------------------------------------------------


    POTLOK:  cpu time      0.1554: real time      0.1612


--------------------------------------------------------------------------------------------------------


 writing wavefunctions
     LOOP+:  cpu time   1792.9856: real time   1812.5112
    4ORBIT:  cpu time      0.0000: real time      0.0000



 total charge

# of ion       s       p       d       tot
------------------------------------------
    1        0.216   6.187   7.913  14.315
    2        0.216   6.187   7.913  14.315
    3        0.216   6.187   7.913  14.315
    4        0.216   6.187   7.913  14.315
    5        0.216   6.187   7.913  14.315
    6        0.216   6.187   7.913  14.315
    7        0.216   6.187   7.913  14.315
    8        0.216   6.187   7.913  14.315
    9        0.216   6.187   7.913  14.315
   10        0.216   6.187   7.913  14.315
   11        0.216   6.187   7.913  14.315
   12        0.216   6.187   7.913  14.315
   13        0.216   6.187   7.913  14.315
   14        0.216   6.187   7.913  14.315
   15        0.216   6.187   7.913  14.315
   16        0.216   6.187   7.913  14.315
   17        0.216   6.187   7.913  14.315
   18        0.216   6.187   7.913  14.315
   19        0.216   6.187   7.913  14.315
   20        0.216   6.187   7.913  14.315
   21        0.216   6.187   7.913  14.315
   22        0.216   6.187   7.913  14.315
   23        0.216   6.187   7.913  14.315
   24        0.216   6.187   7.913  14.315
   25        0.216   6.187   7.913  14.315
   26        0.216   6.187   7.913  14.315
   27        0.216   6.187   7.913  14.315
   28        0.216   6.187   7.913  14.315
   29        0.216   6.187   7.913  14.315
   30        0.216   6.187   7.913  14.315
   31        0.216   6.187   7.913  14.315
   32        0.216   6.187   7.913  14.315
   33        1.577   3.494   0.000   5.070
   34        1.577   3.494   0.000   5.070
   35        1.577   3.494   0.000   5.070
   36        1.577   3.494   0.000   5.070
   37        1.577   3.494   0.000   5.070
   38        1.577   3.494   0.000   5.070
   39        1.577   3.494   0.000   5.070
   40        1.577   3.494   0.000   5.070
   41        1.577   3.494   0.000   5.070
   42        1.577   3.494   0.000   5.070
   43        1.577   3.494   0.000   5.070
   44        1.577   3.494   0.000   5.070
   45        1.577   3.494   0.000   5.070
   46        1.577   3.494   0.000   5.070
   47        1.577   3.494   0.000   5.070
   48        1.577   3.494   0.000   5.070
   49        1.577   3.494   0.000   5.070
   50        1.577   3.494   0.000   5.070
   51        1.577   3.494   0.000   5.070
   52        1.577   3.494   0.000   5.070
   53        1.577   3.494   0.000   5.070
   54        1.577   3.494   0.000   5.070
   55        1.577   3.494   0.000   5.070
   56        1.577   3.494   0.000   5.070
   57        1.577   3.494   0.000   5.070
   58        1.577   3.494   0.000   5.070
   59        1.577   3.494   0.000   5.070
   60        1.577   3.494   0.000   5.070
   61        1.577   3.494   0.000   5.070
   62        1.577   3.494   0.000   5.070
   63        1.577   3.494   0.000   5.070
   64        1.577   3.494   0.000   5.070
--------------------------------------------------
tot         57.346 309.771 253.219 620.336



 magnetization (x)

# of ion       s       p       d       tot
------------------------------------------
    1       -0.000  -0.002   1.721   1.719
    2        0.000   0.002  -1.721  -1.719
    3        0.000   0.002  -1.721  -1.719
    4       -0.000  -0.002   1.721   1.719
    5        0.000   0.002  -1.721  -1.719
    6       -0.000  -0.002   1.721   1.719
    7       -0.000  -0.002   1.721   1.719
    8        0.000   0.002  -1.721  -1.719
    9        0.000   0.002  -1.721  -1.719
   10       -0.000  -0.002   1.721   1.719
   11       -0.000  -0.002   1.721   1.719
   12        0.000   0.002  -1.721  -1.719
   13       -0.000  -0.002   1.721   1.719
   14        0.000   0.002  -1.721  -1.719
   15        0.000   0.002  -1.721  -1.719
   16       -0.000  -0.002   1.721   1.719
   17        0.000   0.002  -1.721  -1.719
   18       -0.000  -0.002   1.721   1.719
   19       -0.000  -0.002   1.721   1.719
   20        0.000   0.002  -1.721  -1.719
   21       -0.000  -0.002   1.721   1.719
   22        0.000   0.002  -1.721  -1.719
   23        0.000   0.002  -1.721  -1.719
   24       -0.000  -0.002   1.721   1.719
   25        0.000   0.002  -1.721  -1.719
   26       -0.000  -0.002   1.721   1.719
   27       -0.000  -0.002   1.721   1.719
   28        0.000   0.002  -1.721  -1.719
   29       -0.000  -0.002   1.721   1.719
   30        0.000   0.002  -1.721  -1.719
   31        0.000   0.002  -1.721  -1.719
   32       -0.000  -0.002   1.721   1.719
   33        0.000   0.000   0.000   0.000
   34        0.000   0.000   0.000   0.000
   35        0.000   0.000   0.000   0.000
   36        0.000   0.000   0.000   0.000
   37        0.000   0.000   0.000   0.000
   38        0.000   0.000   0.000   0.000
   39        0.000   0.000   0.000   0.000
   40        0.000   0.000   0.000   0.000
   41        0.000   0.000   0.000   0.000
   42        0.000   0.000   0.000   0.000
   43        0.000   0.000   0.000   0.000
   44        0.000   0.000   0.000   0.000
   45        0.000   0.000   0.000   0.000
   46        0.000   0.000   0.000   0.000
   47        0.000   0.000   0.000   0.000
   48        0.000   0.000   0.000   0.000
   49        0.000   0.000   0.000   0.000
   50        0.000   0.000   0.000   0.000
   51        0.000   0.000   0.000   0.000
   52        0.000   0.000   0.000   0.000
   53        0.000   0.000   0.000   0.000
   54        0.000   0.000   0.000   0.000
   55        0.000   0.000   0.000   0.000
   56        0.000   0.000   0.000   0.000
   57        0.000   0.000   0.000   0.000
   58        0.000   0.000   0.000   0.000
   59        0.000   0.000   0.000   0.000
   60        0.000   0.000   0.000   0.000
   61        0.000   0.000   0.000   0.000
   62        0.000   0.000   0.000   0.000
   63        0.000   0.000   0.000   0.000
   64        0.000   0.000   0.000   0.000
--------------------------------------------------
tot          0.000   0.000  -0.000  -0.000
 

 total amount of memory used by VASP MPI-rank0   161347. kBytes
=======================================================================

   base      :      30000. kBytes
   nonlr-proj:      27467. kBytes
   fftplans  :       2981. kBytes
   grid      :      18372. kBytes
   one-center:       1990. kBytes
   wavefun   :      80537. kBytes
 
  
  
 General timing and accounting informations for this job:
 ========================================================
  
                  Total CPU time used (sec):     1827.719
                            User time (sec):     1750.893
                          System time (sec):       76.825
                         Elapsed time (sec):     1849.442
  
                   Maximum memory used (kb):      362216.
                   Average memory used (kb):          N/A
  
                          Minor page faults:       341746
                          Major page faults:            0
                 Voluntary context switches:         3097
