   1   1   0   0
  0.1429387E+02  0.2724090E-09  0.2724090E-09  0.2724091E-09  0.5000000E-15
  1.000000000000000E-004
  CAR 
 unknown system                          
     38.57060552     -6.27330481  301     10.30299043      1.00000000
     -6.273  0.0000E+00  0.0000E+00
     -6.124  0.0000E+00  0.0000E+00
     -5.974  0.0000E+00  0.0000E+00
     -5.825  0.0000E+00  0.0000E+00
     -5.675  0.0000E+00  0.0000E+00
     -5.526  0.0000E+00  0.0000E+00
     -5.376  0.0000E+00  0.0000E+00
     -5.227  0.0000E+00  0.0000E+00
     -5.077  0.0000E+00  0.0000E+00
     -4.928  0.0000E+00  0.0000E+00
     -4.779  0.0000E+00  0.0000E+00
     -4.629  0.0000E+00  0.0000E+00
     -4.480  0.9053E-16  0.1353E-16
     -4.330  0.1414E-06  0.2114E-07
     -4.181  0.4207E-04  0.6309E-05
     -4.031  0.4989E-03  0.8088E-04
     -3.882  0.3204E-03  0.1288E-03
     -3.732  0.1022E-02  0.2816E-03
     -3.583  0.4818E-03  0.3536E-03
     -3.433  0.4785E-03  0.4251E-03
     -3.284  0.1631E-02  0.6689E-03
     -3.134  0.9378E-03  0.8091E-03
     -2.985  0.1270E-02  0.9989E-03
     -2.835  0.3165E-03  0.1046E-02
     -2.686  0.2161E-02  0.1369E-02
     -2.536  0.1259E-02  0.1557E-02
     -2.387  0.1168E-02  0.1732E-02
     -2.237  0.1534E-02  0.1961E-02
     -2.088  0.3922E-03  0.2020E-02
     -1.938  0.2675E-02  0.2420E-02
     -1.789  0.1526E-02  0.2648E-02
     -1.639  0.3026E-02  0.3100E-02
     -1.490  0.3729E-03  0.3156E-02
     -1.340  0.8478E-03  0.3283E-02
     -1.191  0.2223E-02  0.3615E-02
     -1.042  0.1610E-02  0.3856E-02
     -0.892  0.2908E-02  0.4290E-02
     -0.743  0.8850E-03  0.4423E-02
     -0.593  0.4176E-02  0.5047E-02
     -0.444  0.1155E-02  0.5220E-02
     -0.294  0.1801E-02  0.5489E-02
     -0.145  0.6887E-03  0.5592E-02
      0.005  0.1640E-02  0.5837E-02
      0.154  0.3262E-02  0.6324E-02
      0.304  0.2839E-02  0.6749E-02
      0.453  0.3960E-02  0.7341E-02
      0.603  0.1717E-03  0.7366E-02
      0.752  0.3268E-02  0.7855E-02
      0.902  0.2052E-02  0.8162E-02
      1.051  0.2437E-02  0.8526E-02
      1.201  0.8277E-03  0.8650E-02
      1.350  0.1274E-02  0.8840E-02
      1.500  0.5813E-02  0.9709E-02
      1.649  0.1901E-02  0.9993E-02
      1.799  0.4439E-02  0.1066E-01
      1.948  0.1241E-02  0.1084E-01
      2.098  0.2644E-02  0.1124E-01
      2.247  0.1753E-02  0.1150E-01
      2.397  0.4469E-02  0.1217E-01
      2.546  0.1301E-02  0.1236E-01
      2.695  0.1834E-02  0.1264E-01
      2.845  0.3787E-02  0.1320E-01
      2.994  0.2409E-02  0.1356E-01
      3.144  0.5212E-02  0.1434E-01
      3.293  0.8908E-03  0.1447E-01
      3.443  0.6065E-02  0.1538E-01
      3.592  0.2307E-02  0.1573E-01
      3.742  0.1885E-02  0.1601E-01
      3.891  0.9479E-03  0.1615E-01
      4.041  0.2442E-02  0.1651E-01
      4.190  0.3013E-02  0.1696E-01
      4.340  0.4099E-02  0.1758E-01
      4.489  0.6046E-02  0.1848E-01
      4.639  0.9424E-03  0.1862E-01
      4.788  0.3308E-02  0.1912E-01
      4.938  0.4150E-02  0.1974E-01
      5.087  0.4456E-02  0.2040E-01
      5.237  0.1891E-02  0.2069E-01
      5.386  0.3641E-02  0.2123E-01
      5.536  0.4916E-02  0.2196E-01
      5.685  0.2536E-02  0.2234E-01
      5.835  0.1482E-02  0.2257E-01
      5.984  0.1447E-02  0.2278E-01
      6.134  0.4637E-02  0.2347E-01
      6.283  0.4766E-02  0.2419E-01
      6.432  0.5175E-02  0.2496E-01
      6.582  0.2664E-02  0.2536E-01
      6.731  0.1877E-02  0.2564E-01
      6.881  0.4831E-02  0.2636E-01
      7.030  0.4976E-02  0.2711E-01
      7.180  0.3282E-02  0.2760E-01
      7.329  0.2049E-02  0.2790E-01
      7.479  0.7223E-02  0.2898E-01
      7.628  0.1472E-02  0.2920E-01
      7.778  0.1451E-02  0.2942E-01
      7.927  0.1397E-02  0.2963E-01
      8.077  0.3790E-02  0.3019E-01
      8.226  0.5701E-02  0.3105E-01
      8.376  0.8099E-02  0.3226E-01
      8.525  0.5393E-02  0.3306E-01
      8.675  0.1808E-02  0.3333E-01
      8.824  0.2264E-02  0.3367E-01
      8.974  0.5813E-02  0.3454E-01
      9.123  0.2293E-02  0.3488E-01
      9.273  0.2295E-02  0.3523E-01
      9.422  0.4552E-02  0.3591E-01
      9.572  0.5382E-02  0.3671E-01
      9.721  0.4813E-02  0.3743E-01
      9.871  0.1235E-02  0.3762E-01
     10.020  0.5477E-02  0.3844E-01
     10.169  0.4226E-02  0.3907E-01
     10.319  0.6965E-02  0.4011E-01
     10.468  0.4358E-02  0.4076E-01
     10.618  0.2711E-02  0.4116E-01
     10.767  0.8298E-03  0.4129E-01
     10.917  0.7090E-02  0.4235E-01
     11.066  0.6379E-02  0.4330E-01
     11.216  0.3322E-02  0.4380E-01
     11.365  0.5102E-02  0.4456E-01
     11.515  0.5720E-02  0.4542E-01
     11.664  0.2587E-02  0.4580E-01
     11.814  0.2129E-02  0.4612E-01
     11.963  0.5129E-02  0.4689E-01
     12.113  0.2983E-02  0.4733E-01
     12.262  0.7517E-02  0.4846E-01
     12.412  0.6118E-02  0.4937E-01
     12.561  0.5153E-02  0.5014E-01
     12.711  0.5549E-02  0.5097E-01
     12.860  0.2682E-02  0.5137E-01
     13.010  0.5099E-02  0.5213E-01
     13.159  0.3889E-02  0.5272E-01
     13.309  0.7897E-02  0.5390E-01
     13.458  0.6484E-02  0.5487E-01
     13.607  0.3500E-02  0.5539E-01
     13.757  0.4104E-02  0.5600E-01
     13.906  0.5392E-02  0.5681E-01
     14.056  0.6644E-02  0.5780E-01
     14.205  0.5773E-02  0.5866E-01
     14.355  0.3715E-02  0.5922E-01
     14.504  0.5989E-02  0.6011E-01
     14.654  0.4143E-02  0.6073E-01
     14.803  0.8480E-02  0.6200E-01
     14.953  0.4536E-02  0.6268E-01
     15.102  0.3822E-02  0.6325E-01
     15.252  0.5881E-02  0.6413E-01
     15.401  0.1081E-02  0.6429E-01
     15.551  0.2876E-02  0.6472E-01
     15.700  0.6898E-02  0.6575E-01
     15.850  0.4984E-02  0.6650E-01
     15.999  0.8241E-02  0.6773E-01
     16.149  0.4106E-02  0.6834E-01
     16.298  0.5147E-02  0.6911E-01
     16.448  0.2641E-02  0.6951E-01
     16.597  0.4936E-02  0.7025E-01
     16.747  0.3594E-02  0.7078E-01
     16.896  0.4033E-02  0.7139E-01
     17.046  0.4441E-02  0.7205E-01
     17.195  0.6452E-02  0.7301E-01
     17.344  0.5649E-02  0.7386E-01
     17.494  0.3114E-02  0.7432E-01
     17.643  0.4102E-02  0.7494E-01
     17.793  0.6605E-02  0.7592E-01
     17.942  0.4732E-02  0.7663E-01
     18.092  0.3510E-02  0.7716E-01
     18.241  0.4502E-02  0.7783E-01
     18.391  0.9381E-02  0.7923E-01
     18.540  0.6247E-02  0.8017E-01
     18.690  0.4752E-02  0.8088E-01
     18.839  0.3212E-02  0.8136E-01
     18.989  0.5767E-02  0.8222E-01
     19.138  0.5402E-02  0.8303E-01
     19.288  0.4063E-02  0.8363E-01
     19.437  0.5645E-02  0.8448E-01
     19.587  0.9875E-02  0.8595E-01
     19.736  0.1676E-02  0.8620E-01
     19.886  0.3076E-02  0.8666E-01
     20.035  0.2926E-02  0.8710E-01
     20.185  0.7608E-02  0.8824E-01
     20.334  0.6367E-02  0.8919E-01
     20.484  0.7867E-02  0.9036E-01
     20.633  0.6954E-02  0.9140E-01
     20.783  0.5376E-02  0.9221E-01
     20.932  0.4033E-02  0.9281E-01
     21.081  0.3546E-02  0.9334E-01
     21.231  0.1053E-01  0.9492E-01
     21.380  0.6866E-02  0.9594E-01
     21.530  0.6076E-02  0.9685E-01
     21.679  0.5719E-02  0.9770E-01
     21.829  0.3199E-02  0.9818E-01
     21.978  0.9058E-02  0.9954E-01
     22.128  0.5729E-02  0.1004E+00
     22.277  0.2832E-02  0.1008E+00
     22.427  0.3552E-02  0.1013E+00
     22.576  0.5310E-02  0.1021E+00
     22.726  0.6471E-02  0.1031E+00
     22.875  0.6015E-02  0.1040E+00
     23.025  0.3588E-02  0.1045E+00
     23.174  0.4559E-02  0.1052E+00
     23.324  0.9602E-02  0.1067E+00
     23.473  0.6605E-02  0.1076E+00
     23.623  0.9949E-02  0.1091E+00
     23.772  0.8104E-02  0.1103E+00
     23.922  0.8582E-02  0.1116E+00
     24.071  0.2633E-02  0.1120E+00
     24.221  0.3930E-02  0.1126E+00
     24.370  0.6509E-02  0.1136E+00
     24.520  0.3651E-02  0.1141E+00
     24.669  0.8749E-02  0.1154E+00
     24.818  0.6233E-02  0.1164E+00
     24.968  0.4218E-02  0.1170E+00
     25.117  0.5206E-02  0.1178E+00
     25.267  0.3189E-02  0.1183E+00
     25.416  0.1066E-01  0.1198E+00
     25.566  0.1274E-01  0.1218E+00
     25.715  0.5281E-02  0.1225E+00
     25.865  0.3815E-02  0.1231E+00
     26.014  0.6865E-02  0.1241E+00
     26.164  0.8617E-02  0.1254E+00
     26.313  0.4809E-02  0.1261E+00
     26.463  0.6386E-02  0.1271E+00
     26.612  0.7031E-02  0.1282E+00
     26.762  0.8202E-02  0.1294E+00
     26.911  0.5475E-02  0.1302E+00
     27.061  0.9741E-03  0.1303E+00
     27.210  0.5803E-02  0.1312E+00
     27.360  0.4563E-02  0.1319E+00
     27.509  0.9416E-02  0.1333E+00
     27.659  0.7082E-02  0.1344E+00
     27.808  0.8457E-02  0.1356E+00
     27.958  0.6595E-02  0.1366E+00
     28.107  0.2714E-02  0.1370E+00
     28.257  0.5180E-02  0.1378E+00
     28.406  0.1017E-01  0.1393E+00
     28.555  0.5261E-02  0.1401E+00
     28.705  0.2905E-02  0.1405E+00
     28.854  0.1038E-02  0.1407E+00
     29.004  0.2805E-02  0.1411E+00
     29.153  0.9068E-02  0.1425E+00
     29.303  0.4872E-02  0.1432E+00
     29.452  0.4455E-02  0.1439E+00
     29.602  0.3802E-02  0.1444E+00
     29.751  0.3829E-02  0.1450E+00
     29.901  0.1074E-01  0.1466E+00
     30.050  0.7355E-02  0.1477E+00
     30.200  0.5955E-02  0.1486E+00
     30.349  0.4198E-02  0.1492E+00
     30.499  0.3892E-02  0.1498E+00
     30.648  0.1903E-02  0.1501E+00
     30.798  0.3852E-02  0.1507E+00
     30.947  0.5797E-02  0.1515E+00
     31.097  0.3571E-02  0.1521E+00
     31.246  0.2714E-02  0.1525E+00
     31.396  0.3292E-02  0.1530E+00
     31.545  0.6140E-02  0.1539E+00
     31.695  0.3414E-02  0.1544E+00
     31.844  0.1898E-02  0.1547E+00
     31.993  0.7541E-05  0.1547E+00
     32.143  0.3754E-02  0.1552E+00
     32.292  0.3348E-02  0.1557E+00
     32.442  0.9548E-03  0.1559E+00
     32.591  0.1348E-02  0.1561E+00
     32.741  0.1466E-02  0.1563E+00
     32.890  0.1424E-02  0.1565E+00
     33.040  0.3827E-02  0.1571E+00
     33.189  0.2390E-02  0.1574E+00
     33.339  0.5368E-03  0.1575E+00
     33.488  0.1399E-02  0.1577E+00
     33.638  0.2668E-02  0.1581E+00
     33.787  0.1187E-02  0.1583E+00
     33.937  0.1856E-02  0.1586E+00
     34.086  0.1507E-02  0.1588E+00
     34.236  0.6352E-03  0.1589E+00
     34.385  0.1416E-04  0.1589E+00
     34.535  0.1820E-02  0.1592E+00
     34.684  0.4994E-03  0.1592E+00
     34.834  0.4509E-04  0.1593E+00
     34.983  0.7015E-03  0.1594E+00
     35.133  0.4877E-03  0.1594E+00
     35.282  0.9569E-03  0.1596E+00
     35.432  0.1184E-02  0.1598E+00
     35.581  0.3524E-03  0.1598E+00
     35.730  0.5992E-03  0.1599E+00
     35.880  0.4644E-07  0.1599E+00
     36.029  0.6226E-13  0.1599E+00
     36.179  0.8668E-05  0.1599E+00
     36.328  0.4593E-03  0.1600E+00
     36.478  0.2254E-04  0.1600E+00
     36.627  0.2222E-03  0.1600E+00
     36.777  0.8485E-06  0.1600E+00
     36.926  0.5432E-15  0.1600E+00
     37.076  0.0000E+00  0.1600E+00
     37.225  0.0000E+00  0.1600E+00
     37.375  0.0000E+00  0.1600E+00
     37.524  0.0000E+00  0.1600E+00
     37.674  0.0000E+00  0.1600E+00
     37.823  0.0000E+00  0.1600E+00
     37.973  0.0000E+00  0.1600E+00
     38.122  0.0000E+00  0.1600E+00
     38.272  0.0000E+00  0.1600E+00
     38.421  0.0000E+00  0.1600E+00
     38.571  0.0000E+00  0.1600E+00
