    1    1  100    1
  0.1429387E+02  0.2724090E-09  0.2724090E-09  0.2724091E-09  0.5000000E-15
  1.000000000000000E-004
  CAR 
 unknown system                          
      4    120      8
 
  0.0000000E+00  0.0000000E+00  0.0000000E+00  0.2962963E-03
    1       -4.234945   1.000000
    2       21.621272   0.000000
    3       21.621280   0.000000
    4       21.621289   0.000000
    5       22.308764   0.000000
    6       22.308773   0.000000
    7       22.308781   0.000000
    8       27.673537   0.000000
 
  0.6666667E-01 -0.6938894E-17  0.0000000E+00  0.2370370E-02
    1       -4.104394   1.000000
    2       19.409087   0.000000
    3       20.914124   0.000000
    4       20.914137   0.000000
    5       23.176938   0.000000
    6       23.176953   0.000000
    7       23.408854   0.000000
    8       28.582766   0.000000
 
  0.1333333E+00 -0.1387779E-16  0.0000000E+00  0.2370370E-02
    1       -3.713262   1.000000
    2       16.554671   0.000000
    3       20.141826   0.000000
    4       20.141837   0.000000
    5       23.699739   0.000000
    6       24.284998   0.000000
    7       24.285012   0.000000
    8       27.541407   0.000000
 
  0.2000000E+00 -0.2775558E-16  0.0000000E+00  0.2370370E-02
    1       -3.063149   1.000000
    2       13.704264   0.000000
    3       19.561201   0.000000
    4       19.561211   0.000000
    5       23.630673   0.000000
    6       24.502178   0.000000
    7       24.502188   0.000000
    8       27.525164   0.000000
 
  0.2666667E+00 -0.2775558E-16  0.0000000E+00  0.2370370E-02
    1       -2.156760   1.000000
    2       10.982871   0.000000
    3       19.182117   0.000000
    4       19.182126   0.000000
    5       23.535631   0.000000
    6       23.593030   0.000000
    7       23.593039   0.000000
    8       28.929517   0.000000
 
  0.3333333E+00 -0.1387779E-16  0.0000000E+00  0.2370370E-02
    1       -0.998166   1.000000
    2        8.441225   1.000000
    3       18.992902   0.000000
    4       18.992909   0.000000
    5       22.572759   0.000000
    6       22.572768   0.000000
    7       23.526794   0.000000
    8       27.753853   0.000000
 
  0.4000000E+00 -0.5551115E-16  0.0000000E+00  0.2370370E-02
    1        0.405816   1.000000
    2        6.107181   1.000000
    3       18.957975   0.000000
    4       18.957981   0.000000
    5       21.755092   0.000000
    6       21.755103   0.000000
    7       23.619882   0.000000
    8       26.821224   0.000000
 
  0.4666667E+00 -0.2775558E-16  0.0000000E+00  0.2370370E-02
    1        2.028208   1.000000
    2        4.017702   1.000000
    3       18.996079   0.000000
    4       18.996083   0.000000
    5       21.282161   0.000000
    6       21.282174   0.000000
    7       23.739242   0.000000
    8       26.269295   0.000000
 
  0.6666667E-01  0.6666667E-01  0.0000000E+00  0.1777778E-02
    1       -4.060889   1.000000
    2       19.894936   0.000000
    3       19.894937   0.000000
    4       21.218236   0.000000
    5       21.382470   0.000000
    6       24.253635   0.000000
    7       24.253636   0.000000
    8       27.454416   0.000000
 
  0.1333333E+00  0.6666667E-01  0.0000000E+00  0.7111111E-02
    1       -3.756657   1.000000
    2       17.570146   0.000000
    3       19.046191   0.000000
    4       20.619094   0.000000
    5       21.976709   0.000000
    6       24.976584   0.000000
    7       25.413923   0.000000
    8       25.972215   0.000000
 
  0.2000000E+00  0.6666667E-01  0.0000000E+00  0.7111111E-02
    1       -3.192931   1.000000
    2       14.733897   0.000000
    3       18.405816   0.000000
    4       19.985478   0.000000
    5       22.666667   0.000000
    6       24.764492   0.000000
    7       25.508166   0.000000
    8       26.028371   0.000000
 
  0.2666667E+00  0.6666667E-01  0.0000000E+00  0.7111111E-02
    1       -2.372028   1.000000
    2       11.972512   0.000000
    3       17.982376   0.000000
    4       19.477040   0.000000
    5       22.073708   0.000000
    6       24.618723   0.000000
    7       25.358924   0.000000
    8       26.550528   0.000000
 
  0.3333333E+00  0.6666667E-01  0.0000000E+00  0.7111111E-02
    1       -1.297504   1.000000
    2        9.372161   1.000000
    3       17.776742   0.000000
    4       19.046741   0.000000
    5       21.183158   0.000000
    6       24.310730   0.000000
    7       24.600348   0.000000
    8       28.155718   0.000000
 
  0.4000000E+00  0.6666667E-01  0.0000000E+00  0.7111111E-02
    1        0.025116   1.000000
    2        6.969091   1.000000
    3       17.785241   0.000000
    4       18.572170   0.000000
    5       20.657472   0.000000
    6       23.343252   0.000000
    7       24.624322   0.000000
    8       28.048112   0.000000
 
  0.4666667E+00  0.6666667E-01  0.0000000E+00  0.7111111E-02
    1        1.582199   1.000000
    2        4.790861   1.000000
    3       17.998441   0.000000
    4       18.022563   0.000000
    5       20.624686   0.000000
    6       22.568301   0.000000
    7       24.653540   0.000000
    8       27.500150   0.000000
 
 -0.4666667E+00  0.6666667E-01  0.0000000E+00  0.7111111E-02
    1        2.670320   1.000000
    2        3.547031   1.000000
    3       17.523278   0.000000
    4       18.395812   0.000000
    5       20.983841   0.000000
    6       22.037243   0.000000
    7       24.590851   0.000000
    8       27.411192   0.000000
 
 -0.4000000E+00  0.6666667E-01  0.0000000E+00  0.7111111E-02
    1        1.039213   1.000000
    2        5.489213   1.000000
    3       17.174542   0.000000
    4       18.933057   0.000000
    5       21.638563   0.000000
    6       21.802523   0.000000
    7       24.435153   0.000000
    8       27.814585   0.000000
 
 -0.3333333E+00  0.6666667E-01  0.0000000E+00  0.7111111E-02
    1       -0.442841   1.000000
    2        7.746252   1.000000
    3       17.020185   0.000000
    4       19.525448   0.000000
    5       21.942004   0.000000
    6       22.535296   0.000000
    7       24.295717   0.000000
    8       28.556443   0.000000
 
 -0.2666667E+00  0.6666667E-01  0.0000000E+00  0.7111111E-02
    1       -1.683596   1.000000
    2       10.217510   0.992191
    3       17.078085   0.000000
    4       20.083474   0.000000
    5       22.510410   0.000000
    6       23.623590   0.000000
    7       24.240320   0.000000
    8       28.219109   0.000000
 
 -0.2000000E+00  0.6666667E-01  0.0000000E+00  0.7111111E-02
    1       -2.674070   1.000000
    2       12.875573   0.000000
    3       17.355249   0.000000
    4       20.623668   0.000000
    5       23.330908   0.000000
    6       24.250791   0.000000
    7       24.784012   0.000000
    8       26.526785   0.000000
 
 -0.1333333E+00  0.6666667E-01  0.0000000E+00  0.7111111E-02
    1       -3.409576   1.000000
    2       15.673143   0.000000
    3       17.853869   0.000000
    4       21.222651   0.000000
    5       23.449328   0.000000
    6       24.204692   0.000000
    7       25.420017   0.000000
    8       26.078626   0.000000
 
 -0.6666667E-01  0.6666667E-01  0.0000000E+00  0.3555556E-02
    1       -3.887005   1.000000
    2       18.390183   0.000000
    3       18.672857   0.000000
    4       21.704783   0.000000
    5       22.645465   0.000000
    6       23.840273   0.000000
    7       24.717556   0.000000
    8       27.207203   0.000000
 
  0.1333333E+00  0.1333333E+00  0.0000000E+00  0.1777778E-02
    1       -3.539572   1.000000
    2       18.124584   0.000000
    3       18.124585   0.000000
    4       19.719746   0.000000
    5       20.146448   0.000000
    6       24.152559   0.000000
    7       26.648377   0.000000
    8       26.648378   0.000000
 
  0.2000000E+00  0.1333333E+00  0.0000000E+00  0.7111111E-02
    1       -3.062885   1.000000
    2       15.907693   0.000000
    3       17.412481   0.000000
    4       19.243433   0.000000
    5       20.345401   0.000000
    6       22.836473   0.000000
    7       27.368666   0.000000
    8       27.612671   0.000000
 
  0.2666667E+00  0.1333333E+00  0.0000000E+00  0.7111111E-02
    1       -2.328557   1.000000
    2       13.168544   0.000000
    3       16.919943   0.000000
    4       18.541213   0.000000
    5       20.195912   0.000000
    6       23.219474   0.000000
    7       27.333216   0.000000
    8       27.544958   0.000000
 
  0.3333333E+00  0.1333333E+00  0.0000000E+00  0.7111111E-02
    1       -1.339670   1.000000
    2       10.530135   0.000000
    3       16.649961   0.000000
    4       17.714046   0.000000
    5       19.584732   0.000000
    6       24.721492   0.000000
    7       26.362556   0.000000
    8       27.703794   0.000000
 
  0.4000000E+00  0.1333333E+00  0.0000000E+00  0.7111111E-02
    1       -0.100904   1.000000
    2        8.068825   1.000000
    3       16.602501   0.000000
    4       16.790035   0.000000
    5       19.345133   0.000000
    6       25.368075   0.000000
    7       26.005913   0.000000
    8       28.392867   0.000000
 
  0.4666667E+00  0.1333333E+00  0.0000000E+00  0.7111111E-02
    1        1.378883   1.000000
    2        5.817651   1.000000
    3       15.934926   0.000000
    4       16.775397   0.000000
    5       19.458459   0.000000
    6       24.516956   0.000000
    7       26.393676   0.000000
    8       29.890368   0.000000
 
 -0.4666667E+00  0.1333333E+00  0.0000000E+00  0.7111111E-02
    1        3.011022   1.000000
    2        3.875362   1.000000
    3       15.247014   0.000000
    4       17.163835   0.000000
    5       19.858645   0.000000
    6       23.864881   0.000000
    7       26.300892   0.000000
    8       30.010339   0.000000
 
 -0.4000000E+00  0.1333333E+00  0.0000000E+00  0.7111111E-02
    1        1.921282   1.000000
    2        5.119323   1.000000
    3       14.765440   0.000000
    4       17.758458   0.000000
    5       20.513995   0.000000
    6       23.439113   0.000000
    7       26.062663   0.000000
    8       30.321149   0.000000
 
 -0.3333333E+00  0.1333333E+00  0.0000000E+00  0.7111111E-02
    1        0.366172   1.000000
    2        7.290761   1.000000
    3       14.506965   0.000000
    4       18.540878   0.000000
    5       21.403466   0.000000
    6       23.259799   0.000000
    7       25.826166   0.000000
    8       29.865450   0.000000
 
 -0.2666667E+00  0.1333333E+00  0.0000000E+00  0.7111111E-02
    1       -0.954415   1.000000
    2        9.680259   1.000000
    3       14.480830   0.000000
    4       19.473800   0.000000
    5       22.501235   0.000000
    6       23.346705   0.000000
    7       25.634051   0.000000
    8       27.693931   0.000000
 
 -0.2000000E+00  0.1333333E+00  0.0000000E+00  0.7111111E-02
    1       -2.027220   1.000000
    2       12.246189   0.000000
    3       14.700851   0.000000
    4       20.477224   0.000000
    5       23.687206   0.000000
    6       23.753879   0.000000
    7       25.419186   0.000000
    8       25.805127   0.000000
 
 -0.1333333E+00  0.1333333E+00  0.0000000E+00  0.3555556E-02
    1       -2.846783   1.000000
    2       14.713777   0.000000
    3       15.395834   0.000000
    4       21.336682   0.000000
    5       23.651228   0.000000
    6       24.975945   0.000000
    7       24.982566   0.000000
    8       25.067253   0.000000
 
  0.2000000E+00  0.2000000E+00  0.0000000E+00  0.1777778E-02
    1       -2.673569   1.000000
    2       16.626399   0.000000
    3       16.626400   0.000000
    4       18.129933   0.000000
    5       18.382194   0.000000
    6       21.134233   0.000000
    7       29.084515   0.000000
    8       29.084516   0.000000
 
  0.2666667E+00  0.2000000E+00  0.0000000E+00  0.7111111E-02
    1       -2.026544   1.000000
    2       14.508802   0.000000
    3       16.060077   0.000000
    4       17.200895   0.000000
    5       18.403861   0.000000
    6       20.721978   0.000000
    7       29.397914   0.000000
    8       29.827790   0.000000
 
  0.3333333E+00  0.2000000E+00  0.0000000E+00  0.7111111E-02
    1       -1.124550   1.000000
    2       11.893800   0.000000
    3       15.717610   0.000000
    4       15.955560   0.000000
    5       18.309111   0.000000
    6       22.007054   0.000000
    7       28.585495   0.000000
    8       29.991388   0.000000
 
  0.4000000E+00  0.2000000E+00  0.0000000E+00  0.7111111E-02
    1        0.028377   1.000000
    2        9.395249   1.000000
    3       14.771559   0.000000
    4       15.600046   0.000000
    5       18.200607   0.000000
    6       23.919106   0.000000
    7       27.614504   0.000000
    8       29.914890   0.000000
 
  0.4666667E+00  0.2000000E+00  0.0000000E+00  0.7111111E-02
    1        1.425501   1.000000
    2        7.084507   1.000000
    3       13.753465   0.000000
    4       15.706856   0.000000
    5       18.317869   0.000000
    6       25.945082   0.000000
    7       26.731114   0.000000
    8       29.787500   0.000000
 
 -0.4666667E+00  0.2000000E+00  0.0000000E+00  0.7111111E-02
    1        3.042360   1.000000
    2        5.006265   1.000000
    3       12.943775   0.000000
    4       16.036112   0.000000
    5       18.682200   0.000000
    6       26.016573   0.000000
    7       27.492170   0.000000
    8       30.083806   0.000000
 
 -0.4000000E+00  0.2000000E+00  0.0000000E+00  0.7111111E-02
    1        3.043216   1.000000
    2        5.002569   1.000000
    3       12.361469   0.000000
    4       16.583870   0.000000
    5       19.290467   0.000000
    6       25.505819   0.000000
    7       27.806838   0.000000
    8       31.277243   0.000000
 
 -0.3333333E+00  0.2000000E+00  0.0000000E+00  0.7111111E-02
    1        1.425294   1.000000
    2        7.072828   1.000000
    3       12.018831   0.000000
    4       17.342333   0.000000
    5       20.133224   0.000000
    6       25.217192   0.000000
    7       27.561751   0.000000
    8       29.682889   0.000000
 
 -0.2666667E+00  0.2000000E+00  0.0000000E+00  0.7111111E-02
    1        0.027736   1.000000
    2        9.353145   1.000000
    3       11.938713   0.000000
    4       18.294818   0.000000
    5       21.193086   0.000000
    6       25.162835   0.000000
    7       27.148416   0.000000
    8       27.404539   0.000000
 
 -0.2000000E+00  0.2000000E+00  0.0000000E+00  0.3555556E-02
    1       -1.125296   1.000000
    2       11.512815   0.000000
    3       12.413068   0.000000
    4       19.397986   0.000000
    5       22.433500   0.000000
    6       25.310962   0.000000
    7       25.385964   0.000000
    8       26.472653   0.000000
 
  0.2666667E+00  0.2666667E+00  0.0000000E+00  0.1777778E-02
    1       -1.467281   1.000000
    2       15.418992   0.000000
    3       15.418993   0.000000
    4       15.608600   0.000000
    5       16.800584   0.000000
    6       19.302678   0.000000
    7       31.413212   0.000000
    8       31.413631   0.000000
 
  0.3333333E+00  0.2666667E+00  0.0000000E+00  0.7111111E-02
    1       -0.653070   1.000000
    2       13.369277   0.000000
    3       14.199487   0.000000
    4       15.001958   0.000000
    5       17.133207   0.000000
    6       19.503232   0.000000
    7       30.882928   0.000000
    8       32.093262   0.000000
 
  0.4000000E+00  0.2666667E+00  0.0000000E+00  0.7111111E-02
    1        0.412361   1.000000
    2       10.915669   0.000000
    3       12.843375   0.000000
    4       14.810704   0.000000
    5       17.238550   0.000000
    6       21.123141   0.000000
    7       29.997662   0.000000
    8       32.110604   0.000000
 
  0.4666667E+00  0.2666667E+00  0.0000000E+00  0.7111111E-02
    1        1.723297   1.000000
    2        8.573425   1.000000
    3       11.699170   0.000000
    4       14.845410   0.000000
    5       17.350351   0.000000
    6       23.263472   0.000000
    7       29.120349   0.000000
    8       31.744882   0.000000
 
 -0.4666667E+00  0.2666667E+00  0.0000000E+00  0.7111111E-02
    1        3.266661   1.000000
    2        6.426227   1.000000
    3       10.784907   0.000000
    4       15.105219   0.000000
    5       17.664272   0.000000
    6       25.587749   0.000000
    7       28.368823   0.000000
    8       31.192647   0.000000
 
 -0.4000000E+00  0.2666667E+00  0.0000000E+00  0.7111111E-02
    1        4.364807   1.000000
    2        5.168053   1.000000
    3       10.113729   1.000000
    4       15.588050   0.000000
    5       18.211559   0.000000
    6       27.794065   0.000000
    7       27.854600   0.000000
    8       30.593734   0.000000
 
 -0.3333333E+00  0.2666667E+00  0.0000000E+00  0.7111111E-02
    1        2.728959   1.000000
    2        7.071204   1.000000
    3        9.712464   1.000000
    4       16.289578   0.000000
    5       18.993006   0.000000
    6       27.414372   0.000000
    7       29.184897   0.000000
    8       29.749395   0.000000
 
 -0.2666667E+00  0.2666667E+00  0.0000000E+00  0.3555556E-02
    1        1.258296   1.000000
    2        8.916489   1.000000
    3        9.900122   1.000000
    4       17.200268   0.000000
    5       19.996714   0.000000
    6       27.062570   0.000000
    7       27.590181   0.000000
    8       28.473746   0.000000
 
  0.3333333E+00  0.3333333E+00  0.0000000E+00  0.1777778E-02
    1        0.072627   1.000000
    2       12.473197   0.000000
    3       14.509876   0.000000
    4       14.509877   0.000000
    5       15.784327   0.000000
    6       18.240420   0.000000
    7       32.808636   0.000000
    8       33.521572   0.000000
 
  0.4000000E+00  0.3333333E+00  0.0000000E+00  0.7111111E-02
    1        1.049128   1.000000
    2       11.004396   0.000000
    3       12.665320   0.000000
    4       14.243772   0.000000
    5       16.286836   0.000000
    6       18.703734   0.000000
    7       32.374050   0.000000
    8       34.051499   0.000000
 
  0.4666667E+00  0.3333333E+00  0.0000000E+00  0.7111111E-02
    1        2.270637   1.000000
    2        9.695383   1.000000
    3       10.407815   0.001514
    4       14.204310   0.000000
    5       16.560510   0.000000
    6       20.529729   0.000000
    7       31.580502   0.000000
    8       33.831592   0.000000
 
 -0.4666667E+00  0.3333333E+00  0.0000000E+00  0.7111111E-02
    1        3.725494   1.000000
    2        8.013427   1.000000
    3        8.894079   1.000000
    4       14.391231   0.000000
    5       16.849776   0.000000
    6       22.852559   0.000000
    7       30.824637   0.000000
    8       33.158307   0.000000
 
 -0.4000000E+00  0.3333333E+00  0.0000000E+00  0.7111111E-02
    1        5.342100   1.000000
    2        6.110313   1.000000
    3        8.113153   1.000000
    4       14.803380   0.000000
    5       17.337676   0.000000
    6       25.370255   0.000000
    7       30.175772   0.000000
    8       32.192677   0.000000
 
 -0.3333333E+00  0.3333333E+00  0.0000000E+00  0.3555556E-02
    1        4.265632   1.000000
    2        6.959447   1.000000
    3        7.966227   1.000000
    4       15.438122   0.000000
    5       18.053227   0.000000
    6       27.894402   0.000000
    7       29.411974   0.000000
    8       30.408722   0.000000
 
  0.4000000E+00  0.4000000E+00  0.0000000E+00  0.1777778E-02
    1        1.934858   1.000000
    2        9.459788   1.000000
    3       13.902532   0.000000
    4       13.902533   0.000000
    5       15.100436   0.000000
    6       17.578621   0.000000
    7       34.059742   0.000000
    8       35.322196   0.000000
 
  0.4666667E+00  0.4000000E+00  0.0000000E+00  0.7111111E-02
    1        3.061864   1.000000
    2        8.126815   1.000000
    3       12.173827   0.000000
    4       13.788127   0.000000
    5       15.782356   0.000000
    6       18.230469   0.000000
    7       33.828470   0.000000
    8       35.592732   0.000000
 
 -0.4666667E+00  0.4000000E+00  0.0000000E+00  0.7111111E-02
    1        4.405479   1.000000
    2        7.046878   1.000000
    3       10.007221   1.000000
    4       13.900693   0.000000
    5       16.223677   0.000000
    6       20.230578   0.000000
    7       33.143966   0.000000
    8       34.978692   0.000000
 
 -0.4000000E+00  0.4000000E+00  0.0000000E+00  0.3555556E-02
    1        5.652391   1.000000
    2        6.499525   1.000000
    3        8.022021   1.000000
    4       14.239651   0.000000
    5       16.683116   0.000000
    6       22.713225   0.000000
    7       32.168004   0.000000
    8       33.547971   0.000000
 
  0.4666667E+00  0.4666667E+00  0.0000000E+00  0.1777778E-02
    1        4.075371   1.000000
    2        6.728797   1.000000
    3       13.598567   0.000000
    4       13.598568   0.000000
    5       14.756950   0.000000
    6       17.251849   0.000000
    7       34.959082   0.000000
    8       36.532246   0.000000
 
 -0.4666667E+00  0.4666667E+00  0.0000000E+00  0.3555556E-02
    1        4.998507   1.000000
    2        5.895081   1.000000
    3       12.012484   0.000000
    4       13.636150   0.000000
    5       15.614206   0.000000
    6       18.072813   0.000000
    7       34.637723   0.000000
    8       36.252893   0.000000
 
  0.2000000E+00  0.1333333E+00  0.6666667E-01  0.7111111E-02
    1       -3.366171   1.000000
    2       16.573622   0.000000
    3       17.022543   0.000000
    4       20.988370   0.000000
    5       21.518890   0.000000
    6       24.491510   0.000000
    7       25.898071   0.000000
    8       26.267786   0.000000
 
  0.2666667E+00  0.1333333E+00  0.6666667E-01  0.1422222E-01
    1       -2.717102   1.000000
    2       13.972991   0.000000
    3       16.275755   0.000000
    4       20.319759   0.000000
    5       21.954751   0.000000
    6       24.054995   0.000000
    7       26.107894   0.000000
    8       26.344282   0.000000
 
  0.3333333E+00  0.1333333E+00  0.6666667E-01  0.1422222E-01
    1       -1.812153   1.000000
    2       11.286288   0.000000
    3       15.915945   0.000000
    4       19.434676   0.000000
    5       21.508190   0.000000
    6       24.649904   0.000000
    7       25.566407   0.000000
    8       26.724686   0.000000
 
  0.4000000E+00  0.1333333E+00  0.6666667E-01  0.1422222E-01
    1       -0.655381   1.000000
    2        8.759464   1.000000
    3       15.785990   0.000000
    4       18.480761   0.000000
    5       21.187157   0.000000
    6       23.859937   0.000000
    7       25.854268   0.000000
    8       28.111227   0.000000
 
  0.4666667E+00  0.1333333E+00  0.6666667E-01  0.1422222E-01
    1        0.746470   1.000000
    2        6.433479   1.000000
    3       15.873108   0.000000
    4       17.602146   0.000000
    5       21.156594   0.000000
    6       22.973373   0.000000
    7       26.010780   0.000000
    8       29.527128   0.000000
 
 -0.4666667E+00  0.1333333E+00  0.6666667E-01  0.1422222E-01
    1        2.367401   1.000000
    2        4.347871   1.000000
    3       16.125521   0.000000
    4       16.937635   0.000000
    5       21.307554   0.000000
    6       22.355726   0.000000
    7       26.105978   0.000000
    8       29.259085   0.000000
 
  0.2666667E+00  0.2000000E+00  0.6666667E-01  0.7111111E-02
    1       -2.500973   1.000000
    2       15.009685   0.000000
    3       15.544479   0.000000
    4       18.962908   0.000000
    5       20.037477   0.000000
    6       21.930998   0.000000
    7       27.850246   0.000000
    8       28.507608   0.000000
 
  0.3333333E+00  0.2000000E+00  0.6666667E-01  0.1422222E-01
    1       -1.682709   1.000000
    2       12.549502   0.000000
    3       14.908073   0.000000
    4       17.765277   0.000000
    5       20.257105   0.000000
    6       22.643895   0.000000
    7       27.111660   0.000000
    8       28.967038   0.000000
 
  0.4000000E+00  0.2000000E+00  0.6666667E-01  0.1422222E-01
    1       -0.611645   1.000000
    2        9.996897   1.000000
    3       14.682408   0.000000
    4       16.558706   0.000000
    5       20.119747   0.000000
    6       24.295938   0.000000
    7       26.186816   0.000000
    8       29.108100   0.000000
 
  0.4666667E+00  0.2000000E+00  0.6666667E-01  0.1422222E-01
    1        0.706719   1.000000
    2        7.615213   1.000000
    3       14.645707   0.000000
    4       15.552466   0.000000
    5       20.147886   0.000000
    6       24.841037   0.000000
    7       26.566319   0.000000
    8       29.316714   0.000000
 
 -0.4666667E+00  0.2000000E+00  0.6666667E-01  0.1422222E-01
    1        2.259368   1.000000
    2        5.448387   1.000000
    3       14.397169   0.000000
    4       15.190358   0.000000
    5       20.400612   0.000000
    6       24.155154   0.000000
    7       27.742046   0.000000
    8       30.105642   0.000000
 
 -0.4000000E+00  0.2000000E+00  0.6666667E-01  0.1422222E-01
    1        3.351015   1.000000
    2        4.201990   1.000000
    3       13.834034   0.000000
    4       15.592019   0.000000
    5       20.872395   0.000000
    6       23.588839   0.000000
    7       27.946440   0.000000
    8       31.251572   0.000000
 
 -0.3333333E+00  0.2000000E+00  0.6666667E-01  0.1422222E-01
    1        1.717718   1.000000
    2        6.141535   1.000000
    3       13.430027   0.000000
    4       16.287763   0.000000
    5       21.530775   0.000000
    6       23.259731   0.000000
    7       27.686284   0.000000
    8       30.052494   0.000000
 
 -0.2666667E+00  0.2000000E+00  0.6666667E-01  0.1422222E-01
    1        0.240053   1.000000
    2        8.379882   1.000000
    3       13.251969   0.000000
    4       17.205977   0.000000
    5       22.254600   0.000000
    6       23.275500   0.000000
    7       26.875943   0.000000
    8       28.529997   0.000000
 
 -0.2000000E+00  0.2000000E+00  0.6666667E-01  0.1422222E-01
    1       -0.996752   1.000000
    2       10.805380   0.000000
    3       13.325395   0.000000
    4       18.310297   0.000000
    5       22.749044   0.000000
    6       23.758750   0.000000
    7       25.385879   0.000000
    8       27.889279   0.000000
 
 -0.1333333E+00  0.2000000E+00  0.6666667E-01  0.7111111E-02
    1       -1.984004   1.000000
    2       13.121014   0.000000
    3       13.912523   0.000000
    4       19.516172   0.000000
    5       22.772134   0.000000
    6       23.546944   0.000000
    7       25.338943   0.000000
    8       27.299815   0.000000
 
  0.3333333E+00  0.2666667E+00  0.6666667E-01  0.7111111E-02
    1       -1.295812   1.000000
    2       13.742267   0.000000
    3       14.292782   0.000000
    4       15.967373   0.000000
    5       18.782279   0.000000
    6       20.437706   0.000000
    7       29.227309   0.000000
    8       31.059789   0.000000
 
  0.4000000E+00  0.2666667E+00  0.6666667E-01  0.1422222E-01
    1       -0.311859   1.000000
    2       11.424753   0.000000
    3       13.742049   0.000000
    4       14.664420   0.000000
    5       19.111687   0.000000
    6       21.631089   0.000000
    7       28.358685   0.000000
    8       31.504318   0.000000
 
  0.4666667E+00  0.2666667E+00  0.6666667E-01  0.1422222E-01
    1        0.920554   1.000000
    2        9.019289   1.000000
    3       13.185174   0.000000
    4       13.965542   0.000000
    5       19.176054   0.000000
    6       23.612809   0.000000
    7       27.443336   0.000000
    8       31.430419   0.000000
 
 -0.4666667E+00  0.2666667E+00  0.6666667E-01  0.1422222E-01
    1        2.392611   1.000000
    2        6.793584   1.000000
    3       12.296249   0.000000
    4       14.059419   0.000000
    5       19.398887   0.000000
    6       25.585149   0.000000
    7       26.871696   0.000000
    8       31.083261   0.000000
 
 -0.4000000E+00  0.2666667E+00  0.6666667E-01  0.1422222E-01
    1        4.025706   1.000000
    2        4.853991   1.000000
    3       11.565061   0.000000
    4       14.463192   0.000000
    5       19.837422   0.000000
    6       25.704164   0.000000
    7       28.279863   0.000000
    8       30.467227   0.000000
 
 -0.3333333E+00  0.2666667E+00  0.6666667E-01  0.1422222E-01
    1        2.933249   1.000000
    2        6.091018   1.000000
    3       11.064578   0.000000
    4       15.109966   0.000000
    5       20.494901   0.000000
    6       25.302907   0.000000
    7       29.033474   0.000000
    8       29.913793   0.000000
 
 -0.2666667E+00  0.2666667E+00  0.6666667E-01  0.1422222E-01
    1        1.384821   1.000000
    2        8.213589   1.000000
    3       10.827581   0.000000
    4       15.983490   0.000000
    5       21.356001   0.000000
    6       25.052217   0.000000
    7       27.144139   0.000000
    8       29.865263   0.000000
 
 -0.2000000E+00  0.2666667E+00  0.6666667E-01  0.7111111E-02
    1        0.070701   1.000000
    2       10.217185   0.992386
    3       11.162137   0.000000
    4       17.065870   0.000000
    5       22.370017   0.000000
    6       24.676772   0.000000
    7       25.439934   0.000000
    8       29.113163   0.000000
 
  0.4000000E+00  0.3333333E+00  0.6666667E-01  0.7111111E-02
    1        0.242627   1.000000
    2       12.538653   0.000000
    3       12.785133   0.000000
    4       13.602627   0.000000
    5       17.820613   0.000000
    6       19.481180   0.000000
    7       30.666541   0.000000
    8       33.360022   0.000000
 
  0.4666667E+00  0.3333333E+00  0.6666667E-01  0.1422222E-01
    1        1.386925   1.000000
    2       10.570529   0.000000
    3       11.395711   0.000000
    4       13.151552   0.000000
    5       18.310668   0.000000
    6       20.905084   0.000000
    7       29.848209   0.000000
    8       33.592280   0.000000
 
 -0.4666667E+00  0.3333333E+00  0.6666667E-01  0.1422222E-01
    1        2.772285   1.000000
    2        8.349533   1.000000
    3       10.309042   0.432052
    4       13.225434   0.000000
    5       18.547387   0.000000
    6       23.093514   0.000000
    7       29.030784   0.000000
    8       33.004732   0.000000
 