 running on    4 total cores
 distrk:  each k-point on    4 cores,    1 groups
 distr:  one band on    1 cores,    4 groups
 vasp.6.2.0 18Jan21 (build Aug 12 2022 13:00:08) complex                        
  
 POSCAR found type information on POSCAR Si
 POSCAR found :  1 types and       1 ions
 scaLAPACK will be used
 LDA part: xc-table for Pade appr. of Perdew
 POSCAR, INCAR and KPOINTS ok, starting setup
 FFT: planning ...
 WAVECAR not read
 entering main loop
       N       E                     dE             d eps       ncg     rms          rms(c)
DAV:   1    -0.130462916887E+01   -0.13046E+01   -0.21113E+03  2000   0.495E+02
DAV:   2    -0.488340928213E+01   -0.35788E+01   -0.31486E+01  2880   0.351E+01
DAV:   3    -0.490455522330E+01   -0.21146E-01   -0.21144E-01  2208   0.296E+00
DAV:   4    -0.490457651120E+01   -0.21288E-04   -0.21288E-04  3240   0.104E-01
DAV:   5    -0.490457651882E+01   -0.76148E-08   -0.75593E-08  2224   0.102E-03    0.271E+00
DAV:   6    -0.489134599705E+01    0.13231E-01   -0.39195E-03  2304   0.276E-01    0.150E+00
DAV:   7    -0.488377964640E+01    0.75664E-02   -0.79078E-03  2264   0.391E-01    0.134E-01
DAV:   8    -0.488374280889E+01    0.36838E-04   -0.28521E-05  3008   0.440E-02    0.142E-02
DAV:   9    -0.488374312173E+01   -0.31284E-06   -0.33108E-07  2344   0.339E-03
   1 F= -.48837431E+01 E0= -.48833270E+01  d E =-.488374E+01
 curvature:   0.00 expect dE= 0.000E+00 dE for cont linesearch  0.000E+00
 trial: gam= 0.00000 g(F)=  0.286E-65 g(S)=  0.000E+00 ort = 0.000E+00 (trialstep = 0.100E+01)
 search vector abs. value=  0.100E-09
 reached required accuracy - stopping structural energy minimisation
