<?xml version="1.0" encoding="ISO-8859-1"?>
<modeling>
 <generator>
  <i name="program" type="string">vasp </i>
  <i name="version" type="string">6.2.0  </i>
  <i name="subversion" type="string">18Jan21 (build Aug 12 2022 13:00:08) complex                          parallel </i>
  <i name="platform" type="string">LinuxIFC </i>
  <i name="date" type="string">2024 11 05 </i>
  <i name="time" type="string">05:20:08 </i>
 </generator>
 <incar>
  <i type="int" name="ISTART">     0</i>
  <i type="string" name="PREC">Accurate      (Accurate strictly avoids</i>
  <i type="logical" name="ADDGRID"> T  </i>
  <i type="int" name="ISPIN">     1</i>
  <i type="int" name="NELM">    90</i>
  <i type="int" name="NELMIN">     6</i>
  <i type="int" name="IBRION">     2</i>
  <i name="EDIFF">      0.00000100</i>
  <i name="EDIFFG">     -0.00200000</i>
  <i type="int" name="NSW">   100</i>
  <i type="int" name="ISIF">     2</i>
  <i type="int" name="ISYM">     2</i>
  <i name="ENCUT">    700.00000000</i>
  <i type="logical" name="LREAL"> F  </i>
  <i type="int" name="ISMEAR">     0</i>
  <i name="SIGMA">      0.05000000</i>
  <i type="logical" name="LWAVE"> F  </i>
  <i type="logical" name="LCHARG"> F  </i>
  <i type="logical" name="LASPH"> T  </i>
 </incar>
 <primitive_cell>
  <structure name="primitive_cell" >
   <crystal>
    <varray name="basis" >
     <v>       2.35913197       0.00000000       1.36204434 </v>
     <v>       0.78637732       2.22421072       1.36204434 </v>
     <v>       0.00000000       0.00000000       2.72409069 </v>
    </varray>
    <i name="volume">     14.29386676 </i>
    <varray name="rec_basis" >
     <v>       0.42388472      -0.14986590       0.00000000 </v>
     <v>       0.00000000       0.44959769       0.00000000 </v>
     <v>      -0.21194220      -0.14986579       0.36709497 </v>
    </varray>
   </crystal>
   <varray name="positions" >
    <v>       0.00000000       0.00000000       0.00000000 </v>
   </varray>
  </structure>
  <varray name="primitive_index" >
   <v type="int" >        1 </v>
  </varray>
 </primitive_cell>
 <kpoints>
  <generation param="Monkhorst-Pack">
   <v type="int" name="divisions">      15       15       15 </v>
   <v name="usershift">      0.00000000       0.00000000       0.00000000 </v>
   <v name="genvec1">      0.06666667       0.00000000       0.00000000 </v>
   <v name="genvec2">      0.00000000       0.06666667       0.00000000 </v>
   <v name="genvec3">      0.00000000       0.00000000       0.06666667 </v>
   <v name="shift">      0.00000000       0.00000000       0.00000000 </v>
  </generation>
  <varray name="kpointlist" >
   <v>       0.00000000       0.00000000       0.00000000 </v>
   <v>       0.06666667      -0.00000000       0.00000000 </v>
   <v>       0.13333333      -0.00000000       0.00000000 </v>
   <v>       0.20000000      -0.00000000       0.00000000 </v>
   <v>       0.26666667      -0.00000000       0.00000000 </v>
   <v>       0.33333333      -0.00000000       0.00000000 </v>
   <v>       0.40000000      -0.00000000       0.00000000 </v>
   <v>       0.46666667      -0.00000000       0.00000000 </v>
   <v>       0.06666667       0.06666667       0.00000000 </v>
   <v>       0.13333333       0.06666667       0.00000000 </v>
   <v>       0.20000000       0.06666667       0.00000000 </v>
   <v>       0.26666667       0.06666667       0.00000000 </v>
   <v>       0.33333333       0.06666667       0.00000000 </v>
   <v>       0.40000000       0.06666667       0.00000000 </v>
   <v>       0.46666667       0.06666667       0.00000000 </v>
   <v>      -0.46666667       0.06666667       0.00000000 </v>
   <v>      -0.40000000       0.06666667       0.00000000 </v>
   <v>      -0.33333333       0.06666667       0.00000000 </v>
   <v>      -0.26666667       0.06666667       0.00000000 </v>
   <v>      -0.20000000       0.06666667       0.00000000 </v>
   <v>      -0.13333333       0.06666667       0.00000000 </v>
   <v>      -0.06666667       0.06666667       0.00000000 </v>
   <v>       0.13333333       0.13333333       0.00000000 </v>
   <v>       0.20000000       0.13333333       0.00000000 </v>
   <v>       0.26666667       0.13333333       0.00000000 </v>
   <v>       0.33333333       0.13333333       0.00000000 </v>
   <v>       0.40000000       0.13333333       0.00000000 </v>
   <v>       0.46666667       0.13333333       0.00000000 </v>
   <v>      -0.46666667       0.13333333       0.00000000 </v>
   <v>      -0.40000000       0.13333333       0.00000000 </v>
   <v>      -0.33333333       0.13333333       0.00000000 </v>
   <v>      -0.26666667       0.13333333       0.00000000 </v>
   <v>      -0.20000000       0.13333333       0.00000000 </v>
   <v>      -0.13333333       0.13333333       0.00000000 </v>
   <v>       0.20000000       0.20000000       0.00000000 </v>
   <v>       0.26666667       0.20000000       0.00000000 </v>
   <v>       0.33333333       0.20000000       0.00000000 </v>
   <v>       0.40000000       0.20000000       0.00000000 </v>
   <v>       0.46666667       0.20000000       0.00000000 </v>
   <v>      -0.46666667       0.20000000       0.00000000 </v>
   <v>      -0.40000000       0.20000000       0.00000000 </v>
   <v>      -0.33333333       0.20000000       0.00000000 </v>
   <v>      -0.26666667       0.20000000       0.00000000 </v>
   <v>      -0.20000000       0.20000000       0.00000000 </v>
   <v>       0.26666667       0.26666667       0.00000000 </v>
   <v>       0.33333333       0.26666667       0.00000000 </v>
   <v>       0.40000000       0.26666667       0.00000000 </v>
   <v>       0.46666667       0.26666667       0.00000000 </v>
   <v>      -0.46666667       0.26666667       0.00000000 </v>
   <v>      -0.40000000       0.26666667       0.00000000 </v>
   <v>      -0.33333333       0.26666667       0.00000000 </v>
   <v>      -0.26666667       0.26666667       0.00000000 </v>
   <v>       0.33333333       0.33333333       0.00000000 </v>
   <v>       0.40000000       0.33333333       0.00000000 </v>
   <v>       0.46666667       0.33333333       0.00000000 </v>
   <v>      -0.46666667       0.33333333       0.00000000 </v>
   <v>      -0.40000000       0.33333333       0.00000000 </v>
   <v>      -0.33333333       0.33333333       0.00000000 </v>
   <v>       0.40000000       0.40000000       0.00000000 </v>
   <v>       0.46666667       0.40000000       0.00000000 </v>
   <v>      -0.46666667       0.40000000       0.00000000 </v>
   <v>      -0.40000000       0.40000000       0.00000000 </v>
   <v>       0.46666667       0.46666667       0.00000000 </v>
   <v>      -0.46666667       0.46666667       0.00000000 </v>
   <v>       0.20000000       0.13333333       0.06666667 </v>
   <v>       0.26666667       0.13333333       0.06666667 </v>
   <v>       0.33333333       0.13333333       0.06666667 </v>
   <v>       0.40000000       0.13333333       0.06666667 </v>
   <v>       0.46666667       0.13333333       0.06666667 </v>
   <v>      -0.46666667       0.13333333       0.06666667 </v>
   <v>       0.26666667       0.20000000       0.06666667 </v>
   <v>       0.33333333       0.20000000       0.06666667 </v>
   <v>       0.40000000       0.20000000       0.06666667 </v>
   <v>       0.46666667       0.20000000       0.06666667 </v>
   <v>      -0.46666667       0.20000000       0.06666667 </v>
   <v>      -0.40000000       0.20000000       0.06666667 </v>
   <v>      -0.33333333       0.20000000       0.06666667 </v>
   <v>      -0.26666667       0.20000000       0.06666667 </v>
   <v>      -0.20000000       0.20000000       0.06666667 </v>
   <v>      -0.13333333       0.20000000       0.06666667 </v>
   <v>       0.33333333       0.26666667       0.06666667 </v>
   <v>       0.40000000       0.26666667       0.06666667 </v>
   <v>       0.46666667       0.26666667       0.06666667 </v>
   <v>      -0.46666667       0.26666667       0.06666667 </v>
   <v>      -0.40000000       0.26666667       0.06666667 </v>
   <v>      -0.33333333       0.26666667       0.06666667 </v>
   <v>      -0.26666667       0.26666667       0.06666667 </v>
   <v>      -0.20000000       0.26666667       0.06666667 </v>
   <v>       0.40000000       0.33333333       0.06666667 </v>
   <v>       0.46666667       0.33333333       0.06666667 </v>
   <v>      -0.46666667       0.33333333       0.06666667 </v>
   <v>      -0.40000000       0.33333333       0.06666667 </v>
   <v>      -0.33333333       0.33333333       0.06666667 </v>
   <v>      -0.26666667       0.33333333       0.06666667 </v>
   <v>       0.46666667       0.40000000       0.06666667 </v>
   <v>      -0.46666667       0.40000000       0.06666667 </v>
   <v>      -0.40000000       0.40000000       0.06666667 </v>
   <v>      -0.33333333       0.40000000       0.06666667 </v>
   <v>      -0.46666667       0.46666667       0.06666667 </v>
   <v>      -0.40000000       0.46666667       0.06666667 </v>
   <v>       0.40000000       0.26666667       0.13333333 </v>
   <v>       0.46666667       0.26666667       0.13333333 </v>
   <v>      -0.46666667       0.26666667       0.13333333 </v>
   <v>      -0.40000000       0.26666667       0.13333333 </v>
   <v>       0.46666667       0.33333333       0.13333333 </v>
   <v>      -0.46666667       0.33333333       0.13333333 </v>
   <v>      -0.40000000       0.33333333       0.13333333 </v>
   <v>      -0.33333333       0.33333333       0.13333333 </v>
   <v>      -0.26666667       0.33333333       0.13333333 </v>
   <v>      -0.20000000       0.33333333       0.13333333 </v>
   <v>      -0.46666667       0.40000000       0.13333333 </v>
   <v>      -0.40000000       0.40000000       0.13333333 </v>
   <v>      -0.33333333       0.40000000       0.13333333 </v>
   <v>      -0.26666667       0.40000000       0.13333333 </v>
   <v>      -0.40000000       0.46666667       0.13333333 </v>
   <v>      -0.33333333       0.46666667       0.13333333 </v>
   <v>      -0.40000000       0.40000000       0.20000000 </v>
   <v>      -0.33333333       0.40000000       0.20000000 </v>
   <v>      -0.33333333       0.46666667       0.20000000 </v>
   <v>      -0.26666667       0.46666667       0.20000000 </v>
  </varray>
  <varray name="weights" >
   <v>       0.00029630 </v>
   <v>       0.00237037 </v>
   <v>       0.00237037 </v>
   <v>       0.00237037 </v>
   <v>       0.00237037 </v>
   <v>       0.00237037 </v>
   <v>       0.00237037 </v>
   <v>       0.00237037 </v>
   <v>       0.00177778 </v>
   <v>       0.00711111 </v>
   <v>       0.00711111 </v>
   <v>       0.00711111 </v>
   <v>       0.00711111 </v>
   <v>       0.00711111 </v>
   <v>       0.00711111 </v>
   <v>       0.00711111 </v>
   <v>       0.00711111 </v>
   <v>       0.00711111 </v>
   <v>       0.00711111 </v>
   <v>       0.00711111 </v>
   <v>       0.00711111 </v>
   <v>       0.00355556 </v>
   <v>       0.00177778 </v>
   <v>       0.00711111 </v>
   <v>       0.00711111 </v>
   <v>       0.00711111 </v>
   <v>       0.00711111 </v>
   <v>       0.00711111 </v>
   <v>       0.00711111 </v>
   <v>       0.00711111 </v>
   <v>       0.00711111 </v>
   <v>       0.00711111 </v>
   <v>       0.00711111 </v>
   <v>       0.00355556 </v>
   <v>       0.00177778 </v>
   <v>       0.00711111 </v>
   <v>       0.00711111 </v>
   <v>       0.00711111 </v>
   <v>       0.00711111 </v>
   <v>       0.00711111 </v>
   <v>       0.00711111 </v>
   <v>       0.00711111 </v>
   <v>       0.00711111 </v>
   <v>       0.00355556 </v>
   <v>       0.00177778 </v>
   <v>       0.00711111 </v>
   <v>       0.00711111 </v>
   <v>       0.00711111 </v>
   <v>       0.00711111 </v>
   <v>       0.00711111 </v>
   <v>       0.00711111 </v>
   <v>       0.00355556 </v>
   <v>       0.00177778 </v>
   <v>       0.00711111 </v>
   <v>       0.00711111 </v>
   <v>       0.00711111 </v>
   <v>       0.00711111 </v>
   <v>       0.00355556 </v>
   <v>       0.00177778 </v>
   <v>       0.00711111 </v>
   <v>       0.00711111 </v>
   <v>       0.00355556 </v>
   <v>       0.00177778 </v>
   <v>       0.00355556 </v>
   <v>       0.00711111 </v>
   <v>       0.01422222 </v>
   <v>       0.01422222 </v>
   <v>       0.01422222 </v>
   <v>       0.01422222 </v>
   <v>       0.01422222 </v>
   <v>       0.00711111 </v>
   <v>       0.01422222 </v>
   <v>       0.01422222 </v>
   <v>       0.01422222 </v>
   <v>       0.01422222 </v>
   <v>       0.01422222 </v>
   <v>       0.01422222 </v>
   <v>       0.01422222 </v>
   <v>       0.01422222 </v>
   <v>       0.00711111 </v>
   <v>       0.00711111 </v>
   <v>       0.01422222 </v>
   <v>       0.01422222 </v>
   <v>       0.01422222 </v>
   <v>       0.01422222 </v>
   <v>       0.01422222 </v>
   <v>       0.01422222 </v>
   <v>       0.00711111 </v>
   <v>       0.00711111 </v>
   <v>       0.01422222 </v>
   <v>       0.01422222 </v>
   <v>       0.01422222 </v>
   <v>       0.01422222 </v>
   <v>       0.00711111 </v>
   <v>       0.00711111 </v>
   <v>       0.01422222 </v>
   <v>       0.01422222 </v>
   <v>       0.00711111 </v>
   <v>       0.00711111 </v>
   <v>       0.00711111 </v>
   <v>       0.00711111 </v>
   <v>       0.01422222 </v>
   <v>       0.01422222 </v>
   <v>       0.01422222 </v>
   <v>       0.00711111 </v>
   <v>       0.01422222 </v>
   <v>       0.01422222 </v>
   <v>       0.01422222 </v>
   <v>       0.01422222 </v>
   <v>       0.00711111 </v>
   <v>       0.00711111 </v>
   <v>       0.01422222 </v>
   <v>       0.01422222 </v>
   <v>       0.00711111 </v>
   <v>       0.00711111 </v>
   <v>       0.00711111 </v>
   <v>       0.00711111 </v>
   <v>       0.01422222 </v>
   <v>       0.00711111 </v>
   <v>       0.00711111 </v>
  </varray>
 </kpoints>
 <parameters>
  <separator name="general" >
   <i type="string" name="SYSTEM">unknown system</i>
   <i type="logical" name="LCOMPAT"> F  </i>
  </separator>
  <separator name="electronic" >
   <i type="string" name="PREC">accura</i>
   <i name="ENMAX">    700.00000000</i>
   <i name="ENAUG">    322.06900000</i>
   <i name="EDIFF">      0.00000100</i>
   <i type="int" name="IALGO">    38</i>
   <i type="int" name="IWAVPR">    11</i>
   <i type="int" name="NBANDS">     8</i>
   <i type="int" name="NBANDSLOW">    -1</i>
   <i type="int" name="NBANDSHIGH">    -1</i>
   <i name="NELECT">      4.00000000</i>
   <i type="int" name="TURBO">     0</i>
   <i type="int" name="IRESTART">     0</i>
   <i type="int" name="NREBOOT">     0</i>
   <i type="int" name="NMIN">     0</i>
   <i name="EREF">      0.00000000</i>
   <separator name="electronic smearing" >
    <i type="int" name="ISMEAR">     0</i>
    <i name="SIGMA">      0.05000000</i>
    <i name="KSPACING">      0.50000000</i>
    <i type="logical" name="KGAMMA"> T  </i>
    <i type="logical" name="KBLOWUP"> T  </i>
   </separator>
   <separator name="electronic projectors" >
    <i type="logical" name="LREAL"> F  </i>
    <v name="ROPT">      0.00000000</v>
    <i type="int" name="LMAXPAW">  -100</i>
    <i type="int" name="LMAXMIX">     2</i>
    <i type="logical" name="NLSPLINE"> F  </i>
   </separator>
   <separator name="electronic startup" >
    <i type="int" name="ISTART">     0</i>
    <i type="int" name="ICHARG">     2</i>
    <i type="int" name="INIWAV">     1</i>
   </separator>
   <separator name="electronic spin" >
    <i type="int" name="ISPIN">     1</i>
    <i type="logical" name="LNONCOLLINEAR"> F  </i>
    <v name="MAGMOM">      1.00000000</v>
    <i name="NUPDOWN">     -1.00000000</i>
    <i type="logical" name="LSORBIT"> F  </i>
    <v name="SAXIS">      0.00000000      0.00000000      1.00000000</v>
    <i type="logical" name="LSPIRAL"> F  </i>
    <v name="QSPIRAL">      0.00000000      0.00000000      0.00000000</v>
    <i type="logical" name="LZEROZ"> F  </i>
   </separator>
   <separator name="electronic exchange-correlation" >
    <i type="logical" name="LASPH"> T  </i>
    <i type="logical" name="LMETAGGA"> F  </i>
   </separator>
   <separator name="electronic convergence" >
    <i type="int" name="NELM">    90</i>
    <i type="int" name="NELMDL">    -5</i>
    <i type="int" name="NELMIN">     6</i>
    <i name="ENINI">    700.00000000</i>
    <separator name="electronic convergence detail" >
     <i type="logical" name="LDIAG"> T  </i>
     <i type="logical" name="LSUBROT"> F  </i>
     <i name="WEIMIN">      0.00100000</i>
     <i name="EBREAK">      0.00000003</i>
     <i name="DEPER">      0.30000000</i>
     <i type="int" name="NRMM">     4</i>
     <i name="TIME">      0.40000000</i>
    </separator>
   </separator>
   <separator name="electronic mixer" >
    <i name="AMIX">      0.40000000</i>
    <i name="BMIX">      1.00000000</i>
    <i name="AMIN">      0.10000000</i>
    <i name="AMIX_MAG">      1.60000000</i>
    <i name="BMIX_MAG">      1.00000000</i>
    <separator name="electronic mixer details" >
     <i type="int" name="IMIX">     4</i>
     <i type="logical" name="MIXFIRST"> F  </i>
     <i type="int" name="MAXMIX">   -45</i>
     <i name="WC">    100.00000000</i>
     <i type="int" name="INIMIX">     1</i>
     <i type="int" name="MIXPRE">     1</i>
     <i type="int" name="MREMOVE">     5</i>
    </separator>
   </separator>
   <separator name="electronic dipolcorrection" >
    <i type="logical" name="LDIPOL"> F  </i>
    <i type="logical" name="LMONO"> F  </i>
    <i type="int" name="IDIPOL">     0</i>
    <i name="EPSILON">      1.00000000</i>
    <v name="DIPOL">   -100.00000000   -100.00000000   -100.00000000</v>
    <i name="EFIELD">      0.00000000</i>
   </separator>
  </separator>
  <separator name="grids" >
   <i type="int" name="NGX">    24</i>
   <i type="int" name="NGY">    24</i>
   <i type="int" name="NGZ">    24</i>
   <i type="int" name="NGXF">    48</i>
   <i type="int" name="NGYF">    48</i>
   <i type="int" name="NGZF">    48</i>
   <i type="logical" name="ADDGRID"> T  </i>
  </separator>
  <separator name="ionic" >
   <i type="int" name="NSW">   100</i>
   <i type="int" name="IBRION">     2</i>
   <i type="int" name="MDALGO">     0</i>
   <i type="int" name="ISIF">     2</i>
   <i name="PSTRESS">      0.00000000</i>
   <i name="EDIFFG">     -0.00200000</i>
   <i type="int" name="NFREE">     1</i>
   <i name="POTIM">      0.50000000</i>
   <i name="SMASS">     -3.00000000</i>
   <i name="SCALEE">      1.00000000</i>
  </separator>
  <separator name="ionic md" >
   <i name="TEBEG">      0.00010000</i>
   <i name="TEEND">      0.00010000</i>
   <i type="int" name="NBLOCK">     1</i>
   <i type="int" name="KBLOCK">   100</i>
   <i type="int" name="NPACO">   256</i>
   <i name="APACO">     16.00000000</i>
  </separator>
  <separator name="symmetry" >
   <i type="int" name="ISYM">     2</i>
   <i name="SYMPREC">      0.00001000</i>
  </separator>
  <separator name="dos" >
   <i type="int" name="LORBIT">     0</i>
   <v name="RWIGS">     -1.00000000</v>
   <i type="int" name="NEDOS">   301</i>
   <i name="EMIN">     10.00000000</i>
   <i name="EMAX">    -10.00000000</i>
   <i name="EFERMI">      0.00000000</i>
  </separator>
  <separator name="writing" >
   <i type="int" name="NWRITE">     2</i>
   <i type="logical" name="LWAVE"> F  </i>
   <i type="logical" name="LDOWNSAMPLE"> F  </i>
   <i type="logical" name="LCHARG"> F  </i>
   <i type="logical" name="LPARD"> F  </i>
   <i type="logical" name="LVTOT"> F  </i>
   <i type="logical" name="LVHAR"> F  </i>
   <i type="logical" name="LELF"> F  </i>
   <i type="logical" name="LOPTICS"> F  </i>
   <v name="STM">      0.00000000      0.00000000      0.00000000      0.00000000      0.00000000      0.00000000      0.00000000</v>
  </separator>
  <separator name="performance" >
   <i type="int" name="NPAR">     4</i>
   <i type="int" name="NSIM">     4</i>
   <i type="int" name="NBLK">    -1</i>
   <i type="logical" name="LPLANE"> T  </i>
   <i type="logical" name="LSCALAPACK"> T  </i>
   <i type="logical" name="LSCAAWARE"> F  </i>
   <i type="logical" name="LSCALU"> F  </i>
   <i type="logical" name="LASYNC"> F  </i>
   <i type="logical" name="LORBITALREAL"> F  </i>
  </separator>
  <separator name="miscellaneous" >
   <i type="int" name="IDIOT">     3</i>
   <i type="int" name="PHON_NSTRUCT">    -1</i>
   <i type="logical" name="LMUSIC"> F  </i>
   <v name="POMASS">     28.08500000</v>
   <v name="DARWINR">      0.00000000</v>
   <v name="DARWINV">      1.00000000</v>
   <i type="logical" name="LCORR"> T  </i>
  </separator>
  <i type="logical" name="GGA_COMPAT"> T  </i>
  <i type="logical" name="LBERRY"> F  </i>
  <i type="int" name="ICORELEVEL">     0</i>
  <i type="logical" name="LDAU"> F  </i>
  <i type="int" name="I_CONSTRAINED_M">     0</i>
  <separator name="electronic exchange-correlation" >
   <i type="string" name="GGA">--</i>
   <i type="int" name="VOSKOWN">     0</i>
   <i type="logical" name="LHFCALC"> F  </i>
   <i type="string" name="PRECFOCK"></i>
   <i type="logical" name="LSYMGRAD"> F  </i>
   <i type="logical" name="LHFONE"> F  </i>
   <i type="logical" name="LRHFCALC"> F  </i>
   <i type="logical" name="LTHOMAS"> F  </i>
   <i type="logical" name="LMODELHF"> F  </i>
   <i type="logical" name="LFOCKACE"> F  </i>
   <i name="ENCUT4O">     -1.00000000</i>
   <i type="int" name="EXXOEP">     0</i>
   <i type="int" name="FOURORBIT">     0</i>
   <i name="AEXX">      0.00000000</i>
   <i name="HFALPHA">      0.00000000</i>
   <i name="MCALPHA">      0.00000000</i>
   <i name="ALDAX">      1.00000000</i>
   <i name="AGGAX">      1.00000000</i>
   <i name="ALDAC">      1.00000000</i>
   <i name="AGGAC">      1.00000000</i>
   <i type="int" name="NKREDX">     1</i>
   <i type="int" name="NKREDY">     1</i>
   <i type="int" name="NKREDZ">     1</i>
   <i type="logical" name="SHIFTRED"> F  </i>
   <i type="logical" name="ODDONLY"> F  </i>
   <i type="logical" name="EVENONLY"> F  </i>
   <i type="int" name="LMAXFOCK">     0</i>
   <i type="int" name="NMAXFOCKAE">     0</i>
   <i type="logical" name="LFOCKAEDFT"> F  </i>
   <i name="HFSCREEN">      0.00000000</i>
   <i name="HFSCREENC">      0.00000000</i>
   <i type="int" name="NBANDSGWLOW">     0</i>
  </separator>
  <separator name="vdW DFT" >
   <i type="logical" name="LUSE_VDW"> F  </i>
   <i name="Zab_VDW">     -0.84910000</i>
   <i name="PARAM1">      0.12340000</i>
   <i name="PARAM2">      1.00000000</i>
   <i name="PARAM3">      0.00000000</i>
  </separator>
  <separator name="model GW" >
   <i type="int" name="MODEL_GW">     0</i>
   <i name="MODEL_EPS0">      8.57632005</i>
   <i name="MODEL_ALPHA">      1.00000000</i>
  </separator>
  <separator name="linear response parameters" >
   <i type="logical" name="LEPSILON"> F  </i>
   <i type="logical" name="LRPA"> F  </i>
   <i type="logical" name="LNABLA"> F  </i>
   <i type="logical" name="LVEL"> F  </i>
   <i type="int" name="KINTER">     0</i>
   <i name="CSHIFT">      0.10000000</i>
   <i name="OMEGAMAX">     -1.00000000</i>
   <i name="DEG_THRESHOLD">      0.00200000</i>
   <i name="RTIME">     -0.10000000</i>
   <i name="WPLASMAI">      0.00000000</i>
   <v name="DFIELD">      0.00000000      0.00000000      0.00000000</v>
   <v name="WPLASMA">      0.00000000      0.00000000      0.00000000      0.00000000      0.00000000      0.00000000      0.00000000      0.00000000      0.00000000</v>
  </separator>
  <separator name="orbital magnetization" >
   <i type="logical" name="NUCIND"> F  </i>
   <v name="MAGPOS">      0.00000000      0.00000000      0.00000000</v>
   <i type="logical" name="LNICSALL"> T  </i>
   <i type="logical" name="ORBITALMAG"> F  </i>
   <i type="logical" name="LMAGBLOCH"> F  </i>
   <i type="logical" name="LCHIMAG"> F  </i>
   <i type="logical" name="LGAUGE"> T  </i>
   <i type="int" name="MAGATOM">     0</i>
   <v name="MAGDIPOL">      0.00000000      0.00000000      0.00000000</v>
   <v name="AVECCONST">      0.00000000      0.00000000      0.00000000</v>
  </separator>
  <separator name="response functions" >
   <i type="logical" name="LFINITE_TEMPERATURE"> F  </i>
   <i type="logical" name="LADDER"> F  </i>
   <i type="logical" name="LRPAFORCE"> F  </i>
   <i type="logical" name="LFXC"> F  </i>
   <i type="logical" name="LHARTREE"> T  </i>
   <i type="int" name="IBSE">     0</i>
   <v type="int" name="KPOINT">    -1     0     0     0</v>
   <i type="logical" name="LTCTC"> F  </i>
   <i type="logical" name="LTCTE"> F  </i>
   <i type="logical" name="LTETE"> F  </i>
   <i type="logical" name="LTRIPLET"> F  </i>
   <i type="logical" name="LFXCEPS"> F  </i>
   <i type="logical" name="LFXHEG"> F  </i>
   <i type="int" name="NATURALO">     2</i>
   <i type="logical" name="LHOLEGF"> F  </i>
   <i type="logical" name="L2ORDER"> F  </i>
   <i type="logical" name="LDMP1"> F  </i>
   <i type="logical" name="LMP2LT"> F  </i>
   <i type="logical" name="LSMP2LT"> F  </i>
   <i type="logical" name="LGWLF"> F  </i>
   <i name="ENCUTGW">     -2.00000000</i>
   <i name="ENCUTGWSOFT">     -2.00000000</i>
   <i name="ENCUTLF">     -1.00000000</i>
   <i type="logical" name="LESF_SPLINES"> F  </i>
   <i type="int" name="LMAXMP2">    -1</i>
   <i name="SCISSOR">      0.00000000</i>
   <i type="int" name="NOMEGA">     0</i>
   <i type="int" name="NOMEGAR">     0</i>
   <i type="int" name="NBANDSGW">    -1</i>
   <i type="int" name="NBANDSO">    -1</i>
   <i type="int" name="NBANDSV">    -1</i>
   <i type="int" name="NELM">    90</i>
   <i type="int" name="NELMHF">     1</i>
   <i type="int" name="DIM">     3</i>
   <i type="int" name="IESPILON">     4</i>
   <i type="int" name="ANTIRES">     0</i>
   <i name="OMEGAMAX">    -30.00000000</i>
   <i name="OMEGAMIN">    -30.00000000</i>
   <i name="OMEGATL">   -200.00000000</i>
   <i type="int" name="OMEGAGRID">     0</i>
   <i name="CSHIFT">     -0.10000000</i>
   <i type="logical" name="LSELFENERGY"> F  </i>
   <i type="logical" name="LSPECTRAL"> F  </i>
   <i type="logical" name="LSPECTRALGW"> F  </i>
   <i type="logical" name="LSINGLES"> F  </i>
   <i type="logical" name="LFERMIGW"> F  </i>
   <i type="logical" name="ODDONLYGW"> F  </i>
   <i type="logical" name="EVENONLYGW"> F  </i>
   <i type="int" name="NKREDLFX">     1</i>
   <i type="int" name="NKREDLFY">     1</i>
   <i type="int" name="NKREDLFZ">     1</i>
   <i type="int" name="MAXMEM">  2800</i>
   <i type="int" name="TELESCOPE">     0</i>
   <i type="int" name="NTAUPAR">    -1</i>
   <i type="int" name="NOMEGAPAR">    -1</i>
   <i name="DAMP_NEWTON">      0.80000001</i>
   <i name="LAMBDA">      1.00000000</i>
  </separator>
  <separator name="External order field" >
   <i name="OFIELD_KAPPA">      0.00000000</i>
   <v name="OFIELD_K">      0.00000000      0.00000000      0.00000000</v>
   <i name="OFIELD_Q6_NEAR">      0.00000000</i>
   <i name="OFIELD_Q6_FAR">      0.00000000</i>
   <i name="OFIELD_A">      0.00000000</i>
  </separator>
 </parameters>
 <atominfo>
  <atoms>       1 </atoms>
  <types>       1 </types>
  <array name="atoms" >
   <dimension dim="1">ion</dimension>
   <field type="string">element</field>
   <field type="int">atomtype</field>
   <set>
    <rc><c>Si</c><c>   1</c></rc>
   </set>
  </array>
  <array name="atomtypes" >
   <dimension dim="1">type</dimension>
   <field type="int">atomspertype</field>
   <field type="string">element</field>
   <field>mass</field>
   <field>valence</field>
   <field type="string">pseudopotential</field>
   <set>
    <rc><c>   1</c><c>Si</c><c>     28.08500000</c><c>      4.00000000</c><c>  PAW_PBE Si 05Jan2001                  </c></rc>
   </set>
  </array>
 </atominfo>
 <structure name="initialpos" >
  <crystal>
   <varray name="basis" >
    <v>       2.35913197       0.00000000       1.36204434 </v>
    <v>       0.78637732       2.22421072       1.36204434 </v>
    <v>       0.00000000       0.00000000       2.72409069 </v>
   </varray>
   <i name="volume">     14.29386676 </i>
   <varray name="rec_basis" >
    <v>       0.42388472      -0.14986590       0.00000000 </v>
    <v>       0.00000000       0.44959769       0.00000000 </v>
    <v>      -0.21194220      -0.14986579       0.36709497 </v>
   </varray>
  </crystal>
  <varray name="positions" >
   <v>       0.00000000       0.00000000       0.00000000 </v>
  </varray>
 </structure>
 <calculation>
  <scstep>
   <time name="dav">    1.02    1.02</time>
   <time name="total">    1.24    1.25</time>
   <energy>
    <i name="alphaZ">      2.35507518 </i>
    <i name="ewald">   -137.09946557 </i>
    <i name="hartreedc">     -0.57255669 </i>
    <i name="XCdc">     -8.77363433 </i>
    <i name="pawpsdc">     88.12379961 </i>
    <i name="pawaedc">    -70.53051779 </i>
    <i name="eentropy">     -0.00034257 </i>
    <i name="bandstr">     22.12638931 </i>
    <i name="atom">    103.06662367 </i>
    <i name="e_fr_energy">     -1.30462917 </i>
    <i name="e_wo_entrp">     -1.30428660 </i>
    <i name="e_0_energy">     -1.30445789 </i>
   </energy>
  </scstep>
  <scstep>
   <time name="dav">    1.97    1.98</time>
   <time name="total">    1.97    1.98</time>
   <energy>
    <i name="e_fr_energy">     -4.88340928 </i>
    <i name="e_wo_entrp">     -4.88262498 </i>
    <i name="e_0_energy">     -4.88301713 </i>
   </energy>
  </scstep>
  <scstep>
   <time name="dav">    1.27    1.29</time>
   <time name="total">    1.27    1.29</time>
   <energy>
    <i name="e_fr_energy">     -4.90455522 </i>
    <i name="e_wo_entrp">     -4.90374990 </i>
    <i name="e_0_energy">     -4.90415256 </i>
   </energy>
  </scstep>
  <scstep>
   <time name="dav">    1.55    1.57</time>
   <time name="total">    1.55    1.57</time>
   <energy>
    <i name="e_fr_energy">     -4.90457651 </i>
    <i name="e_wo_entrp">     -4.90377115 </i>
    <i name="e_0_energy">     -4.90417383 </i>
   </energy>
  </scstep>
  <scstep>
   <time name="dav">    1.15    1.16</time>
   <time name="total">    1.24    1.25</time>
   <energy>
    <i name="e_fr_energy">     -4.90457652 </i>
    <i name="e_wo_entrp">     -4.90377116 </i>
    <i name="e_0_energy">     -4.90417384 </i>
   </energy>
  </scstep>
  <scstep>
   <time name="dav">    1.12    1.12</time>
   <time name="total">    1.41    1.43</time>
   <energy>
    <i name="e_fr_energy">     -4.89134600 </i>
    <i name="e_wo_entrp">     -4.89052353 </i>
    <i name="e_0_energy">     -4.89093476 </i>
   </energy>
  </scstep>
  <scstep>
   <time name="dav">    1.17    1.17</time>
   <time name="total">    1.46    1.48</time>
   <energy>
    <i name="e_fr_energy">     -4.88377965 </i>
    <i name="e_wo_entrp">     -4.88294831 </i>
    <i name="e_0_energy">     -4.88336398 </i>
   </energy>
  </scstep>
  <scstep>
   <time name="dav">    1.46    1.46</time>
   <time name="total">    1.75    1.77</time>
   <energy>
    <i name="e_fr_energy">     -4.88374281 </i>
    <i name="e_wo_entrp">     -4.88291067 </i>
    <i name="e_0_energy">     -4.88332674 </i>
   </energy>
  </scstep>
  <scstep>
   <time name="dav">    1.15    1.15</time>
   <time name="total">    1.36    1.37</time>
   <energy>
    <i name="alphaZ">      2.35507518 </i>
    <i name="ewald">   -137.09946557 </i>
    <i name="hartreedc">     -0.42900755 </i>
    <i name="XCdc">     -8.71745218 </i>
    <i name="pawpsdc">    304.97851518 </i>
    <i name="pawaedc">   -287.39419222 </i>
    <i name="eentropy">     -0.00083224 </i>
    <i name="bandstr">     18.35699262 </i>
    <i name="atom">    103.06662367 </i>
    <i name="e_fr_energy">     -4.88374312 </i>
    <i name="e_wo_entrp">     -4.88291088 </i>
    <i name="e_0_energy">     -4.88332700 </i>
   </energy>
  </scstep>
  <structure>
   <crystal>
    <varray name="basis" >
     <v>       2.35913197       0.00000000       1.36204434 </v>
     <v>       0.78637732       2.22421072       1.36204434 </v>
     <v>       0.00000000       0.00000000       2.72409069 </v>
    </varray>
    <i name="volume">     14.29386676 </i>
    <varray name="rec_basis" >
     <v>       0.42388472      -0.14986590       0.00000000 </v>
     <v>       0.00000000       0.44959769       0.00000000 </v>
     <v>      -0.21194220      -0.14986579       0.36709497 </v>
    </varray>
   </crystal>
   <varray name="positions" >
    <v>       0.00000000       0.00000000       0.00000000 </v>
   </varray>
  </structure>
  <varray name="forces" >
   <v>       0.00000000       0.00000000       0.00000000 </v>
  </varray>
  <varray name="stress" >
   <v>       8.66179572      -0.00000000      -0.00000369 </v>
   <v>      -0.00000000       8.66179391      -0.00000261 </v>
   <v>      -0.00000369      -0.00000261       8.66179399 </v>
  </varray>
  <energy>
   <i name="e_fr_energy">     -4.88374312 </i>
   <i name="e_wo_entrp">     -4.88291088 </i>
   <i name="e_0_energy">     -4.88332700 </i>
  </energy>
  <time name="totalsc">   14.96   15.22</time>
  <eigenvalues>
   <array>
    <dimension dim="1">band</dimension>
    <dimension dim="2">kpoint</dimension>
    <dimension dim="3">spin</dimension>
    <field>eigene</field>
    <field>occ</field>
    <set>
     <set comment="spin 1">
      <set comment="kpoint 1">
       <r>   -4.2349    1.0000 </r>
       <r>   21.6213    0.0000 </r>
       <r>   21.6213    0.0000 </r>
       <r>   21.6213    0.0000 </r>
       <r>   22.3088    0.0000 </r>
       <r>   22.3088    0.0000 </r>
       <r>   22.3088    0.0000 </r>
       <r>   27.6735    0.0000 </r>
      </set>
      <set comment="kpoint 2">
       <r>   -4.1044    1.0000 </r>
       <r>   19.4091    0.0000 </r>
       <r>   20.9141    0.0000 </r>
       <r>   20.9141    0.0000 </r>
       <r>   23.1769    0.0000 </r>
       <r>   23.1770    0.0000 </r>
       <r>   23.4089    0.0000 </r>
       <r>   28.5828    0.0000 </r>
      </set>
      <set comment="kpoint 3">
       <r>   -3.7133    1.0000 </r>
       <r>   16.5547    0.0000 </r>
       <r>   20.1418    0.0000 </r>
       <r>   20.1418    0.0000 </r>
       <r>   23.6997    0.0000 </r>
       <r>   24.2850    0.0000 </r>
       <r>   24.2850    0.0000 </r>
       <r>   27.5414    0.0000 </r>
      </set>
      <set comment="kpoint 4">
       <r>   -3.0631    1.0000 </r>
       <r>   13.7043    0.0000 </r>
       <r>   19.5612    0.0000 </r>
       <r>   19.5612    0.0000 </r>
       <r>   23.6307    0.0000 </r>
       <r>   24.5022    0.0000 </r>
       <r>   24.5022    0.0000 </r>
       <r>   27.5252    0.0000 </r>
      </set>
      <set comment="kpoint 5">
       <r>   -2.1568    1.0000 </r>
       <r>   10.9829    0.0000 </r>
       <r>   19.1821    0.0000 </r>
       <r>   19.1821    0.0000 </r>
       <r>   23.5356    0.0000 </r>
       <r>   23.5930    0.0000 </r>
       <r>   23.5930    0.0000 </r>
       <r>   28.9295    0.0000 </r>
      </set>
      <set comment="kpoint 6">
       <r>   -0.9982    1.0000 </r>
       <r>    8.4412    1.0000 </r>
       <r>   18.9929    0.0000 </r>
       <r>   18.9929    0.0000 </r>
       <r>   22.5728    0.0000 </r>
       <r>   22.5728    0.0000 </r>
       <r>   23.5268    0.0000 </r>
       <r>   27.7539    0.0000 </r>
      </set>
      <set comment="kpoint 7">
       <r>    0.4058    1.0000 </r>
       <r>    6.1072    1.0000 </r>
       <r>   18.9580    0.0000 </r>
       <r>   18.9580    0.0000 </r>
       <r>   21.7551    0.0000 </r>
       <r>   21.7551    0.0000 </r>
       <r>   23.6199    0.0000 </r>
       <r>   26.8212    0.0000 </r>
      </set>
      <set comment="kpoint 8">
       <r>    2.0282    1.0000 </r>
       <r>    4.0177    1.0000 </r>
       <r>   18.9961    0.0000 </r>
       <r>   18.9961    0.0000 </r>
       <r>   21.2822    0.0000 </r>
       <r>   21.2822    0.0000 </r>
       <r>   23.7392    0.0000 </r>
       <r>   26.2693    0.0000 </r>
      </set>
      <set comment="kpoint 9">
       <r>   -4.0609    1.0000 </r>
       <r>   19.8949    0.0000 </r>
       <r>   19.8949    0.0000 </r>
       <r>   21.2182    0.0000 </r>
       <r>   21.3825    0.0000 </r>
       <r>   24.2536    0.0000 </r>
       <r>   24.2536    0.0000 </r>
       <r>   27.4544    0.0000 </r>
      </set>
      <set comment="kpoint 10">
       <r>   -3.7567    1.0000 </r>
       <r>   17.5701    0.0000 </r>
       <r>   19.0462    0.0000 </r>
       <r>   20.6191    0.0000 </r>
       <r>   21.9767    0.0000 </r>
       <r>   24.9766    0.0000 </r>
       <r>   25.4139    0.0000 </r>
       <r>   25.9722    0.0000 </r>
      </set>
      <set comment="kpoint 11">
       <r>   -3.1929    1.0000 </r>
       <r>   14.7339    0.0000 </r>
       <r>   18.4058    0.0000 </r>
       <r>   19.9855    0.0000 </r>
       <r>   22.6667    0.0000 </r>
       <r>   24.7645    0.0000 </r>
       <r>   25.5082    0.0000 </r>
       <r>   26.0284    0.0000 </r>
      </set>
      <set comment="kpoint 12">
       <r>   -2.3720    1.0000 </r>
       <r>   11.9725    0.0000 </r>
       <r>   17.9824    0.0000 </r>
       <r>   19.4770    0.0000 </r>
       <r>   22.0737    0.0000 </r>
       <r>   24.6187    0.0000 </r>
       <r>   25.3589    0.0000 </r>
       <r>   26.5505    0.0000 </r>
      </set>
      <set comment="kpoint 13">
       <r>   -1.2975    1.0000 </r>
       <r>    9.3722    1.0000 </r>
       <r>   17.7767    0.0000 </r>
       <r>   19.0467    0.0000 </r>
       <r>   21.1832    0.0000 </r>
       <r>   24.3107    0.0000 </r>
       <r>   24.6003    0.0000 </r>
       <r>   28.1557    0.0000 </r>
      </set>
      <set comment="kpoint 14">
       <r>    0.0251    1.0000 </r>
       <r>    6.9691    1.0000 </r>
       <r>   17.7852    0.0000 </r>
       <r>   18.5722    0.0000 </r>
       <r>   20.6575    0.0000 </r>
       <r>   23.3433    0.0000 </r>
       <r>   24.6243    0.0000 </r>
       <r>   28.0481    0.0000 </r>
      </set>
      <set comment="kpoint 15">
       <r>    1.5822    1.0000 </r>
       <r>    4.7909    1.0000 </r>
       <r>   17.9984    0.0000 </r>
       <r>   18.0226    0.0000 </r>
       <r>   20.6247    0.0000 </r>
       <r>   22.5683    0.0000 </r>
       <r>   24.6535    0.0000 </r>
       <r>   27.5001    0.0000 </r>
      </set>
      <set comment="kpoint 16">
       <r>    2.6703    1.0000 </r>
       <r>    3.5470    1.0000 </r>
       <r>   17.5233    0.0000 </r>
       <r>   18.3958    0.0000 </r>
       <r>   20.9838    0.0000 </r>
       <r>   22.0372    0.0000 </r>
       <r>   24.5909    0.0000 </r>
       <r>   27.4112    0.0000 </r>
      </set>
      <set comment="kpoint 17">
       <r>    1.0392    1.0000 </r>
       <r>    5.4892    1.0000 </r>
       <r>   17.1745    0.0000 </r>
       <r>   18.9331    0.0000 </r>
       <r>   21.6386    0.0000 </r>
       <r>   21.8025    0.0000 </r>
       <r>   24.4352    0.0000 </r>
       <r>   27.8146    0.0000 </r>
      </set>
      <set comment="kpoint 18">
       <r>   -0.4428    1.0000 </r>
       <r>    7.7463    1.0000 </r>
       <r>   17.0202    0.0000 </r>
       <r>   19.5254    0.0000 </r>
       <r>   21.9420    0.0000 </r>
       <r>   22.5353    0.0000 </r>
       <r>   24.2957    0.0000 </r>
       <r>   28.5564    0.0000 </r>
      </set>
      <set comment="kpoint 19">
       <r>   -1.6836    1.0000 </r>
       <r>   10.2175    0.9922 </r>
       <r>   17.0781    0.0000 </r>
       <r>   20.0835    0.0000 </r>
       <r>   22.5104    0.0000 </r>
       <r>   23.6236    0.0000 </r>
       <r>   24.2403    0.0000 </r>
       <r>   28.2191    0.0000 </r>
      </set>
      <set comment="kpoint 20">
       <r>   -2.6741    1.0000 </r>
       <r>   12.8756    0.0000 </r>
       <r>   17.3552    0.0000 </r>
       <r>   20.6237    0.0000 </r>
       <r>   23.3309    0.0000 </r>
       <r>   24.2508    0.0000 </r>
       <r>   24.7840    0.0000 </r>
       <r>   26.5268    0.0000 </r>
      </set>
      <set comment="kpoint 21">
       <r>   -3.4096    1.0000 </r>
       <r>   15.6731    0.0000 </r>
       <r>   17.8539    0.0000 </r>
       <r>   21.2227    0.0000 </r>
       <r>   23.4493    0.0000 </r>
       <r>   24.2047    0.0000 </r>
       <r>   25.4200    0.0000 </r>
       <r>   26.0786    0.0000 </r>
      </set>
      <set comment="kpoint 22">
       <r>   -3.8870    1.0000 </r>
       <r>   18.3902    0.0000 </r>
       <r>   18.6729    0.0000 </r>
       <r>   21.7048    0.0000 </r>
       <r>   22.6455    0.0000 </r>
       <r>   23.8403    0.0000 </r>
       <r>   24.7176    0.0000 </r>
       <r>   27.2072    0.0000 </r>
      </set>
      <set comment="kpoint 23">
       <r>   -3.5396    1.0000 </r>
       <r>   18.1246    0.0000 </r>
       <r>   18.1246    0.0000 </r>
       <r>   19.7197    0.0000 </r>
       <r>   20.1464    0.0000 </r>
       <r>   24.1526    0.0000 </r>
       <r>   26.6484    0.0000 </r>
       <r>   26.6484    0.0000 </r>
      </set>
      <set comment="kpoint 24">
       <r>   -3.0629    1.0000 </r>
       <r>   15.9077    0.0000 </r>
       <r>   17.4125    0.0000 </r>
       <r>   19.2434    0.0000 </r>
       <r>   20.3454    0.0000 </r>
       <r>   22.8365    0.0000 </r>
       <r>   27.3687    0.0000 </r>
       <r>   27.6127    0.0000 </r>
      </set>
      <set comment="kpoint 25">
       <r>   -2.3286    1.0000 </r>
       <r>   13.1685    0.0000 </r>
       <r>   16.9199    0.0000 </r>
       <r>   18.5412    0.0000 </r>
       <r>   20.1959    0.0000 </r>
       <r>   23.2195    0.0000 </r>
       <r>   27.3332    0.0000 </r>
       <r>   27.5450    0.0000 </r>
      </set>
      <set comment="kpoint 26">
       <r>   -1.3397    1.0000 </r>
       <r>   10.5301    0.0000 </r>
       <r>   16.6500    0.0000 </r>
       <r>   17.7140    0.0000 </r>
       <r>   19.5847    0.0000 </r>
       <r>   24.7215    0.0000 </r>
       <r>   26.3626    0.0000 </r>
       <r>   27.7038    0.0000 </r>
      </set>
      <set comment="kpoint 27">
       <r>   -0.1009    1.0000 </r>
       <r>    8.0688    1.0000 </r>
       <r>   16.6025    0.0000 </r>
       <r>   16.7900    0.0000 </r>
       <r>   19.3451    0.0000 </r>
       <r>   25.3681    0.0000 </r>
       <r>   26.0059    0.0000 </r>
       <r>   28.3929    0.0000 </r>
      </set>
      <set comment="kpoint 28">
       <r>    1.3789    1.0000 </r>
       <r>    5.8177    1.0000 </r>
       <r>   15.9349    0.0000 </r>
       <r>   16.7754    0.0000 </r>
       <r>   19.4585    0.0000 </r>
       <r>   24.5170    0.0000 </r>
       <r>   26.3937    0.0000 </r>
       <r>   29.8904    0.0000 </r>
      </set>
      <set comment="kpoint 29">
       <r>    3.0110    1.0000 </r>
       <r>    3.8754    1.0000 </r>
       <r>   15.2470    0.0000 </r>
       <r>   17.1638    0.0000 </r>
       <r>   19.8586    0.0000 </r>
       <r>   23.8649    0.0000 </r>
       <r>   26.3009    0.0000 </r>
       <r>   30.0103    0.0000 </r>
      </set>
      <set comment="kpoint 30">
       <r>    1.9213    1.0000 </r>
       <r>    5.1193    1.0000 </r>
       <r>   14.7654    0.0000 </r>
       <r>   17.7585    0.0000 </r>
       <r>   20.5140    0.0000 </r>
       <r>   23.4391    0.0000 </r>
       <r>   26.0627    0.0000 </r>
       <r>   30.3211    0.0000 </r>
      </set>
      <set comment="kpoint 31">
       <r>    0.3662    1.0000 </r>
       <r>    7.2908    1.0000 </r>
       <r>   14.5070    0.0000 </r>
       <r>   18.5409    0.0000 </r>
       <r>   21.4035    0.0000 </r>
       <r>   23.2598    0.0000 </r>
       <r>   25.8262    0.0000 </r>
       <r>   29.8655    0.0000 </r>
      </set>
      <set comment="kpoint 32">
       <r>   -0.9544    1.0000 </r>
       <r>    9.6803    1.0000 </r>
       <r>   14.4808    0.0000 </r>
       <r>   19.4738    0.0000 </r>
       <r>   22.5012    0.0000 </r>
       <r>   23.3467    0.0000 </r>
       <r>   25.6341    0.0000 </r>
       <r>   27.6939    0.0000 </r>
      </set>
      <set comment="kpoint 33">
       <r>   -2.0272    1.0000 </r>
       <r>   12.2462    0.0000 </r>
       <r>   14.7009    0.0000 </r>
       <r>   20.4772    0.0000 </r>
       <r>   23.6872    0.0000 </r>
       <r>   23.7539    0.0000 </r>
       <r>   25.4192    0.0000 </r>
       <r>   25.8051    0.0000 </r>
      </set>
      <set comment="kpoint 34">
       <r>   -2.8468    1.0000 </r>
       <r>   14.7138    0.0000 </r>
       <r>   15.3958    0.0000 </r>
       <r>   21.3367    0.0000 </r>
       <r>   23.6512    0.0000 </r>
       <r>   24.9759    0.0000 </r>
       <r>   24.9826    0.0000 </r>
       <r>   25.0673    0.0000 </r>
      </set>
      <set comment="kpoint 35">
       <r>   -2.6736    1.0000 </r>
       <r>   16.6264    0.0000 </r>
       <r>   16.6264    0.0000 </r>
       <r>   18.1299    0.0000 </r>
       <r>   18.3822    0.0000 </r>
       <r>   21.1342    0.0000 </r>
       <r>   29.0845    0.0000 </r>
       <r>   29.0845    0.0000 </r>
      </set>
      <set comment="kpoint 36">
       <r>   -2.0265    1.0000 </r>
       <r>   14.5088    0.0000 </r>
       <r>   16.0601    0.0000 </r>
       <r>   17.2009    0.0000 </r>
       <r>   18.4039    0.0000 </r>
       <r>   20.7220    0.0000 </r>
       <r>   29.3979    0.0000 </r>
       <r>   29.8278    0.0000 </r>
      </set>
      <set comment="kpoint 37">
       <r>   -1.1246    1.0000 </r>
       <r>   11.8938    0.0000 </r>
       <r>   15.7176    0.0000 </r>
       <r>   15.9556    0.0000 </r>
       <r>   18.3091    0.0000 </r>
       <r>   22.0071    0.0000 </r>
       <r>   28.5855    0.0000 </r>
       <r>   29.9914    0.0000 </r>
      </set>
      <set comment="kpoint 38">
       <r>    0.0284    1.0000 </r>
       <r>    9.3952    1.0000 </r>
       <r>   14.7716    0.0000 </r>
       <r>   15.6000    0.0000 </r>
       <r>   18.2006    0.0000 </r>
       <r>   23.9191    0.0000 </r>
       <r>   27.6145    0.0000 </r>
       <r>   29.9149    0.0000 </r>
      </set>
      <set comment="kpoint 39">
       <r>    1.4255    1.0000 </r>
       <r>    7.0845    1.0000 </r>
       <r>   13.7535    0.0000 </r>
       <r>   15.7069    0.0000 </r>
       <r>   18.3179    0.0000 </r>
       <r>   25.9451    0.0000 </r>
       <r>   26.7311    0.0000 </r>
       <r>   29.7875    0.0000 </r>
      </set>
      <set comment="kpoint 40">
       <r>    3.0424    1.0000 </r>
       <r>    5.0063    1.0000 </r>
       <r>   12.9438    0.0000 </r>
       <r>   16.0361    0.0000 </r>
       <r>   18.6822    0.0000 </r>
       <r>   26.0166    0.0000 </r>
       <r>   27.4922    0.0000 </r>
       <r>   30.0838    0.0000 </r>
      </set>
      <set comment="kpoint 41">
       <r>    3.0432    1.0000 </r>
       <r>    5.0026    1.0000 </r>
       <r>   12.3615    0.0000 </r>
       <r>   16.5839    0.0000 </r>
       <r>   19.2905    0.0000 </r>
       <r>   25.5058    0.0000 </r>
       <r>   27.8068    0.0000 </r>
       <r>   31.2772    0.0000 </r>
      </set>
      <set comment="kpoint 42">
       <r>    1.4253    1.0000 </r>
       <r>    7.0728    1.0000 </r>
       <r>   12.0188    0.0000 </r>
       <r>   17.3423    0.0000 </r>
       <r>   20.1332    0.0000 </r>
       <r>   25.2172    0.0000 </r>
       <r>   27.5618    0.0000 </r>
       <r>   29.6829    0.0000 </r>
      </set>
      <set comment="kpoint 43">
       <r>    0.0277    1.0000 </r>
       <r>    9.3531    1.0000 </r>
       <r>   11.9387    0.0000 </r>
       <r>   18.2948    0.0000 </r>
       <r>   21.1931    0.0000 </r>
       <r>   25.1628    0.0000 </r>
       <r>   27.1484    0.0000 </r>
       <r>   27.4045    0.0000 </r>
      </set>
      <set comment="kpoint 44">
       <r>   -1.1253    1.0000 </r>
       <r>   11.5128    0.0000 </r>
       <r>   12.4131    0.0000 </r>
       <r>   19.3980    0.0000 </r>
       <r>   22.4335    0.0000 </r>
       <r>   25.3110    0.0000 </r>
       <r>   25.3860    0.0000 </r>
       <r>   26.4727    0.0000 </r>
      </set>
      <set comment="kpoint 45">
       <r>   -1.4673    1.0000 </r>
       <r>   15.4190    0.0000 </r>
       <r>   15.4190    0.0000 </r>
       <r>   15.6086    0.0000 </r>
       <r>   16.8006    0.0000 </r>
       <r>   19.3027    0.0000 </r>
       <r>   31.4132    0.0000 </r>
       <r>   31.4136    0.0000 </r>
      </set>
      <set comment="kpoint 46">
       <r>   -0.6531    1.0000 </r>
       <r>   13.3693    0.0000 </r>
       <r>   14.1995    0.0000 </r>
       <r>   15.0020    0.0000 </r>
       <r>   17.1332    0.0000 </r>
       <r>   19.5032    0.0000 </r>
       <r>   30.8829    0.0000 </r>
       <r>   32.0933    0.0000 </r>
      </set>
      <set comment="kpoint 47">
       <r>    0.4124    1.0000 </r>
       <r>   10.9157    0.0000 </r>
       <r>   12.8434    0.0000 </r>
       <r>   14.8107    0.0000 </r>
       <r>   17.2385    0.0000 </r>
       <r>   21.1231    0.0000 </r>
       <r>   29.9977    0.0000 </r>
       <r>   32.1106    0.0000 </r>
      </set>
      <set comment="kpoint 48">
       <r>    1.7233    1.0000 </r>
       <r>    8.5734    1.0000 </r>
       <r>   11.6992    0.0000 </r>
       <r>   14.8454    0.0000 </r>
       <r>   17.3504    0.0000 </r>
       <r>   23.2635    0.0000 </r>
       <r>   29.1203    0.0000 </r>
       <r>   31.7449    0.0000 </r>
      </set>
      <set comment="kpoint 49">
       <r>    3.2667    1.0000 </r>
       <r>    6.4262    1.0000 </r>
       <r>   10.7849    0.0000 </r>
       <r>   15.1052    0.0000 </r>
       <r>   17.6643    0.0000 </r>
       <r>   25.5877    0.0000 </r>
       <r>   28.3688    0.0000 </r>
       <r>   31.1926    0.0000 </r>
      </set>
      <set comment="kpoint 50">
       <r>    4.3648    1.0000 </r>
       <r>    5.1681    1.0000 </r>
       <r>   10.1137    1.0000 </r>
       <r>   15.5880    0.0000 </r>
       <r>   18.2116    0.0000 </r>
       <r>   27.7941    0.0000 </r>
       <r>   27.8546    0.0000 </r>
       <r>   30.5937    0.0000 </r>
      </set>
      <set comment="kpoint 51">
       <r>    2.7290    1.0000 </r>
       <r>    7.0712    1.0000 </r>
       <r>    9.7125    1.0000 </r>
       <r>   16.2896    0.0000 </r>
       <r>   18.9930    0.0000 </r>
       <r>   27.4144    0.0000 </r>
       <r>   29.1849    0.0000 </r>
       <r>   29.7494    0.0000 </r>
      </set>
      <set comment="kpoint 52">
       <r>    1.2583    1.0000 </r>
       <r>    8.9165    1.0000 </r>
       <r>    9.9001    1.0000 </r>
       <r>   17.2003    0.0000 </r>
       <r>   19.9967    0.0000 </r>
       <r>   27.0626    0.0000 </r>
       <r>   27.5902    0.0000 </r>
       <r>   28.4737    0.0000 </r>
      </set>
      <set comment="kpoint 53">
       <r>    0.0726    1.0000 </r>
       <r>   12.4732    0.0000 </r>
       <r>   14.5099    0.0000 </r>
       <r>   14.5099    0.0000 </r>
       <r>   15.7843    0.0000 </r>
       <r>   18.2404    0.0000 </r>
       <r>   32.8086    0.0000 </r>
       <r>   33.5216    0.0000 </r>
      </set>
      <set comment="kpoint 54">
       <r>    1.0491    1.0000 </r>
       <r>   11.0044    0.0000 </r>
       <r>   12.6653    0.0000 </r>
       <r>   14.2438    0.0000 </r>
       <r>   16.2868    0.0000 </r>
       <r>   18.7037    0.0000 </r>
       <r>   32.3740    0.0000 </r>
       <r>   34.0515    0.0000 </r>
      </set>
      <set comment="kpoint 55">
       <r>    2.2706    1.0000 </r>
       <r>    9.6954    1.0000 </r>
       <r>   10.4078    0.0015 </r>
       <r>   14.2043    0.0000 </r>
       <r>   16.5605    0.0000 </r>
       <r>   20.5297    0.0000 </r>
       <r>   31.5805    0.0000 </r>
       <r>   33.8316    0.0000 </r>
      </set>
      <set comment="kpoint 56">
       <r>    3.7255    1.0000 </r>
       <r>    8.0134    1.0000 </r>
       <r>    8.8941    1.0000 </r>
       <r>   14.3912    0.0000 </r>
       <r>   16.8498    0.0000 </r>
       <r>   22.8526    0.0000 </r>
       <r>   30.8246    0.0000 </r>
       <r>   33.1583    0.0000 </r>
      </set>
      <set comment="kpoint 57">
       <r>    5.3421    1.0000 </r>
       <r>    6.1103    1.0000 </r>
       <r>    8.1132    1.0000 </r>
       <r>   14.8034    0.0000 </r>
       <r>   17.3377    0.0000 </r>
       <r>   25.3703    0.0000 </r>
       <r>   30.1758    0.0000 </r>
       <r>   32.1927    0.0000 </r>
      </set>
      <set comment="kpoint 58">
       <r>    4.2656    1.0000 </r>
       <r>    6.9594    1.0000 </r>
       <r>    7.9662    1.0000 </r>
       <r>   15.4381    0.0000 </r>
       <r>   18.0532    0.0000 </r>
       <r>   27.8944    0.0000 </r>
       <r>   29.4120    0.0000 </r>
       <r>   30.4087    0.0000 </r>
      </set>
      <set comment="kpoint 59">
       <r>    1.9349    1.0000 </r>
       <r>    9.4598    1.0000 </r>
       <r>   13.9025    0.0000 </r>
       <r>   13.9025    0.0000 </r>
       <r>   15.1004    0.0000 </r>
       <r>   17.5786    0.0000 </r>
       <r>   34.0597    0.0000 </r>
       <r>   35.3222    0.0000 </r>
      </set>
      <set comment="kpoint 60">
       <r>    3.0619    1.0000 </r>
       <r>    8.1268    1.0000 </r>
       <r>   12.1738    0.0000 </r>
       <r>   13.7881    0.0000 </r>
       <r>   15.7824    0.0000 </r>
       <r>   18.2305    0.0000 </r>
       <r>   33.8285    0.0000 </r>
       <r>   35.5927    0.0000 </r>
      </set>
      <set comment="kpoint 61">
       <r>    4.4055    1.0000 </r>
       <r>    7.0469    1.0000 </r>
       <r>   10.0072    1.0000 </r>
       <r>   13.9007    0.0000 </r>
       <r>   16.2237    0.0000 </r>
       <r>   20.2306    0.0000 </r>
       <r>   33.1440    0.0000 </r>
       <r>   34.9787    0.0000 </r>
      </set>
      <set comment="kpoint 62">
       <r>    5.6524    1.0000 </r>
       <r>    6.4995    1.0000 </r>
       <r>    8.0220    1.0000 </r>
       <r>   14.2397    0.0000 </r>
       <r>   16.6831    0.0000 </r>
       <r>   22.7132    0.0000 </r>
       <r>   32.1680    0.0000 </r>
       <r>   33.5480    0.0000 </r>
      </set>
      <set comment="kpoint 63">
       <r>    4.0754    1.0000 </r>
       <r>    6.7288    1.0000 </r>
       <r>   13.5986    0.0000 </r>
       <r>   13.5986    0.0000 </r>
       <r>   14.7569    0.0000 </r>
       <r>   17.2518    0.0000 </r>
       <r>   34.9591    0.0000 </r>
       <r>   36.5322    0.0000 </r>
      </set>
      <set comment="kpoint 64">
       <r>    4.9985    1.0000 </r>
       <r>    5.8951    1.0000 </r>
       <r>   12.0125    0.0000 </r>
       <r>   13.6362    0.0000 </r>
       <r>   15.6142    0.0000 </r>
       <r>   18.0728    0.0000 </r>
       <r>   34.6377    0.0000 </r>
       <r>   36.2529    0.0000 </r>
      </set>
      <set comment="kpoint 65">
       <r>   -3.3662    1.0000 </r>
       <r>   16.5736    0.0000 </r>
       <r>   17.0225    0.0000 </r>
       <r>   20.9884    0.0000 </r>
       <r>   21.5189    0.0000 </r>
       <r>   24.4915    0.0000 </r>
       <r>   25.8981    0.0000 </r>
       <r>   26.2678    0.0000 </r>
      </set>
      <set comment="kpoint 66">
       <r>   -2.7171    1.0000 </r>
       <r>   13.9730    0.0000 </r>
       <r>   16.2758    0.0000 </r>
       <r>   20.3198    0.0000 </r>
       <r>   21.9548    0.0000 </r>
       <r>   24.0550    0.0000 </r>
       <r>   26.1079    0.0000 </r>
       <r>   26.3443    0.0000 </r>
      </set>
      <set comment="kpoint 67">
       <r>   -1.8122    1.0000 </r>
       <r>   11.2863    0.0000 </r>
       <r>   15.9159    0.0000 </r>
       <r>   19.4347    0.0000 </r>
       <r>   21.5082    0.0000 </r>
       <r>   24.6499    0.0000 </r>
       <r>   25.5664    0.0000 </r>
       <r>   26.7247    0.0000 </r>
      </set>
      <set comment="kpoint 68">
       <r>   -0.6554    1.0000 </r>
       <r>    8.7595    1.0000 </r>
       <r>   15.7860    0.0000 </r>
       <r>   18.4808    0.0000 </r>
       <r>   21.1872    0.0000 </r>
       <r>   23.8599    0.0000 </r>
       <r>   25.8543    0.0000 </r>
       <r>   28.1112    0.0000 </r>
      </set>
      <set comment="kpoint 69">
       <r>    0.7465    1.0000 </r>
       <r>    6.4335    1.0000 </r>
       <r>   15.8731    0.0000 </r>
       <r>   17.6021    0.0000 </r>
       <r>   21.1566    0.0000 </r>
       <r>   22.9734    0.0000 </r>
       <r>   26.0108    0.0000 </r>
       <r>   29.5271    0.0000 </r>
      </set>
      <set comment="kpoint 70">
       <r>    2.3674    1.0000 </r>
       <r>    4.3479    1.0000 </r>
       <r>   16.1255    0.0000 </r>
       <r>   16.9376    0.0000 </r>
       <r>   21.3076    0.0000 </r>
       <r>   22.3557    0.0000 </r>
       <r>   26.1060    0.0000 </r>
       <r>   29.2591    0.0000 </r>
      </set>
      <set comment="kpoint 71">
       <r>   -2.5010    1.0000 </r>
       <r>   15.0097    0.0000 </r>
       <r>   15.5445    0.0000 </r>
       <r>   18.9629    0.0000 </r>
       <r>   20.0375    0.0000 </r>
       <r>   21.9310    0.0000 </r>
       <r>   27.8502    0.0000 </r>
       <r>   28.5076    0.0000 </r>
      </set>
      <set comment="kpoint 72">
       <r>   -1.6827    1.0000 </r>
       <r>   12.5495    0.0000 </r>
       <r>   14.9081    0.0000 </r>
       <r>   17.7653    0.0000 </r>
       <r>   20.2571    0.0000 </r>
       <r>   22.6439    0.0000 </r>
       <r>   27.1117    0.0000 </r>
       <r>   28.9670    0.0000 </r>
      </set>
      <set comment="kpoint 73">
       <r>   -0.6116    1.0000 </r>
       <r>    9.9969    1.0000 </r>
       <r>   14.6824    0.0000 </r>
       <r>   16.5587    0.0000 </r>
       <r>   20.1197    0.0000 </r>
       <r>   24.2959    0.0000 </r>
       <r>   26.1868    0.0000 </r>
       <r>   29.1081    0.0000 </r>
      </set>
      <set comment="kpoint 74">
       <r>    0.7067    1.0000 </r>
       <r>    7.6152    1.0000 </r>
       <r>   14.6457    0.0000 </r>
       <r>   15.5525    0.0000 </r>
       <r>   20.1479    0.0000 </r>
       <r>   24.8410    0.0000 </r>
       <r>   26.5663    0.0000 </r>
       <r>   29.3167    0.0000 </r>
      </set>
      <set comment="kpoint 75">
       <r>    2.2594    1.0000 </r>
       <r>    5.4484    1.0000 </r>
       <r>   14.3972    0.0000 </r>
       <r>   15.1904    0.0000 </r>
       <r>   20.4006    0.0000 </r>
       <r>   24.1552    0.0000 </r>
       <r>   27.7420    0.0000 </r>
       <r>   30.1056    0.0000 </r>
      </set>
      <set comment="kpoint 76">
       <r>    3.3510    1.0000 </r>
       <r>    4.2020    1.0000 </r>
       <r>   13.8340    0.0000 </r>
       <r>   15.5920    0.0000 </r>
       <r>   20.8724    0.0000 </r>
       <r>   23.5888    0.0000 </r>
       <r>   27.9464    0.0000 </r>
       <r>   31.2516    0.0000 </r>
      </set>
      <set comment="kpoint 77">
       <r>    1.7177    1.0000 </r>
       <r>    6.1415    1.0000 </r>
       <r>   13.4300    0.0000 </r>
       <r>   16.2878    0.0000 </r>
       <r>   21.5308    0.0000 </r>
       <r>   23.2597    0.0000 </r>
       <r>   27.6863    0.0000 </r>
       <r>   30.0525    0.0000 </r>
      </set>
      <set comment="kpoint 78">
       <r>    0.2401    1.0000 </r>
       <r>    8.3799    1.0000 </r>
       <r>   13.2520    0.0000 </r>
       <r>   17.2060    0.0000 </r>
       <r>   22.2546    0.0000 </r>
       <r>   23.2755    0.0000 </r>
       <r>   26.8759    0.0000 </r>
       <r>   28.5300    0.0000 </r>
      </set>
      <set comment="kpoint 79">
       <r>   -0.9968    1.0000 </r>
       <r>   10.8054    0.0000 </r>
       <r>   13.3254    0.0000 </r>
       <r>   18.3103    0.0000 </r>
       <r>   22.7490    0.0000 </r>
       <r>   23.7587    0.0000 </r>
       <r>   25.3859    0.0000 </r>
       <r>   27.8893    0.0000 </r>
      </set>
      <set comment="kpoint 80">
       <r>   -1.9840    1.0000 </r>
       <r>   13.1210    0.0000 </r>
       <r>   13.9125    0.0000 </r>
       <r>   19.5162    0.0000 </r>
       <r>   22.7721    0.0000 </r>
       <r>   23.5469    0.0000 </r>
       <r>   25.3389    0.0000 </r>
       <r>   27.2998    0.0000 </r>
      </set>
      <set comment="kpoint 81">
       <r>   -1.2958    1.0000 </r>
       <r>   13.7423    0.0000 </r>
       <r>   14.2928    0.0000 </r>
       <r>   15.9674    0.0000 </r>
       <r>   18.7823    0.0000 </r>
       <r>   20.4377    0.0000 </r>
       <r>   29.2273    0.0000 </r>
       <r>   31.0598    0.0000 </r>
      </set>
      <set comment="kpoint 82">
       <r>   -0.3119    1.0000 </r>
       <r>   11.4248    0.0000 </r>
       <r>   13.7420    0.0000 </r>
       <r>   14.6644    0.0000 </r>
       <r>   19.1117    0.0000 </r>
       <r>   21.6311    0.0000 </r>
       <r>   28.3587    0.0000 </r>
       <r>   31.5043    0.0000 </r>
      </set>
      <set comment="kpoint 83">
       <r>    0.9206    1.0000 </r>
       <r>    9.0193    1.0000 </r>
       <r>   13.1852    0.0000 </r>
       <r>   13.9655    0.0000 </r>
       <r>   19.1761    0.0000 </r>
       <r>   23.6128    0.0000 </r>
       <r>   27.4433    0.0000 </r>
       <r>   31.4304    0.0000 </r>
      </set>
      <set comment="kpoint 84">
       <r>    2.3926    1.0000 </r>
       <r>    6.7936    1.0000 </r>
       <r>   12.2962    0.0000 </r>
       <r>   14.0594    0.0000 </r>
       <r>   19.3989    0.0000 </r>
       <r>   25.5851    0.0000 </r>
       <r>   26.8717    0.0000 </r>
       <r>   31.0833    0.0000 </r>
      </set>
      <set comment="kpoint 85">
       <r>    4.0257    1.0000 </r>
       <r>    4.8540    1.0000 </r>
       <r>   11.5651    0.0000 </r>
       <r>   14.4632    0.0000 </r>
       <r>   19.8374    0.0000 </r>
       <r>   25.7042    0.0000 </r>
       <r>   28.2799    0.0000 </r>
       <r>   30.4672    0.0000 </r>
      </set>
      <set comment="kpoint 86">
       <r>    2.9332    1.0000 </r>
       <r>    6.0910    1.0000 </r>
       <r>   11.0646    0.0000 </r>
       <r>   15.1100    0.0000 </r>
       <r>   20.4949    0.0000 </r>
       <r>   25.3029    0.0000 </r>
       <r>   29.0335    0.0000 </r>
       <r>   29.9138    0.0000 </r>
      </set>
      <set comment="kpoint 87">
       <r>    1.3848    1.0000 </r>
       <r>    8.2136    1.0000 </r>
       <r>   10.8276    0.0000 </r>
       <r>   15.9835    0.0000 </r>
       <r>   21.3560    0.0000 </r>
       <r>   25.0522    0.0000 </r>
       <r>   27.1441    0.0000 </r>
       <r>   29.8653    0.0000 </r>
      </set>
      <set comment="kpoint 88">
       <r>    0.0707    1.0000 </r>
       <r>   10.2172    0.9924 </r>
       <r>   11.1621    0.0000 </r>
       <r>   17.0659    0.0000 </r>
       <r>   22.3700    0.0000 </r>
       <r>   24.6768    0.0000 </r>
       <r>   25.4399    0.0000 </r>
       <r>   29.1132    0.0000 </r>
      </set>
      <set comment="kpoint 89">
       <r>    0.2426    1.0000 </r>
       <r>   12.5387    0.0000 </r>
       <r>   12.7851    0.0000 </r>
       <r>   13.6026    0.0000 </r>
       <r>   17.8206    0.0000 </r>
       <r>   19.4812    0.0000 </r>
       <r>   30.6665    0.0000 </r>
       <r>   33.3600    0.0000 </r>
      </set>
      <set comment="kpoint 90">
       <r>    1.3869    1.0000 </r>
       <r>   10.5705    0.0000 </r>
       <r>   11.3957    0.0000 </r>
       <r>   13.1516    0.0000 </r>
       <r>   18.3107    0.0000 </r>
       <r>   20.9051    0.0000 </r>
       <r>   29.8482    0.0000 </r>
       <r>   33.5923    0.0000 </r>
      </set>
      <set comment="kpoint 91">
       <r>    2.7723    1.0000 </r>
       <r>    8.3495    1.0000 </r>
       <r>   10.3090    0.4321 </r>
       <r>   13.2254    0.0000 </r>
       <r>   18.5474    0.0000 </r>
       <r>   23.0935    0.0000 </r>
       <r>   29.0308    0.0000 </r>
       <r>   33.0047    0.0000 </r>
      </set>
      <set comment="kpoint 92">
       <r>    4.3747    1.0000 </r>
       <r>    6.3016    1.0000 </r>
       <r>    9.4707    1.0000 </r>
       <r>   13.5638    0.0000 </r>
       <r>   18.9399    0.0000 </r>
       <r>   25.4755    0.0000 </r>
       <r>   28.3769    0.0000 </r>
       <r>   31.6977    0.0000 </r>
      </set>
      <set comment="kpoint 93">
       <r>    4.3819    1.0000 </r>
       <r>    6.2616    1.0000 </r>
       <r>    8.9037    1.0000 </r>
       <r>   14.1429    0.0000 </r>
       <r>   19.5439    0.0000 </r>
       <r>   27.3240    0.0000 </r>
       <r>   28.3950    0.0000 </r>
       <r>   29.7348    0.0000 </r>
      </set>
      <set comment="kpoint 94">
       <r>    2.7724    1.0000 </r>
       <r>    7.9387    1.0000 </r>
       <r>    8.9310    1.0000 </r>
       <r>   14.9532    0.0000 </r>
       <r>   20.3595    0.0000 </r>
       <r>   27.1740    0.0000 </r>
       <r>   27.3845    0.0000 </r>
       <r>   30.4500    0.0000 </r>
      </set>
      <set comment="kpoint 95">
       <r>    2.1029    1.0000 </r>
       <r>    9.6101    1.0000 </r>
       <r>   12.1445    0.0000 </r>
       <r>   12.8841    0.0000 </r>
       <r>   17.1733    0.0000 </r>
       <r>   18.8614    0.0000 </r>
       <r>   32.2299    0.0000 </r>
       <r>   35.2875    0.0000 </r>
      </set>
      <set comment="kpoint 96">
       <r>    3.3950    1.0000 </r>
       <r>    8.4305    1.0000 </r>
       <r>   10.1875    0.9995 </r>
       <r>   12.6512    0.0000 </r>
       <r>   17.8290    0.0000 </r>
       <r>   20.4640    0.0000 </r>
       <r>   31.5239    0.0000 </r>
       <r>   34.4713    0.0000 </r>
      </set>
      <set comment="kpoint 97">
       <r>    4.8969    1.0000 </r>
       <r>    7.4351    1.0000 </r>
       <r>    8.1916    1.0000 </r>
       <r>   12.9008    0.0000 </r>
       <r>   18.2311    0.0000 </r>
       <r>   22.8228    0.0000 </r>
       <r>   30.8220    0.0000 </r>
       <r>   32.5735    0.0000 </r>
      </set>
      <set comment="kpoint 98">
       <r>    6.0172    1.0000 </r>
       <r>    6.3061    1.0000 </r>
       <r>    7.3684    1.0000 </r>
       <r>   13.4035    0.0000 </r>
       <r>   18.7854    0.0000 </r>
       <r>   25.3860    0.0000 </r>
       <r>   30.1794    0.0000 </r>
       <r>   30.2675    0.0000 </r>
      </set>
      <set comment="kpoint 99">
       <r>    4.2407    1.0000 </r>
       <r>    6.8903    1.0000 </r>
       <r>   11.8236    0.0000 </r>
       <r>   12.5599    0.0000 </r>
       <r>   16.8482    0.0000 </r>
       <r>   18.5521    0.0000 </r>
       <r>   33.7548    0.0000 </r>
       <r>   35.2790    0.0000 </r>
      </set>
      <set comment="kpoint 100">
       <r>    5.3255    1.0000 </r>
       <r>    6.2190    1.0000 </r>
       <r>   10.0127    1.0000 </r>
       <r>   12.4895    0.0000 </r>
       <r>   17.6681    0.0000 </r>
       <r>   20.3159    0.0000 </r>
       <r>   33.0383    0.0000 </r>
       <r>   33.4722    0.0000 </r>
      </set>
      <set comment="kpoint 101">
       <r>   -0.7822    1.0000 </r>
       <r>   11.8345    0.0000 </r>
       <r>   12.6724    0.0000 </r>
       <r>   16.4310    0.0000 </r>
       <r>   21.5949    0.0000 </r>
       <r>   22.5717    0.0000 </r>
       <r>   26.1893    0.0000 </r>
       <r>   30.1751    0.0000 </r>
      </set>
      <set comment="kpoint 102">
       <r>    0.3688    1.0000 </r>
       <r>    9.6724    1.0000 </r>
       <r>   12.2168    0.0000 </r>
       <r>   15.1934    0.0000 </r>
       <r>   21.8834    0.0000 </r>
       <r>   23.8703    0.0000 </r>
       <r>   25.4509    0.0000 </r>
       <r>   30.7347    0.0000 </r>
      </set>
      <set comment="kpoint 103">
       <r>    1.7637    1.0000 </r>
       <r>    7.3977    1.0000 </r>
       <r>   12.2830    0.0000 </r>
       <r>   14.1680    0.0000 </r>
       <r>   21.9771    0.0000 </r>
       <r>   23.9049    0.0000 </r>
       <r>   26.6701    0.0000 </r>
       <r>   30.8162    0.0000 </r>
      </set>
      <set comment="kpoint 104">
       <r>    3.3790    1.0000 </r>
       <r>    5.3308    1.0000 </r>
       <r>   12.5449    0.0000 </r>
       <r>   13.4308    0.0000 </r>
       <r>   22.1451    0.0000 </r>
       <r>   23.4017    0.0000 </r>
       <r>   28.7087    0.0000 </r>
       <r>   30.2969    0.0000 </r>
      </set>
      <set comment="kpoint 105">
       <r>    0.7517    1.0000 </r>
       <r>   10.8651    0.0000 </r>
       <r>   11.6700    0.0000 </r>
       <r>   13.2902    0.0000 </r>
       <r>   20.6685    0.0000 </r>
       <r>   21.8017    0.0000 </r>
       <r>   27.4727    0.0000 </r>
       <r>   32.8813    0.0000 </r>
      </set>
      <set comment="kpoint 106">
       <r>    2.0604    1.0000 </r>
       <r>    8.8539    1.0000 </r>
       <r>   11.3057    0.0000 </r>
       <r>   12.2112    0.0000 </r>
       <r>   21.1691    0.0000 </r>
       <r>   23.4871    0.0000 </r>
       <r>   26.6247    0.0000 </r>
       <r>   32.9101    0.0000 </r>
      </set>
      <set comment="kpoint 107">
       <r>    3.6014    1.0000 </r>
       <r>    6.7409    1.0000 </r>
       <r>   10.9792    0.0000 </r>
       <r>   11.8647    0.0000 </r>
       <r>   21.4815    0.0000 </r>
       <r>   25.0767    0.0000 </r>
       <r>   26.5676    0.0000 </r>
       <r>   31.3964    0.0000 </r>
      </set>
      <set comment="kpoint 108">
       <r>    4.6987    1.0000 </r>
       <r>    5.4920    1.0000 </r>
       <r>   10.3949    0.0047 </r>
       <r>   12.2836    0.0000 </r>
       <r>   21.9555    0.0000 </r>
       <r>   24.8868    0.0000 </r>
       <r>   28.2718    0.0000 </r>
       <r>   29.5219    0.0000 </r>
      </set>
      <set comment="kpoint 109">
       <r>    3.0642    1.0000 </r>
       <r>    7.3958    1.0000 </r>
       <r>   10.0112    1.0000 </r>
       <r>   13.0142    0.0000 </r>
       <r>   22.5843    0.0000 </r>
       <r>   24.5212    0.0000 </r>
       <r>   26.7412    0.0000 </r>
       <r>   30.9748    0.0000 </r>
      </set>
      <set comment="kpoint 110">
       <r>    1.5969    1.0000 </r>
       <r>    9.2423    1.0000 </r>
       <r>   10.1938    0.9990 </r>
       <r>   13.9917    0.0000 </r>
       <r>   23.2301    0.0000 </r>
       <r>   23.8120    0.0000 </r>
       <r>   25.2385    0.0000 </r>
       <r>   32.1690    0.0000 </r>
      </set>
      <set comment="kpoint 111">
       <r>    2.6061    1.0000 </r>
       <r>   10.0001    1.0000 </r>
       <r>   10.2172    0.9924 </r>
       <r>   11.3041    0.0000 </r>
       <r>   20.0396    0.0000 </r>
       <r>   21.2620    0.0000 </r>
       <r>   29.0600    0.0000 </r>
       <r>   34.0816    0.0000 </r>
      </set>
      <set comment="kpoint 112">
       <r>    4.0582    1.0000 </r>
       <r>    8.3119    1.0000 </r>
       <r>    9.1524    1.0000 </r>
       <r>   11.0607    0.0000 </r>
       <r>   20.7222    0.0000 </r>
       <r>   23.1442    0.0000 </r>
       <r>   28.2836    0.0000 </r>
       <r>   32.1003    0.0000 </r>
      </set>
      <set comment="kpoint 113">
       <r>    5.6744    1.0000 </r>
       <r>    6.4256    1.0000 </r>
       <r>    8.4149    1.0000 </r>
       <r>   11.4386    0.0000 </r>
       <r>   21.2051    0.0000 </r>
       <r>   25.4769    0.0000 </r>
       <r>   27.6710    0.0000 </r>
       <r>   29.7804    0.0000 </r>
      </set>
      <set comment="kpoint 114">
       <r>    4.5961    1.0000 </r>
       <r>    7.2862    1.0000 </r>
       <r>    8.2722    1.0000 </r>
       <r>   12.1013    0.0000 </r>
       <r>   21.8425    0.0000 </r>
       <r>   26.6217    0.0000 </r>
       <r>   26.8420    0.0000 </r>
       <r>   29.0883    0.0000 </r>
      </set>
      <set comment="kpoint 115">
       <r>    4.7354    1.0000 </r>
       <r>    7.3663    1.0000 </r>
       <r>    9.8928    1.0000 </r>
       <r>   10.8951    0.0000 </r>
       <r>   19.7227    0.0000 </r>
       <r>   20.9848    0.0000 </r>
       <r>   30.8540    0.0000 </r>
       <r>   32.6905    0.0000 </r>
      </set>
      <set comment="kpoint 116">
       <r>    5.9794    1.0000 </r>
       <r>    6.8280    1.0000 </r>
       <r>    8.2805    1.0000 </r>
       <r>   10.8749    0.0000 </r>
       <r>   20.5710    0.0000 </r>
       <r>   23.0207    0.0000 </r>
       <r>   29.9292    0.0000 </r>
       <r>   30.4791    0.0000 </r>
      </set>
      <set comment="kpoint 117">
       <r>    3.4404    1.0000 </r>
       <r>    8.5913    1.0000 </r>
       <r>    9.4803    1.0000 </r>
       <r>   11.0759    0.0000 </r>
       <r>   23.2095    0.0000 </r>
       <r>   23.6486    0.0000 </r>
       <r>   25.9417    0.0000 </r>
       <r>   31.6013    0.0000 </r>
      </set>
      <set comment="kpoint 118">
       <r>    5.0385    1.0000 </r>
       <r>    6.9061    1.0000 </r>
       <r>    9.3976    1.0000 </r>
       <r>   10.3131    0.3876 </r>
       <r>   23.5916    0.0000 </r>
       <r>   24.6732    0.0000 </r>
       <r>   26.4225    0.0000 </r>
       <r>   29.3389    0.0000 </r>
      </set>
      <set comment="kpoint 119">
       <r>    5.5534    1.0000 </r>
       <r>    8.0756    1.0000 </r>
       <r>    8.2656    1.0000 </r>
       <r>    9.4566    1.0000 </r>
       <r>   22.9036    0.0000 </r>
       <r>   23.6094    0.0000 </r>
       <r>   27.5084    0.0000 </r>
       <r>   29.7480    0.0000 </r>
      </set>
      <set comment="kpoint 120">
       <r>    6.6541    1.0000 </r>
       <r>    6.9598    1.0000 </r>
       <r>    7.8932    1.0000 </r>
       <r>    9.5308    1.0000 </r>
       <r>   23.6489    0.0000 </r>
       <r>   25.5095    0.0000 </r>
       <r>   26.3349    0.0000 </r>
       <r>   28.1551    0.0000 </r>
      </set>
     </set>
    </set>
   </array>
  </eigenvalues>
  <separator name="orbital magnetization" >
   <v name="MAGDIPOLOUT">      0.00000000      0.00000000      0.00000000</v>
  </separator>
  <dos>
   <i name="efermi">     10.30299043 </i>
   <total>
    <array>
     <dimension dim="1">gridpoints</dimension>
     <dimension dim="2">spin</dimension>
     <field>energy</field>
     <field>total</field>
     <field>integrated</field>
     <set>
      <set comment="spin 1">
       <r>    -6.2733     0.0000     0.0000 </r>
       <r>    -6.1238     0.0000     0.0000 </r>
       <r>    -5.9743     0.0000     0.0000 </r>
       <r>    -5.8249     0.0000     0.0000 </r>
       <r>    -5.6754     0.0000     0.0000 </r>
       <r>    -5.5259     0.0000     0.0000 </r>
       <r>    -5.3764     0.0000     0.0000 </r>
       <r>    -5.2269     0.0000     0.0000 </r>
       <r>    -5.0775     0.0000     0.0000 </r>
       <r>    -4.9280     0.0000     0.0000 </r>
       <r>    -4.7785     0.0000     0.0000 </r>
       <r>    -4.6290     0.0000     0.0000 </r>
       <r>    -4.4795     0.0000     0.0000 </r>
       <r>    -4.3301     0.0000     0.0000 </r>
       <r>    -4.1806     0.0042     0.0006 </r>
       <r>    -4.0311     0.0499     0.0081 </r>
       <r>    -3.8816     0.0320     0.0129 </r>
       <r>    -3.7321     0.1022     0.0282 </r>
       <r>    -3.5827     0.0482     0.0354 </r>
       <r>    -3.4332     0.0479     0.0425 </r>
       <r>    -3.2837     0.1631     0.0669 </r>
       <r>    -3.1342     0.0938     0.0809 </r>
       <r>    -2.9848     0.1270     0.0999 </r>
       <r>    -2.8353     0.0316     0.1046 </r>
       <r>    -2.6858     0.2161     0.1369 </r>
       <r>    -2.5363     0.1259     0.1557 </r>
       <r>    -2.3868     0.1168     0.1732 </r>
       <r>    -2.2374     0.1534     0.1961 </r>
       <r>    -2.0879     0.0392     0.2020 </r>
       <r>    -1.9384     0.2675     0.2420 </r>
       <r>    -1.7889     0.1526     0.2648 </r>
       <r>    -1.6394     0.3026     0.3100 </r>
       <r>    -1.4900     0.0373     0.3156 </r>
       <r>    -1.3405     0.0848     0.3283 </r>
       <r>    -1.1910     0.2223     0.3615 </r>
       <r>    -1.0415     0.1610     0.3856 </r>
       <r>    -0.8920     0.2908     0.4290 </r>
       <r>    -0.7426     0.0885     0.4423 </r>
       <r>    -0.5931     0.4176     0.5047 </r>
       <r>    -0.4436     0.1155     0.5220 </r>
       <r>    -0.2941     0.1801     0.5489 </r>
       <r>    -0.1446     0.0689     0.5592 </r>
       <r>     0.0048     0.1640     0.5837 </r>
       <r>     0.1543     0.3262     0.6324 </r>
       <r>     0.3038     0.2839     0.6749 </r>
       <r>     0.4533     0.3960     0.7341 </r>
       <r>     0.6028     0.0172     0.7366 </r>
       <r>     0.7522     0.3268     0.7855 </r>
       <r>     0.9017     0.2052     0.8162 </r>
       <r>     1.0512     0.2437     0.8526 </r>
       <r>     1.2007     0.0828     0.8650 </r>
       <r>     1.3502     0.1274     0.8840 </r>
       <r>     1.4996     0.5813     0.9709 </r>
       <r>     1.6491     0.1901     0.9993 </r>
       <r>     1.7986     0.4439     1.0657 </r>
       <r>     1.9481     0.1241     1.0842 </r>
       <r>     2.0976     0.2644     1.1237 </r>
       <r>     2.2470     0.1753     1.1499 </r>
       <r>     2.3965     0.4469     1.2167 </r>
       <r>     2.5460     0.1301     1.2362 </r>
       <r>     2.6955     0.1834     1.2636 </r>
       <r>     2.8450     0.3787     1.3202 </r>
       <r>     2.9944     0.2409     1.3562 </r>
       <r>     3.1439     0.5212     1.4341 </r>
       <r>     3.2934     0.0891     1.4474 </r>
       <r>     3.4429     0.6065     1.5381 </r>
       <r>     3.5924     0.2307     1.5726 </r>
       <r>     3.7418     0.1885     1.6008 </r>
       <r>     3.8913     0.0948     1.6149 </r>
       <r>     4.0408     0.2442     1.6514 </r>
       <r>     4.1903     0.3013     1.6965 </r>
       <r>     4.3398     0.4099     1.7578 </r>
       <r>     4.4892     0.6046     1.8481 </r>
       <r>     4.6387     0.0942     1.8622 </r>
       <r>     4.7882     0.3308     1.9117 </r>
       <r>     4.9377     0.4150     1.9737 </r>
       <r>     5.0872     0.4456     2.0403 </r>
       <r>     5.2366     0.1891     2.0686 </r>
       <r>     5.3861     0.3641     2.1230 </r>
       <r>     5.5356     0.4916     2.1965 </r>
       <r>     5.6851     0.2536     2.2344 </r>
       <r>     5.8346     0.1482     2.2566 </r>
       <r>     5.9840     0.1447     2.2782 </r>
       <r>     6.1335     0.4637     2.3475 </r>
       <r>     6.2830     0.4766     2.4187 </r>
       <r>     6.4325     0.5175     2.4961 </r>
       <r>     6.5819     0.2664     2.5359 </r>
       <r>     6.7314     0.1877     2.5640 </r>
       <r>     6.8809     0.4831     2.6362 </r>
       <r>     7.0304     0.4976     2.7106 </r>
       <r>     7.1799     0.3282     2.7597 </r>
       <r>     7.3293     0.2049     2.7903 </r>
       <r>     7.4788     0.7223     2.8983 </r>
       <r>     7.6283     0.1472     2.9203 </r>
       <r>     7.7778     0.1451     2.9420 </r>
       <r>     7.9273     0.1397     2.9628 </r>
       <r>     8.0767     0.3790     3.0195 </r>
       <r>     8.2262     0.5701     3.1047 </r>
       <r>     8.3757     0.8099     3.2258 </r>
       <r>     8.5252     0.5393     3.3064 </r>
       <r>     8.6747     0.1808     3.3334 </r>
       <r>     8.8241     0.2264     3.3673 </r>
       <r>     8.9736     0.5813     3.4542 </r>
       <r>     9.1231     0.2293     3.4884 </r>
       <r>     9.2726     0.2295     3.5227 </r>
       <r>     9.4221     0.4552     3.5908 </r>
       <r>     9.5715     0.5382     3.6712 </r>
       <r>     9.7210     0.4813     3.7432 </r>
       <r>     9.8705     0.1235     3.7616 </r>
       <r>    10.0200     0.5477     3.8435 </r>
       <r>    10.1695     0.4226     3.9067 </r>
       <r>    10.3189     0.6965     4.0108 </r>
       <r>    10.4684     0.4358     4.0759 </r>
       <r>    10.6179     0.2711     4.1165 </r>
       <r>    10.7674     0.0830     4.1289 </r>
       <r>    10.9169     0.7090     4.2348 </r>
       <r>    11.0663     0.6379     4.3302 </r>
       <r>    11.2158     0.3322     4.3798 </r>
       <r>    11.3653     0.5102     4.4561 </r>
       <r>    11.5148     0.5720     4.5416 </r>
       <r>    11.6643     0.2587     4.5803 </r>
       <r>    11.8137     0.2129     4.6121 </r>
       <r>    11.9632     0.5129     4.6888 </r>
       <r>    12.1127     0.2983     4.7334 </r>
       <r>    12.2622     0.7517     4.8457 </r>
       <r>    12.4117     0.6118     4.9372 </r>
       <r>    12.5611     0.5153     5.0142 </r>
       <r>    12.7106     0.5549     5.0971 </r>
       <r>    12.8601     0.2682     5.1372 </r>
       <r>    13.0096     0.5099     5.2135 </r>
       <r>    13.1591     0.3889     5.2716 </r>
       <r>    13.3085     0.7897     5.3896 </r>
       <r>    13.4580     0.6484     5.4866 </r>
       <r>    13.6075     0.3500     5.5389 </r>
       <r>    13.7570     0.4104     5.6002 </r>
       <r>    13.9065     0.5392     5.6808 </r>
       <r>    14.0559     0.6644     5.7801 </r>
       <r>    14.2054     0.5773     5.8664 </r>
       <r>    14.3549     0.3715     5.9220 </r>
       <r>    14.5044     0.5989     6.0115 </r>
       <r>    14.6539     0.4143     6.0734 </r>
       <r>    14.8033     0.8480     6.2002 </r>
       <r>    14.9528     0.4536     6.2680 </r>
       <r>    15.1023     0.3822     6.3251 </r>
       <r>    15.2518     0.5881     6.4130 </r>
       <r>    15.4013     0.1081     6.4292 </r>
       <r>    15.5507     0.2876     6.4722 </r>
       <r>    15.7002     0.6898     6.5753 </r>
       <r>    15.8497     0.4984     6.6498 </r>
       <r>    15.9992     0.8241     6.7730 </r>
       <r>    16.1487     0.4106     6.8343 </r>
       <r>    16.2981     0.5147     6.9113 </r>
       <r>    16.4476     0.2641     6.9508 </r>
       <r>    16.5971     0.4936     7.0245 </r>
       <r>    16.7466     0.3594     7.0783 </r>
       <r>    16.8960     0.4033     7.1385 </r>
       <r>    17.0455     0.4441     7.2049 </r>
       <r>    17.1950     0.6452     7.3014 </r>
       <r>    17.3445     0.5649     7.3858 </r>
       <r>    17.4940     0.3114     7.4324 </r>
       <r>    17.6434     0.4102     7.4937 </r>
       <r>    17.7929     0.6605     7.5924 </r>
       <r>    17.9424     0.4732     7.6631 </r>
       <r>    18.0919     0.3510     7.7156 </r>
       <r>    18.2414     0.4502     7.7829 </r>
       <r>    18.3908     0.9381     7.9231 </r>
       <r>    18.5403     0.6247     8.0165 </r>
       <r>    18.6898     0.4752     8.0876 </r>
       <r>    18.8393     0.3212     8.1356 </r>
       <r>    18.9888     0.5767     8.2218 </r>
       <r>    19.1382     0.5402     8.3025 </r>
       <r>    19.2877     0.4063     8.3633 </r>
       <r>    19.4372     0.5645     8.4476 </r>
       <r>    19.5867     0.9875     8.5952 </r>
       <r>    19.7362     0.1676     8.6203 </r>
       <r>    19.8856     0.3076     8.6663 </r>
       <r>    20.0351     0.2926     8.7100 </r>
       <r>    20.1846     0.7608     8.8237 </r>
       <r>    20.3341     0.6367     8.9189 </r>
       <r>    20.4836     0.7867     9.0365 </r>
       <r>    20.6330     0.6954     9.1405 </r>
       <r>    20.7825     0.5376     9.2208 </r>
       <r>    20.9320     0.4033     9.2811 </r>
       <r>    21.0815     0.3546     9.3341 </r>
       <r>    21.2310     1.0530     9.4915 </r>
       <r>    21.3804     0.6866     9.5941 </r>
       <r>    21.5299     0.6076     9.6850 </r>
       <r>    21.6794     0.5719     9.7705 </r>
       <r>    21.8289     0.3199     9.8183 </r>
       <r>    21.9784     0.9058     9.9537 </r>
       <r>    22.1278     0.5729    10.0393 </r>
       <r>    22.2773     0.2832    10.0817 </r>
       <r>    22.4268     0.3552    10.1348 </r>
       <r>    22.5763     0.5310    10.2141 </r>
       <r>    22.7258     0.6471    10.3109 </r>
       <r>    22.8752     0.6015    10.4008 </r>
       <r>    23.0247     0.3588    10.4544 </r>
       <r>    23.1742     0.4559    10.5226 </r>
       <r>    23.3237     0.9602    10.6661 </r>
       <r>    23.4732     0.6605    10.7648 </r>
       <r>    23.6226     0.9949    10.9135 </r>
       <r>    23.7721     0.8104    11.0347 </r>
       <r>    23.9216     0.8582    11.1630 </r>
       <r>    24.0711     0.2633    11.2023 </r>
       <r>    24.2206     0.3930    11.2611 </r>
       <r>    24.3700     0.6509    11.3584 </r>
       <r>    24.5195     0.3651    11.4129 </r>
       <r>    24.6690     0.8749    11.5437 </r>
       <r>    24.8185     0.6233    11.6369 </r>
       <r>    24.9680     0.4218    11.6999 </r>
       <r>    25.1174     0.5206    11.7778 </r>
       <r>    25.2669     0.3189    11.8254 </r>
       <r>    25.4164     1.0659    11.9848 </r>
       <r>    25.5659     1.2740    12.1752 </r>
       <r>    25.7154     0.5281    12.2541 </r>
       <r>    25.8648     0.3815    12.3112 </r>
       <r>    26.0143     0.6865    12.4138 </r>
       <r>    26.1638     0.8617    12.5426 </r>
       <r>    26.3133     0.4809    12.6145 </r>
       <r>    26.4627     0.6386    12.7099 </r>
       <r>    26.6122     0.7031    12.8150 </r>
       <r>    26.7617     0.8202    12.9376 </r>
       <r>    26.9112     0.5475    13.0195 </r>
       <r>    27.0607     0.0974    13.0340 </r>
       <r>    27.2101     0.5803    13.1208 </r>
       <r>    27.3596     0.4563    13.1890 </r>
       <r>    27.5091     0.9416    13.3297 </r>
       <r>    27.6586     0.7082    13.4356 </r>
       <r>    27.8081     0.8457    13.5620 </r>
       <r>    27.9575     0.6595    13.6606 </r>
       <r>    28.1070     0.2714    13.7012 </r>
       <r>    28.2565     0.5180    13.7786 </r>
       <r>    28.4060     1.0173    13.9307 </r>
       <r>    28.5555     0.5261    14.0093 </r>
       <r>    28.7049     0.2905    14.0527 </r>
       <r>    28.8544     0.1038    14.0682 </r>
       <r>    29.0039     0.2805    14.1102 </r>
       <r>    29.1534     0.9068    14.2457 </r>
       <r>    29.3029     0.4872    14.3186 </r>
       <r>    29.4523     0.4455    14.3852 </r>
       <r>    29.6018     0.3802    14.4420 </r>
       <r>    29.7513     0.3829    14.4992 </r>
       <r>    29.9008     1.0737    14.6597 </r>
       <r>    30.0503     0.7355    14.7697 </r>
       <r>    30.1997     0.5955    14.8587 </r>
       <r>    30.3492     0.4198    14.9214 </r>
       <r>    30.4987     0.3892    14.9796 </r>
       <r>    30.6482     0.1903    15.0081 </r>
       <r>    30.7977     0.3852    15.0656 </r>
       <r>    30.9471     0.5797    15.1523 </r>
       <r>    31.0966     0.3571    15.2057 </r>
       <r>    31.2461     0.2714    15.2462 </r>
       <r>    31.3956     0.3292    15.2954 </r>
       <r>    31.5451     0.6140    15.3872 </r>
       <r>    31.6945     0.3414    15.4383 </r>
       <r>    31.8440     0.1898    15.4666 </r>
       <r>    31.9935     0.0008    15.4667 </r>
       <r>    32.1430     0.3754    15.5229 </r>
       <r>    32.2925     0.3348    15.5729 </r>
       <r>    32.4419     0.0955    15.5872 </r>
       <r>    32.5914     0.1348    15.6073 </r>
       <r>    32.7409     0.1466    15.6292 </r>
       <r>    32.8904     0.1424    15.6505 </r>
       <r>    33.0399     0.3827    15.7077 </r>
       <r>    33.1893     0.2390    15.7434 </r>
       <r>    33.3388     0.0537    15.7515 </r>
       <r>    33.4883     0.1399    15.7724 </r>
       <r>    33.6378     0.2668    15.8123 </r>
       <r>    33.7873     0.1187    15.8300 </r>
       <r>    33.9367     0.1856    15.8578 </r>
       <r>    34.0862     0.1507    15.8803 </r>
       <r>    34.2357     0.0635    15.8898 </r>
       <r>    34.3852     0.0014    15.8900 </r>
       <r>    34.5347     0.1820    15.9172 </r>
       <r>    34.6841     0.0499    15.9247 </r>
       <r>    34.8336     0.0045    15.9253 </r>
       <r>    34.9831     0.0702    15.9358 </r>
       <r>    35.1326     0.0488    15.9431 </r>
       <r>    35.2821     0.0957    15.9574 </r>
       <r>    35.4315     0.1184    15.9751 </r>
       <r>    35.5810     0.0352    15.9804 </r>
       <r>    35.7305     0.0599    15.9893 </r>
       <r>    35.8800     0.0000    15.9893 </r>
       <r>    36.0295     0.0000    15.9893 </r>
       <r>    36.1789     0.0009    15.9895 </r>
       <r>    36.3284     0.0459    15.9963 </r>
       <r>    36.4779     0.0023    15.9967 </r>
       <r>    36.6274     0.0222    16.0000 </r>
       <r>    36.7768     0.0001    16.0000 </r>
       <r>    36.9263     0.0000    16.0000 </r>
       <r>    37.0758     0.0000    16.0000 </r>
       <r>    37.2253     0.0000    16.0000 </r>
       <r>    37.3748     0.0000    16.0000 </r>
       <r>    37.5242     0.0000    16.0000 </r>
       <r>    37.6737     0.0000    16.0000 </r>
       <r>    37.8232     0.0000    16.0000 </r>
       <r>    37.9727     0.0000    16.0000 </r>
       <r>    38.1222     0.0000    16.0000 </r>
       <r>    38.2716     0.0000    16.0000 </r>
       <r>    38.4211     0.0000    16.0000 </r>
       <r>    38.5706     0.0000    16.0000 </r>
      </set>
     </set>
    </array>
   </total>
  </dos>
 </calculation>
 <structure name="finalpos" >
  <crystal>
   <varray name="basis" >
    <v>       2.35913197       0.00000000       1.36204434 </v>
    <v>       0.78637732       2.22421072       1.36204434 </v>
    <v>       0.00000000       0.00000000       2.72409069 </v>
   </varray>
   <i name="volume">     14.29386676 </i>
   <varray name="rec_basis" >
    <v>       0.42388472      -0.14986590       0.00000000 </v>
    <v>       0.00000000       0.44959769       0.00000000 </v>
    <v>      -0.21194220      -0.14986579       0.36709497 </v>
   </varray>
  </crystal>
  <varray name="positions" >
   <v>       0.00000000       0.00000000       0.00000000 </v>
  </varray>
 </structure>
</modeling>
