unknown system                          
           1
     2.359132    0.000000    1.362044
     0.786377    2.224211    1.362044
     0.000000    0.000000    2.724091
   Si
     1
Direct configuration=     1
   0.00000000  0.00000000  0.00000000
