   1   1   0   0
  0.1386300E+02  0.2621157E-09  0.2621157E-09  0.2621157E-09  0.5000000E-15
  1.000000000000000E-004
  CAR 
 unknown system                          
     36.17213550     -6.24504905  301      9.87240701      1.00000000
     -6.245  0.0000E+00  0.0000E+00
     -6.104  0.0000E+00  0.0000E+00
     -5.962  0.0000E+00  0.0000E+00
     -5.821  0.0000E+00  0.0000E+00
     -5.679  0.0000E+00  0.0000E+00
     -5.538  0.0000E+00  0.0000E+00
     -5.397  0.0000E+00  0.0000E+00
     -5.255  0.0000E+00  0.0000E+00
     -5.114  0.0000E+00  0.0000E+00
     -4.973  0.0000E+00  0.0000E+00
     -4.831  0.0000E+00  0.0000E+00
     -4.690  0.0000E+00  0.0000E+00
     -4.548  0.1255E-14  0.1774E-15
     -4.407  0.2291E-06  0.3239E-07
     -4.266  0.4282E-04  0.6086E-05
     -4.124  0.4777E-03  0.7363E-04
     -3.983  0.2844E-03  0.1138E-03
     -3.841  0.9828E-03  0.2528E-03
     -3.700  0.5467E-03  0.3301E-03
     -3.559  0.9820E-03  0.4689E-03
     -3.417  0.4794E-03  0.5367E-03
     -3.276  0.1877E-02  0.8022E-03
     -3.134  0.4416E-03  0.8646E-03
     -2.993  0.1480E-02  0.1074E-02
     -2.852  0.1058E-02  0.1223E-02
     -2.710  0.1064E-02  0.1374E-02
     -2.569  0.1776E-02  0.1625E-02
     -2.428  0.1960E-02  0.1902E-02
     -2.286  0.9941E-03  0.2043E-02
     -2.145  0.1305E-02  0.2227E-02
     -2.003  0.1510E-02  0.2441E-02
     -1.862  0.1615E-02  0.2669E-02
     -1.721  0.2700E-02  0.3051E-02
     -1.579  0.1516E-02  0.3265E-02
     -1.438  0.1936E-02  0.3539E-02
     -1.296  0.1176E-02  0.3705E-02
     -1.155  0.1971E-02  0.3984E-02
     -1.014  0.5138E-03  0.4057E-02
     -0.872  0.3410E-02  0.4539E-02
     -0.731  0.1267E-02  0.4718E-02
     -0.589  0.3953E-02  0.5277E-02
     -0.448  0.1987E-02  0.5558E-02
     -0.307  0.8831E-03  0.5683E-02
     -0.165  0.1008E-02  0.5825E-02
     -0.024  0.3096E-02  0.6263E-02
      0.118  0.1837E-02  0.6523E-02
      0.259  0.3373E-02  0.7000E-02
      0.400  0.2209E-02  0.7312E-02
      0.542  0.1850E-02  0.7574E-02
      0.683  0.4347E-02  0.8188E-02
      0.824  0.1998E-02  0.8471E-02
      0.966  0.1959E-02  0.8748E-02
      1.107  0.1166E-02  0.8913E-02
      1.249  0.2018E-02  0.9198E-02
      1.390  0.2224E-02  0.9513E-02
      1.531  0.4866E-02  0.1020E-01
      1.673  0.1589E-02  0.1043E-01
      1.814  0.4420E-02  0.1105E-01
      1.956  0.1068E-02  0.1120E-01
      2.097  0.3317E-02  0.1167E-01
      2.238  0.2867E-02  0.1208E-01
      2.380  0.3148E-02  0.1252E-01
      2.521  0.1884E-02  0.1279E-01
      2.663  0.3040E-02  0.1322E-01
      2.804  0.3173E-02  0.1367E-01
      2.945  0.1662E-02  0.1390E-01
      3.087  0.6157E-02  0.1477E-01
      3.228  0.1034E-02  0.1492E-01
      3.370  0.2725E-02  0.1530E-01
      3.511  0.3923E-02  0.1586E-01
      3.652  0.2564E-02  0.1622E-01
      3.794  0.3674E-02  0.1674E-01
      3.935  0.3843E-02  0.1728E-01
      4.076  0.2397E-02  0.1762E-01
      4.218  0.1154E-02  0.1778E-01
      4.359  0.3538E-02  0.1828E-01
      4.501  0.3203E-02  0.1874E-01
      4.642  0.4999E-02  0.1944E-01
      4.783  0.4838E-02  0.2013E-01
      4.925  0.1208E-02  0.2030E-01
      5.066  0.3909E-02  0.2085E-01
      5.208  0.1418E-02  0.2105E-01
      5.349  0.3466E-02  0.2154E-01
      5.490  0.6094E-02  0.2240E-01
      5.632  0.2448E-02  0.2275E-01
      5.773  0.5570E-02  0.2354E-01
      5.915  0.3022E-02  0.2397E-01
      6.056  0.1947E-02  0.2424E-01
      6.197  0.4034E-02  0.2481E-01
      6.339  0.2643E-02  0.2518E-01
      6.480  0.8152E-03  0.2530E-01
      6.621  0.6952E-02  0.2628E-01
      6.763  0.3400E-02  0.2676E-01
      6.904  0.4970E-02  0.2747E-01
      7.046  0.5442E-02  0.2824E-01
      7.187  0.2498E-02  0.2859E-01
      7.328  0.3599E-02  0.2910E-01
      7.470  0.3184E-02  0.2955E-01
      7.611  0.4795E-02  0.3023E-01
      7.753  0.4429E-02  0.3085E-01
      7.894  0.5213E-02  0.3159E-01
      8.035  0.2932E-02  0.3200E-01
      8.177  0.1230E-02  0.3218E-01
      8.318  0.2026E-02  0.3246E-01
      8.460  0.7452E-02  0.3352E-01
      8.601  0.5172E-02  0.3425E-01
      8.742  0.3784E-02  0.3478E-01
      8.884  0.4395E-02  0.3541E-01
      9.025  0.4381E-02  0.3602E-01
      9.167  0.5010E-02  0.3673E-01
      9.308  0.5020E-02  0.3744E-01
      9.449  0.4349E-02  0.3806E-01
      9.591  0.5283E-02  0.3880E-01
      9.732  0.5351E-02  0.3956E-01
      9.873  0.3132E-02  0.4000E-01
     10.015  0.4756E-02  0.4068E-01
     10.156  0.2526E-02  0.4103E-01
     10.298  0.3986E-02  0.4160E-01
     10.439  0.4422E-02  0.4222E-01
     10.580  0.5056E-02  0.4294E-01
     10.722  0.5062E-02  0.4365E-01
     10.863  0.5590E-02  0.4444E-01
     11.005  0.7149E-02  0.4545E-01
     11.146  0.1896E-02  0.4572E-01
     11.287  0.3103E-02  0.4616E-01
     11.429  0.2095E-02  0.4646E-01
     11.570  0.6273E-02  0.4734E-01
     11.712  0.6905E-02  0.4832E-01
     11.853  0.2452E-02  0.4867E-01
     11.994  0.6244E-02  0.4955E-01
     12.136  0.4526E-02  0.5019E-01
     12.277  0.2168E-02  0.5050E-01
     12.419  0.3943E-02  0.5105E-01
     12.560  0.1616E-02  0.5128E-01
     12.701  0.5681E-02  0.5209E-01
     12.843  0.2989E-02  0.5251E-01
     12.984  0.7398E-02  0.5355E-01
     13.125  0.4859E-02  0.5424E-01
     13.267  0.4410E-02  0.5486E-01
     13.408  0.8682E-02  0.5609E-01
     13.550  0.4217E-02  0.5669E-01
     13.691  0.4940E-02  0.5739E-01
     13.832  0.3489E-02  0.5788E-01
     13.974  0.4371E-02  0.5850E-01
     14.115  0.4484E-02  0.5913E-01
     14.257  0.3700E-02  0.5966E-01
     14.398  0.5560E-02  0.6044E-01
     14.539  0.8462E-02  0.6164E-01
     14.681  0.2147E-02  0.6194E-01
     14.822  0.4949E-02  0.6264E-01
     14.964  0.2723E-02  0.6303E-01
     15.105  0.6992E-02  0.6402E-01
     15.246  0.4864E-02  0.6470E-01
     15.388  0.5112E-02  0.6543E-01
     15.529  0.7332E-02  0.6646E-01
     15.670  0.4250E-02  0.6706E-01
     15.812  0.5831E-02  0.6789E-01
     15.953  0.5487E-02  0.6866E-01
     16.095  0.8429E-02  0.6986E-01
     16.236  0.5991E-02  0.7070E-01
     16.377  0.1937E-02  0.7098E-01
     16.519  0.7280E-02  0.7201E-01
     16.660  0.3400E-02  0.7249E-01
     16.802  0.2363E-02  0.7282E-01
     16.943  0.3748E-02  0.7335E-01
     17.084  0.5716E-02  0.7416E-01
     17.226  0.8841E-02  0.7541E-01
     17.367  0.1295E-01  0.7724E-01
     17.509  0.8180E-02  0.7840E-01
     17.650  0.4046E-02  0.7897E-01
     17.791  0.4092E-02  0.7955E-01
     17.933  0.3953E-02  0.8011E-01
     18.074  0.7256E-02  0.8113E-01
     18.216  0.4668E-02  0.8179E-01
     18.357  0.3446E-02  0.8228E-01
     18.498  0.1958E-02  0.8256E-01
     18.640  0.3973E-02  0.8312E-01
     18.781  0.3883E-02  0.8367E-01
     18.922  0.1169E-02  0.8383E-01
     19.064  0.4824E-02  0.8451E-01
     19.205  0.6725E-02  0.8547E-01
     19.347  0.4313E-02  0.8608E-01
     19.488  0.5071E-02  0.8679E-01
     19.629  0.6905E-02  0.8777E-01
     19.771  0.6997E-02  0.8876E-01
     19.912  0.3901E-02  0.8931E-01
     20.054  0.1977E-02  0.8959E-01
     20.195  0.1035E-01  0.9105E-01
     20.336  0.4826E-02  0.9173E-01
     20.478  0.2384E-02  0.9207E-01
     20.619  0.7218E-02  0.9309E-01
     20.761  0.3751E-02  0.9362E-01
     20.902  0.6625E-02  0.9456E-01
     21.043  0.7435E-02  0.9561E-01
     21.185  0.4804E-02  0.9629E-01
     21.326  0.4729E-02  0.9696E-01
     21.468  0.6404E-02  0.9786E-01
     21.609  0.8250E-02  0.9903E-01
     21.750  0.9220E-02  0.1003E+00
     21.892  0.1396E-01  0.1023E+00
     22.033  0.7026E-02  0.1033E+00
     22.174  0.7249E-02  0.1043E+00
     22.316  0.8953E-02  0.1056E+00
     22.457  0.6357E-02  0.1065E+00
     22.599  0.2125E-02  0.1068E+00
     22.740  0.1791E-02  0.1070E+00
     22.881  0.2472E-02  0.1074E+00
     23.023  0.7773E-02  0.1085E+00
     23.164  0.8638E-02  0.1097E+00
     23.306  0.9110E-02  0.1110E+00
     23.447  0.4911E-02  0.1117E+00
     23.588  0.5743E-02  0.1125E+00
     23.730  0.5493E-02  0.1133E+00
     23.871  0.5026E-02  0.1140E+00
     24.013  0.4905E-02  0.1147E+00
     24.154  0.2300E-02  0.1150E+00
     24.295  0.6708E-02  0.1160E+00
     24.437  0.5173E-02  0.1167E+00
     24.578  0.1128E-01  0.1183E+00
     24.719  0.7262E-02  0.1193E+00
     24.861  0.4969E-02  0.1200E+00
     25.002  0.4386E-02  0.1206E+00
     25.144  0.6408E-02  0.1215E+00
     25.285  0.6345E-02  0.1224E+00
     25.426  0.5453E-02  0.1232E+00
     25.568  0.8045E-02  0.1244E+00
     25.709  0.3697E-02  0.1249E+00
     25.851  0.6736E-02  0.1258E+00
     25.992  0.4814E-02  0.1265E+00
     26.133  0.6157E-02  0.1274E+00
     26.275  0.6604E-02  0.1283E+00
     26.416  0.7879E-02  0.1294E+00
     26.558  0.7296E-02  0.1305E+00
     26.699  0.5005E-02  0.1312E+00
     26.840  0.9206E-02  0.1325E+00
     26.982  0.4748E-02  0.1331E+00
     27.123  0.7431E-02  0.1342E+00
     27.265  0.5446E-02  0.1350E+00
     27.406  0.6442E-02  0.1359E+00
     27.547  0.2648E-02  0.1362E+00
     27.689  0.5775E-02  0.1371E+00
     27.830  0.6109E-02  0.1379E+00
     27.971  0.7452E-02  0.1390E+00
     28.113  0.6064E-02  0.1398E+00
     28.254  0.4718E-02  0.1405E+00
     28.396  0.5738E-02  0.1413E+00
     28.537  0.6483E-02  0.1422E+00
     28.678  0.9606E-02  0.1436E+00
     28.820  0.6663E-02  0.1445E+00
     28.961  0.1252E-01  0.1463E+00
     29.103  0.7477E-02  0.1474E+00
     29.244  0.2706E-02  0.1477E+00
     29.385  0.6230E-02  0.1486E+00
     29.527  0.5197E-02  0.1494E+00
     29.668  0.5316E-02  0.1501E+00
     29.810  0.8460E-02  0.1513E+00
     29.951  0.8767E-02  0.1525E+00
     30.092  0.6387E-02  0.1534E+00
     30.234  0.2057E-02  0.1537E+00
     30.375  0.6052E-02  0.1546E+00
     30.517  0.4887E-02  0.1553E+00
     30.658  0.8148E-02  0.1564E+00
     30.799  0.5401E-02  0.1572E+00
     30.941  0.1670E-02  0.1574E+00
     31.082  0.4373E-02  0.1581E+00
     31.223  0.1990E-02  0.1583E+00
     31.365  0.3156E-03  0.1584E+00
     31.506  0.1751E-02  0.1586E+00
     31.648  0.2073E-02  0.1589E+00
     31.789  0.1375E-02  0.1591E+00
     31.930  0.1471E-03  0.1591E+00
     32.072  0.1517E-03  0.1592E+00
     32.213  0.3627E-03  0.1592E+00
     32.355  0.1010E-02  0.1594E+00
     32.496  0.1408E-03  0.1594E+00
     32.637  0.9960E-03  0.1595E+00
     32.779  0.5171E-03  0.1596E+00
     32.920  0.1189E-02  0.1598E+00
     33.062  0.5898E-03  0.1598E+00
     33.203  0.3188E-03  0.1599E+00
     33.344  0.4848E-05  0.1599E+00
     33.486  0.1049E-12  0.1599E+00
     33.627  0.0000E+00  0.1599E+00
     33.768  0.3151E-15  0.1599E+00
     33.910  0.3352E-06  0.1599E+00
     34.051  0.2120E-03  0.1599E+00
     34.193  0.2933E-03  0.1600E+00
     34.334  0.3307E-03  0.1600E+00
     34.475  0.1833E-05  0.1600E+00
     34.617  0.1004E-13  0.1600E+00
     34.758  0.0000E+00  0.1600E+00
     34.900  0.0000E+00  0.1600E+00
     35.041  0.0000E+00  0.1600E+00
     35.182  0.0000E+00  0.1600E+00
     35.324  0.0000E+00  0.1600E+00
     35.465  0.0000E+00  0.1600E+00
     35.607  0.0000E+00  0.1600E+00
     35.748  0.0000E+00  0.1600E+00
     35.889  0.0000E+00  0.1600E+00
     36.031  0.0000E+00  0.1600E+00
     36.172  0.0000E+00  0.1600E+00
