    1    1  100    1
  0.1386300E+02  0.2621157E-09  0.2621157E-09  0.2621157E-09  0.5000000E-15
  1.000000000000000E-004
  CAR 
 unknown system                          
      4    120      8
 
  0.0000000E+00  0.0000000E+00  0.0000000E+00  0.2962963E-03
    1       -4.316995   1.000000
    2       21.282755   0.000000
    3       21.282755   0.000000
    4       21.282755   0.000000
    5       22.435528   0.000000
    6       22.435528   0.000000
    7       22.435528   0.000000
    8       26.126958   0.000000
 
  0.6666667E-01  0.0000000E+00  0.0000000E+00  0.3555556E-02
    1       -4.180945   1.000000
    2       19.675662   0.000000
    3       20.152043   0.000000
    4       21.091156   0.000000
    5       21.989199   0.000000
    6       23.198000   0.000000
    7       23.793931   0.000000
    8       25.219973   0.000000
 
  0.1333333E+00  0.0000000E+00  0.0000000E+00  0.3555556E-02
    1       -3.773330   1.000000
    2       17.064687   0.000000
    3       18.815103   0.000000
    4       20.572736   0.000000
    5       21.012714   0.000000
    6       22.966859   0.000000
    7       25.139854   0.000000
    8       25.809699   0.000000
 
  0.2000000E+00  0.0000000E+00  0.0000000E+00  0.3555556E-02
    1       -3.095781   1.000000
    2       14.245478   0.000000
    3       17.679833   0.000000
    4       19.887708   0.000000
    5       19.957883   0.000000
    6       22.019316   0.000000
    7       26.005628   0.000000
    8       26.189917   0.000000
 
  0.2666667E+00  0.0000000E+00  0.0000000E+00  0.3555556E-02
    1       -2.151003   1.000000
    2       11.472866   0.000000
    3       16.768232   0.000000
    4       19.025574   0.000000
    5       19.206296   0.000000
    6       21.158932   0.000000
    7       26.815065   0.000000
    8       27.079401   0.000000
 
  0.3333333E+00  0.0000000E+00  0.0000000E+00  0.3555556E-02
    1       -0.942919   1.000000
    2        8.851655   1.000000
    3       16.084119   0.000000
    4       18.293353   0.000000
    5       18.637109   0.000000
    6       20.482848   0.000000
    7       27.716965   0.000000
    8       28.289242   0.000000
 
  0.4000000E+00  0.0000000E+00  0.0000000E+00  0.3555556E-02
    1        0.522736   1.000000
    2        6.429447   1.000000
    3       15.628185   0.000000
    4       17.793695   0.000000
    5       18.236279   0.000000
    6       20.019057   0.000000
    7       28.821053   0.000000
    8       29.557056   0.000000
 
  0.4666667E+00  0.0000000E+00  0.0000000E+00  0.3555556E-02
    1        2.230745   1.000000
    2        4.239644   1.000000
    3       15.400311   0.000000
    4       17.541031   0.000000
    5       18.030508   0.000000
    6       19.783344   0.000000
    7       29.897427   0.000000
    8       30.577444   0.000000
 
  0.6666667E-01  0.6666667E-01  0.0000000E+00  0.7111111E-02
    1       -3.909125   1.000000
    2       18.181112   0.000000
    3       18.727136   0.000000
    4       20.076061   0.000000
    5       22.145212   0.000000
    6       23.500492   0.000000
    7       24.456850   0.000000
    8       24.995608   0.000000
 
  0.1333333E+00  0.6666667E-01 -0.6938894E-17  0.1422222E-01
    1       -3.366539   1.000000
    2       15.710732   0.000000
    3       17.272609   0.000000
    4       19.107453   0.000000
    5       21.666796   0.000000
    6       23.056984   0.000000
    7       24.767551   0.000000
    8       26.388783   0.000000
 
  0.2000000E+00  0.6666667E-01 -0.6938894E-17  0.1422222E-01
    1       -2.555358   1.000000
    2       12.928309   0.000000
    3       16.208381   0.000000
    4       18.193223   0.000000
    5       20.935429   0.000000
    6       22.395047   0.000000
    7       25.323925   0.000000
    8       27.647086   0.000000
 
  0.2666667E+00  0.6666667E-01  0.6938894E-17  0.1422222E-01
    1       -1.478866   1.000000
    2       10.231341   0.000000
    3       15.383501   0.000000
    4       17.424428   0.000000
    5       20.232781   0.000000
    6       21.806627   0.000000
    7       26.119368   0.000000
    8       28.794666   0.000000
 
  0.3333333E+00  0.6666667E-01 -0.2081668E-16  0.1422222E-01
    1       -0.141723   1.000000
    2        7.708719   1.000000
    3       14.792496   0.000000
    4       16.854023   0.000000
    5       19.688046   0.000000
    6       21.339218   0.000000
    7       27.180790   0.000000
    8       29.905510   0.000000
 
  0.4000000E+00  0.6666667E-01  0.6938894E-17  0.1422222E-01
    1        1.448259   1.000000
    2        5.399206   1.000000
    3       14.436951   0.000000
    4       16.505309   0.000000
    5       19.349169   0.000000
    6       21.041348   0.000000
    7       28.443220   0.000000
    8       30.515992   0.000000
 
  0.4666667E+00  0.6666667E-01  0.6938894E-17  0.7111111E-02
    1        3.102124   1.000000
    2        3.504338   1.000000
    3       14.318272   0.000000
    4       16.388157   0.000000
    5       19.234548   0.000000
    6       20.939409   0.000000
    7       29.592355   0.000000
    8       29.949486   0.000000
 
  0.1333333E+00  0.1333333E+00  0.0000000E+00  0.7111111E-02
    1       -2.690312   1.000000
    2       14.348439   0.000000
    3       14.814550   0.000000
    4       18.049892   0.000000
    5       21.876261   0.000000
    6       22.975812   0.000000
    7       25.451892   0.000000
    8       26.754864   0.000000
 
  0.2000000E+00  0.1333333E+00  0.1387779E-16  0.1422222E-01
    1       -1.747359   1.000000
    2       11.820043   0.000000
    3       13.643155   0.000000
    4       17.186811   0.000000
    5       21.526046   0.000000
    6       23.028338   0.000000
    7       25.758286   0.000000
    8       28.183545   0.000000
 
  0.2666667E+00  0.1333333E+00  0.0000000E+00  0.1422222E-01
    1       -0.541580   1.000000
    2        9.224654   1.000000
    3       12.900362   0.000000
    4       16.513298   0.000000
    5       20.972528   0.000000
    6       23.260620   0.000000
    7       26.018116   0.000000
    8       29.776956   0.000000
 
  0.3333333E+00  0.1333333E+00  0.0000000E+00  0.1422222E-01
    1        0.921318   1.000000
    2        6.812830   1.000000
    3       12.407331   0.000000
    4       16.054031   0.000000
    5       20.548237   0.000000
    6       23.304831   0.000000
    7       26.807759   0.000000
    8       30.317065   0.000000
 
  0.4000000E+00  0.1333333E+00  0.0000000E+00  0.1422222E-01
    1        2.626523   1.000000
    2        4.628556   1.000000
    3       12.160563   0.000000
    4       15.821824   0.000000
    5       20.326741   0.000000
    6       23.264768   0.000000
    7       27.992303   0.000000
    8       29.426415   0.000000
 
  0.2000000E+00  0.2000000E+00  0.0000000E+00  0.7111111E-02
    1       -0.675054   1.000000
    2       10.798368   0.000000
    3       11.150670   0.000000
    4       16.418045   0.000000
    5       22.042077   0.000000
    6       22.929929   0.000000
    7       27.323798   0.000000
    8       28.251766   0.000000
 
  0.2666667E+00  0.2000000E+00  0.1387779E-16  0.1422222E-01
    1        0.656892   1.000000
    2        8.459463   1.000000
    3       10.364051   0.000000
    4       15.852696   0.000000
    5       21.897117   0.000000
    6       23.574868   0.000000
    7       27.457709   0.000000
    8       29.399176   0.000000
 
  0.3333333E+00  0.2000000E+00  0.1387779E-16  0.1422222E-01
    1        2.240760   1.000000
    2        6.169840   1.000000
    3        9.980687   0.001097
    4       15.507300   0.000000
    5       21.634610   0.000000
    6       24.481731   0.000000
    7       27.293855   0.000000
    8       29.343212   0.000000
 
  0.4000000E+00  0.2000000E+00  0.1387779E-16  0.7111111E-02
    1        3.895916   1.000000
    2        4.276838   1.000000
    3        9.853737   0.701271
    4       15.391244   0.000000
    5       21.536500   0.000000
    6       24.940462   0.000000
    7       27.264524   0.000000
    8       28.913867   0.000000
 
  0.2666667E+00  0.2666667E+00  0.0000000E+00  0.7111111E-02
    1        2.110674   1.000000
    2        7.809976   1.000000
    3        8.119887   1.000000
    4       15.401040   0.000000
    5       22.765991   0.000000
    6       23.665289   0.000000
    7       27.854212   0.000000
    8       29.710031   0.000000
 
  0.3333333E+00  0.2666667E+00  0.0000000E+00  0.1422222E-01
    1        3.804952   1.000000
    2        5.784427   1.000000
    3        7.723717   1.000000
    4       15.171674   0.000000
    5       22.889559   0.000000
    6       24.670963   0.000000
    7       26.524855   0.000000
    8       30.531425   0.000000
 
  0.3333333E+00  0.3333333E+00  0.0000000E+00  0.2370370E-02
    1        5.313108   1.000000
    2        5.818703   1.000000
    3        5.818703   1.000000
    4       15.058373   0.000000
    5       23.701157   0.000000
    6       25.139501   0.000000
    7       25.139501   0.000000
    8       32.523689   0.000000
 
  0.6666667E-01  0.6666667E-01  0.6666667E-01  0.2370370E-02
    1       -3.502062   1.000000
    2       16.713723   0.000000
    3       17.701638   0.000000
    4       17.701638   0.000000
    5       23.361699   0.000000
    6       23.361699   0.000000
    7       25.496035   0.000000
    8       25.496035   0.000000
 
  0.1333333E+00  0.6666667E-01  0.6666667E-01  0.7111111E-02
    1       -2.825400   1.000000
    2       14.431690   0.000000
    3       15.988221   0.000000
    4       16.642253   0.000000
    5       23.063057   0.000000
    6       23.728115   0.000000
    7       25.825397   0.000000
    8       26.303861   0.000000
 
  0.2000000E+00  0.6666667E-01  0.6666667E-01  0.7111111E-02
    1       -1.881838   1.000000
    2       11.713253   0.000000
    3       14.987438   0.000000
    4       15.724852   0.000000
    5       22.618705   0.000000
    6       23.167779   0.000000
    7       27.042851   0.000000
    8       27.043881   0.000000
 
  0.2666667E+00  0.6666667E-01  0.6666667E-01  0.7111111E-02
    1       -0.675265   1.000000
    2        9.103828   1.000000
    3       14.264570   0.000000
    4       15.011135   0.000000
    5       22.164667   0.000000
    6       22.602256   0.000000
    7       27.951226   0.000000
    8       28.360008   0.000000
 
  0.3333333E+00  0.6666667E-01  0.6666667E-01  0.7111111E-02
    1        0.788623   1.000000
    2        6.686699   1.000000
    3       13.785099   0.000000
    4       14.526382   0.000000
    5       21.814427   0.000000
    6       22.194049   0.000000
    7       29.031973   0.000000
    8       29.673889   0.000000
 
  0.4000000E+00  0.6666667E-01  0.6666667E-01  0.7111111E-02
    1        2.494888   1.000000
    2        4.499804   1.000000
    3       13.545458   0.000000
    4       14.281790   0.000000
    5       21.627462   0.000000
    6       21.983120   0.000000
    7       30.055150   0.000000
    8       30.703178   0.000000
 
 -0.6666667E-01  0.6666667E-01  0.6666667E-01  0.1777778E-02
    1       -4.044993   1.000000
    2       19.227714   0.000000
    3       19.227714   0.000000
    4       20.248627   0.000000
    5       22.701500   0.000000
    6       23.644697   0.000000
    7       23.781926   0.000000
    8       23.781926   0.000000
 
  0.1333333E+00  0.1333333E+00  0.6666667E-01  0.7111111E-02
    1       -2.016338   1.000000
    2       13.162030   0.000000
    3       13.675499   0.000000
    4       15.325822   0.000000
    5       23.656620   0.000000
    6       24.532380   0.000000
    7       26.142688   0.000000
    8       27.112288   0.000000
 
  0.2000000E+00  0.1333333E+00  0.6666667E-01  0.1422222E-01
    1       -0.942619   1.000000
    2       10.717577   0.000000
    3       12.589473   0.000000
    4       14.482155   0.000000
    5       23.583419   0.000000
    6       24.615769   0.000000
    7       26.951586   0.000000
    8       28.348132   0.000000
 
  0.2666667E+00  0.1333333E+00  0.6666667E-01  0.1422222E-01
    1        0.391181   1.000000
    2        8.216713   1.000000
    3       11.960938   0.000000
    4       13.878096   0.000000
    5       23.266901   0.000000
    6       24.534732   0.000000
    7       27.840108   0.000000
    8       29.779924   0.000000
 
  0.3333333E+00  0.1333333E+00  0.6666667E-01  0.1422222E-01
    1        1.977370   1.000000
    2        5.916069   1.000000
    3       11.587197   0.000000
    4       13.513323   0.000000
    5       23.014932   0.000000
    6       24.420047   0.000000
    7       28.954874   0.000000
    8       30.645160   0.000000
 
  0.4000000E+00  0.1333333E+00  0.6666667E-01  0.7111111E-02
    1        3.632080   1.000000
    2        4.021625   1.000000
    3       11.462690   0.000000
    4       13.391328   0.000000
    5       22.924225   0.000000
    6       24.370188   0.000000
    7       29.894186   0.000000
    8       30.397882   0.000000
 
 -0.1333333E+00  0.1333333E+00  0.6666667E-01  0.7111111E-02
    1       -3.637626   1.000000
    2       17.067286   0.000000
    3       17.929061   0.000000
    4       19.709314   0.000000
    5       22.081146   0.000000
    6       22.376341   0.000000
    7       24.243109   0.000000
    8       25.409053   0.000000
 
  0.2000000E+00  0.2000000E+00  0.6666667E-01  0.7111111E-02
    1        0.258464   1.000000
    2        9.810910   0.959018
    3       10.170670   0.000000
    4       13.748126   0.000000
    5       24.216430   0.000000
    6       25.219468   0.000000
    7       28.085358   0.000000
    8       28.919254   0.000000
 
  0.2666667E+00  0.2000000E+00  0.6666667E-01  0.1422222E-01
    1        1.715747   1.000000
    2        7.574660   1.000000
    3        9.502410   1.000000
    4       13.262140   0.000000
    5       24.307280   0.000000
    6       25.809600   0.000000
    7       28.587907   0.000000
    8       30.032295   0.000000
 
  0.3333333E+00  0.2000000E+00  0.6666667E-01  0.1422222E-01
    1        3.414778   1.000000
    2        5.405132   1.000000
    3        9.243336   1.000000
    4       13.018421   0.000000
    5       24.217761   0.000000
    6       26.330245   0.000000
    7       28.898787   0.000000
    8       30.246904   0.000000
 
 -0.2000000E+00  0.2000000E+00  0.6666667E-01  0.7111111E-02
    1       -2.960494   1.000000
    2       14.332336   0.000000
    3       16.785464   0.000000
    4       19.084820   0.000000
    5       21.079076   0.000000
    6       21.833860   0.000000
    7       24.295555   0.000000
    8       27.640802   0.000000
 
 -0.1333333E+00  0.2000000E+00  0.6666667E-01  0.7111111E-02
    1       -3.095720   1.000000
    2       15.672060   0.000000
    3       15.988713   0.000000
    4       19.115849   0.000000
    5       21.330918   0.000000
    6       21.830947   0.000000
    7       25.129477   0.000000
    8       26.040838   0.000000
 
  0.2666667E+00  0.2666667E+00  0.6666667E-01  0.7111111E-02
    1        3.290142   1.000000
    2        7.048958   1.000000
    3        7.365765   1.000000
    4       12.896913   0.000000
    5       25.166625   0.000000
    6       26.333640   0.000000
    7       28.841704   0.000000
    8       30.602459   0.000000
 
  0.3333333E+00  0.2666667E+00  0.6666667E-01  0.7111111E-02
    1        4.931501   1.000000
    2        5.310581   1.000000
    3        7.097744   1.000000
    4       12.775061   0.000000
    5       25.381677   0.000000
    6       27.032509   0.000000
    7       28.013906   0.000000
    8       31.386850   0.000000
 
 -0.2666667E+00  0.2666667E+00  0.6666667E-01  0.7111111E-02
    1       -2.016311   1.000000
    2       11.584875   0.000000
    3       15.855106   0.000000
    4       18.355608   0.000000
    5       20.177732   0.000000
    6       21.537057   0.000000
    7       24.540614   0.000000
    8       29.374234   0.000000
 
 -0.2000000E+00  0.2666667E+00  0.6666667E-01  0.1422222E-01
    1       -2.285575   1.000000
    2       13.123774   0.000000
    3       14.790398   0.000000
    4       18.594377   0.000000
    5       20.783233   0.000000
    6       21.416280   0.000000
    7       25.140777   0.000000
    8       27.806423   0.000000
 
 -0.3333333E+00  0.3333333E+00  0.6666667E-01  0.7111111E-02
    1       -0.809011   1.000000
    2        8.973498   1.000000
    3       15.152166   0.000000
    4       17.726804   0.000000
    5       19.469074   0.000000
    6       21.215538   0.000000
    7       25.246497   0.000000
    8       30.279858   0.000000
 
 -0.2666667E+00  0.3333333E+00  0.6666667E-01  0.1422222E-01
    1       -1.210474   1.000000
    2       10.464770   0.000000
    3       13.944052   0.000000
    4       17.973094   0.000000
    5       20.092267   0.000000
    6       21.719169   0.000000
    7       24.904740   0.000000
    8       29.667158   0.000000
 
 -0.2000000E+00  0.3333333E+00  0.6666667E-01  0.7111111E-02
    1       -1.344467   1.000000
    2       11.999124   0.000000
    3       12.328116   0.000000
    4       18.357773   0.000000
    5       20.687373   0.000000
    6       20.838498   0.000000
    7       26.784320   0.000000
    8       27.677015   0.000000
 
 -0.4000000E+00  0.4000000E+00  0.6666667E-01  0.7111111E-02
    1        0.655675   1.000000
    2        6.556015   1.000000
    3       14.681774   0.000000
    4       17.283665   0.000000
    5       18.985972   0.000000
    6       20.930046   0.000000
    7       26.338077   0.000000
    8       30.324790   0.000000
 
 -0.3333333E+00  0.4000000E+00  0.6666667E-01  0.1422222E-01
    1        0.124897   1.000000
    2        7.956959   1.000000
    3       13.338121   0.000000
    4       17.458746   0.000000
    5       19.525819   0.000000
    6       22.105780   0.000000
    7       25.078573   0.000000
    8       29.910161   0.000000
 
 -0.2666667E+00  0.4000000E+00  0.6666667E-01  0.1422222E-01
    1       -0.141106   1.000000
    2        9.580829   1.000000
    3       11.435765   0.000000
    4       17.944398   0.000000
    5       20.149194   0.000000
    6       21.403239   0.000000
    7       26.671717   0.000000
    8       28.853252   0.000000
 
 -0.4666667E+00  0.4666667E+00  0.6666667E-01  0.7111111E-02
    1        2.362679   1.000000
    2        4.368646   1.000000
    3       14.446140   0.000000
    4       17.056773   0.000000
    5       18.741896   0.000000
    6       20.767876   0.000000
    7       27.686564   0.000000
    8       29.184079   0.000000
 
 -0.4000000E+00  0.4666667E+00  0.6666667E-01  0.1422222E-01
    1        1.712733   1.000000
    2        5.654789   1.000000
    3       12.973476   0.000000
    4       17.133711   0.000000
    5       19.172049   0.000000
    6       22.272344   0.000000
    7       25.872063   0.000000
    8       28.732524   0.000000
 
 -0.3333333E+00  0.4666667E+00  0.6666667E-01  0.1422222E-01
    1        1.318730   1.000000
    2        7.189100   1.000000
    3       10.932037   0.000000
    4       17.581362   0.000000
    5       19.696682   0.000000
    6       22.396087   0.000000
    7       26.161659   0.000000
    8       28.603228   0.000000
 
 -0.2666667E+00  0.4666667E+00  0.6666667E-01  0.7111111E-02
    1        1.187006   1.000000
    2        8.813782   1.000000
    3        9.111337   1.000000
    4       17.690774   0.000000
    5       20.823831   0.000000
    6       21.066807   0.000000
    7       27.052379   0.000000
    8       28.969499   0.000000
 
 -0.4666667E+00 -0.4666667E+00  0.6666667E-01  0.7111111E-02
    1        3.368205   1.000000
    2        3.759742   1.000000
    3       12.851739   0.000000
    4       17.023369   0.000000
    5       19.052393   0.000000
    6       22.298939   0.000000
    7       26.852273   0.000000
    8       27.557523   0.000000
 
 -0.4000000E+00 -0.4666667E+00  0.6666667E-01  0.1422222E-01
    1        3.020520   1.000000
    2        5.013760   1.000000
    3       10.681166   0.000000
    4       17.384061   0.000000
    5       19.462255   0.000000
    6       23.358330   0.000000
    7       25.610910   0.000000
    8       27.899173   0.000000
 
 -0.3333333E+00 -0.4666667E+00  0.6666667E-01  0.1422222E-01
    1        2.765913   1.000000
    2        6.672160   1.000000
    3        8.594333   1.000000
    4       17.450729   0.000000
    5       20.606430   0.000000
    6       22.189094   0.000000
    7       25.495590   0.000000
    8       29.695365   0.000000
 
 -0.4000000E+00 -0.4000000E+00  0.6666667E-01  0.7111111E-02
    1        4.420327   1.000000
    2        4.786013   1.000000
    3        8.463505   1.000000
    4       17.361155   0.000000
    5       20.499783   0.000000
    6       23.294827   0.000000
    7       24.241971   0.000000
    8       29.781993   0.000000
 
 -0.3333333E+00 -0.4000000E+00  0.6666667E-01  0.7111111E-02
    1        4.448367   1.000000
    2        6.289941   1.000000
    3        6.576452   1.000000
    4       17.316408   0.000000
    5       21.705923   0.000000
    6       22.275964   0.000000
    7       23.797609   0.000000
    8       31.661033   0.000000
 
  0.1333333E+00  0.1333333E+00  0.1333333E+00  0.2370370E-02
    1       -1.076489   1.000000
    2       12.047321   0.000000
    3       12.716041   0.000000
    4       12.716041   0.000000
    5       25.312277   0.000000
    6       25.312277   0.000000
    7       27.347602   0.000000
    8       27.347602   0.000000
 
  0.2000000E+00  0.1333333E+00  0.1333333E+00  0.7111111E-02
    1        0.125450   1.000000
    2        9.839962   0.820608
    3       11.579377   0.000000
    4       11.979561   0.000000
    5       25.550582   0.000000
    6       25.885301   0.000000
    7       28.382389   0.000000
    8       28.524050   0.000000
 
  0.2666667E+00  0.1333333E+00  0.1333333E+00  0.7111111E-02
    1        1.583842   1.000000
    2        7.453041   1.000000
    3       11.061992   0.000000
    4       11.482811   0.000000
    5       25.562624   0.000000
    6       25.791587   0.000000
    7       29.590996   0.000000
    8       29.868113   0.000000
 
  0.3333333E+00  0.1333333E+00  0.1333333E+00  0.7111111E-02
    1        3.284268   1.000000
    2        5.277660   1.000000
    3       10.809565   0.000000
    4       11.233025   0.000000
    5       25.524472   0.000000
    6       25.680136   0.000000
    7       30.458156   0.000000
    8       30.997641   0.000000
 
 -0.1333333E+00  0.1333333E+00  0.1333333E+00  0.1777778E-02
    1       -3.231040   1.000000
    2       16.627526   0.000000
    3       16.627526   0.000000
    4       18.256327   0.000000
    5       20.511972   0.000000
    6       23.497323   0.000000
    7       25.027963   0.000000
    8       25.027963   0.000000
 
  0.2000000E+00  0.2000000E+00  0.1333333E+00  0.7111111E-02
    1        1.452266   1.000000
    2        9.051495   1.000000
    3        9.422819   1.000000
    4       11.177992   0.000000
    5       26.460647   0.000000
    6       27.173999   0.000000
    7       29.091897   0.000000
    8       29.567503   0.000000
 
  0.2666667E+00  0.2000000E+00  0.1333333E+00  0.1422222E-01
    1        3.030061   1.000000
    2        6.937631   1.000000
    3        8.873749   1.000000
    4       10.797578   0.000000
    5       26.774651   0.000000
    6       27.711822   0.000000
    7       29.985748   0.000000
    8       30.638158   0.000000
 
  0.3333333E+00  0.2000000E+00  0.1333333E+00  0.7111111E-02
    1        4.679623   1.000000
    2        5.055820   1.000000
    3        8.741397   1.000000
    4       10.671716   0.000000
    5       26.819118   0.000000
    6       27.879537   0.000000
    7       30.373495   0.000000
    8       31.154316   0.000000
 
 -0.2000000E+00  0.2000000E+00  0.1333333E+00  0.7111111E-02
    1       -2.555201   1.000000
    2       14.532668   0.000000
    3       15.469128   0.000000
    4       17.662063   0.000000
    5       19.632339   0.000000
    6       23.044443   0.000000
    7       25.218613   0.000000
    8       26.771179   0.000000
 
  0.2666667E+00  0.2666667E+00  0.1333333E+00  0.7111111E-02
    1        4.711030   1.000000
    2        6.548526   1.000000
    3        6.859533   1.000000
    4       10.541254   0.000000
    5       27.563752   0.000000
    6       28.820463   0.000000
    7       29.902321   0.000000
    8       31.471743   0.000000
 
 -0.2666667E+00  0.2666667E+00  0.1333333E+00  0.7111111E-02
    1       -1.612832   1.000000
    2       11.907631   0.000000
    3       14.523900   0.000000
    4       17.025048   0.000000
    5       19.828846   0.000000
    6       22.219581   0.000000
    7       24.893385   0.000000
    8       29.233479   0.000000
 
 -0.2000000E+00  0.2666667E+00  0.1333333E+00  0.7111111E-02
    1       -1.747118   1.000000
    2       13.347695   0.000000
    3       13.577373   0.000000
    4       17.281874   0.000000
    5       18.763441   0.000000
    6       22.869586   0.000000
    7       26.459977   0.000000
    8       27.147760   0.000000
 
 -0.3333333E+00  0.3333333E+00  0.1333333E+00  0.7111111E-02
    1       -0.407896   1.000000
    2        9.334770   1.000000
    3       13.808881   0.000000
    4       16.382914   0.000000
    5       20.499412   0.000000
    6       21.540676   0.000000
    7       24.577552   0.000000
    8       29.469210   0.000000
 
 -0.2666667E+00  0.3333333E+00  0.1333333E+00  0.1422222E-01
    1       -0.674821   1.000000
    2       10.912792   0.000000
    3       12.624552   0.000000
    4       16.922327   0.000000
    5       18.967608   0.000000
    6       22.250878   0.000000
    7       26.209660   0.000000
    8       28.463385   0.000000
 
 -0.4000000E+00  0.4000000E+00  0.1333333E+00  0.7111111E-02
    1        1.053811   1.000000
    2        6.933895   1.000000
    3       13.330184   0.000000
    4       15.919290   0.000000
    5       21.072799   0.000000
    6       21.210881   0.000000
    7       24.587502   0.000000
    8       28.239691   0.000000
 
 -0.3333333E+00  0.4000000E+00  0.1333333E+00  0.1422222E-01
    1        0.656904   1.000000
    2        8.447206   1.000000
    3       12.008782   0.000000
    4       16.429244   0.000000
    5       19.782734   0.000000
    6       21.815879   0.000000
    7       25.475839   0.000000
    8       28.075162   0.000000
 
 -0.2666667E+00  0.4000000E+00  0.1333333E+00  0.7111111E-02
    1        0.524375   1.000000
    2       10.038484   0.000001
    3       10.310594   0.000000
    4       17.343924   0.000000
    5       18.675899   0.000000
    6       21.792138   0.000000
    7       26.471049   0.000000
    8       28.426940   0.000000
 
 -0.4666667E+00  0.4666667E+00  0.1333333E+00  0.7111111E-02
    1        2.757614   1.000000
    2        4.754699   1.000000
    3       13.090355   0.000000
    4       15.681177   0.000000
    5       20.835546   0.000000
    6       21.633929   0.000000
    7       25.073204   0.000000
    8       26.913566   0.000000
 
 -0.4000000E+00  0.4666667E+00  0.1333333E+00  0.1422222E-01
    1        2.240202   1.000000
    2        6.163099   1.000000
    3       11.639166   0.000000
    4       16.094754   0.000000
    5       20.497637   0.000000
    6       21.908179   0.000000
    7       24.523401   0.000000
    8       27.295768   0.000000
 
 -0.3333333E+00  0.4666667E+00  0.1333333E+00  0.1422222E-01
    1        1.978794   1.000000
    2        7.806450   1.000000
    3        9.683269   1.000000
    4       17.262888   0.000000
    5       19.354431   0.000000
    6       21.502998   0.000000
    7       24.786033   0.000000
    8       29.041610   0.000000
 
 -0.4666667E+00 -0.4666667E+00  0.1333333E+00  0.7111111E-02
    1        3.897894   1.000000
    2        4.269372   1.000000
    3       11.515838   0.000000
    4       15.979787   0.000000
    5       20.658344   0.000000
    6       22.432794   0.000000
    7       23.774895   0.000000
    8       27.006892   0.000000
 
 -0.4000000E+00 -0.4666667E+00  0.1333333E+00  0.1422222E-01
    1        3.674064   1.000000
    2        5.651675   1.000000
    3        9.427471   1.000000
    4       17.100992   0.000000
    5       20.103898   0.000000
    6       21.825188   0.000000
    7       23.104542   0.000000
    8       29.068881   0.000000
 
 -0.3333333E+00 -0.4666667E+00  0.1333333E+00  0.7111111E-02
    1        3.549045   1.000000
    2        7.295743   1.000000
    3        7.574627   1.000000
    4       17.923328   0.000000
    5       19.578043   0.000000
    6       21.251500   0.000000
    7       23.051910   0.000000
    8       30.938771   0.000000
 
 -0.4000000E+00 -0.4000000E+00  0.1333333E+00  0.7111111E-02
    1        5.195417   1.000000
    2        5.545764   1.000000
    3        7.322663   1.000000
    4       18.052462   0.000000
    5       20.165351   0.000000
    6       21.303043   0.000000
    7       21.878305   0.000000
    8       31.540618   0.000000
 
  0.2000000E+00  0.2000000E+00  0.2000000E+00  0.2370370E-02
    1        2.900409   1.000000
    2        8.413456   1.000000
    3        8.919943   1.000000
    4        8.919943   1.000000
    5       28.391002   0.000000
    6       28.391002   0.000000
    7       30.179017   0.000000
    8       30.179017   0.000000
 
  0.2666667E+00  0.2000000E+00  0.2000000E+00  0.7111111E-02
    1        4.587126   1.000000
    2        6.555578   1.000000
    3        8.361623   1.000000
    4        8.667469   1.000000
    5       28.927720   0.000000
    6       29.263677   0.000000
    7       30.877867   0.000000
    8       31.151074   0.000000
 
 -0.2000000E+00  0.2000000E+00  0.2000000E+00  0.1777778E-02
    1       -1.881500   1.000000
    2       14.298384   0.000000
    3       14.298384   0.000000
    4       16.210399   0.000000
    5       17.812812   0.000000
    6       24.815773   0.000000
    7       26.351616   0.000000
    8       26.351616   0.000000
 