       N       E                     dE             d eps       ncg     rms          rms(c)
DAV:   1    -0.161689499422E+01   -0.16169E+01   -0.22435E+03  2008   0.505E+02
DAV:   2    -0.489448717049E+01   -0.32776E+01   -0.31622E+01  2856   0.358E+01
DAV:   3    -0.491376989908E+01   -0.19283E-01   -0.19236E-01  2192   0.292E+00
DAV:   4    -0.491378766230E+01   -0.17763E-04   -0.17762E-04  3144   0.964E-02
DAV:   5    -0.491378766722E+01   -0.49157E-08   -0.57868E-08  2208   0.100E-03    0.285E+00
DAV:   6    -0.490233979968E+01    0.11448E-01   -0.35885E-03  2064   0.267E-01    0.158E+00
DAV:   7    -0.489577288528E+01    0.65669E-02   -0.72367E-03  2072   0.380E-01    0.137E-01
DAV:   8    -0.489575167207E+01    0.21213E-04   -0.35055E-05  2784   0.469E-02    0.110E-02
DAV:   9    -0.489575221528E+01   -0.54320E-06   -0.46441E-07  2232   0.400E-03
   1 F= -.48957522E+01 E0= -.48954374E+01  d E =-.489575E+01
       N       E                     dE             d eps       ncg     rms          rms(c)
DAV:   1    -0.491631912811E+01   -0.20567E-01   -0.50222E-01  1960   0.288E+00    0.666E-01
DAV:   2    -0.491093239188E+01    0.53867E-02   -0.33598E-03  2144   0.486E-01    0.383E-01
DAV:   3    -0.490772929404E+01    0.32031E-02   -0.35266E-03  2056   0.258E-01    0.113E-01
DAV:   4    -0.490772620162E+01    0.30924E-05   -0.75852E-06  2480   0.264E-02    0.962E-02
DAV:   5    -0.490771398847E+01    0.12213E-04   -0.13187E-06  2384   0.831E-03    0.175E-02
DAV:   6    -0.490771438815E+01   -0.39967E-06   -0.25061E-08  1040   0.138E-03
   2 F= -.49077144E+01 E0= -.49074831E+01  d E =-.119622E-01
       N       E                     dE             d eps       ncg     rms          rms(c)
DAV:   1    -0.490921223940E+01   -0.14983E-02   -0.26798E-02  1944   0.676E-01    0.151E-01
DAV:   2    -0.490892842685E+01    0.28381E-03   -0.17775E-04  2184   0.114E-01    0.865E-02
DAV:   3    -0.490876151932E+01    0.16691E-03   -0.18513E-04  2072   0.592E-02    0.280E-02
DAV:   4    -0.490876159974E+01   -0.80419E-07   -0.38577E-07  2368   0.598E-03    0.243E-02
DAV:   5    -0.490876230745E+01   -0.70770E-06   -0.72416E-08  1088   0.205E-03    0.475E-03
DAV:   6    -0.490876217244E+01    0.13501E-06   -0.32460E-09   960   0.589E-04
   3 F= -.49087622E+01 E0= -.49085181E+01  d E =-.130100E-01
