<?xml version="1.0" encoding="ISO-8859-1"?>
<modeling>
 <generator>
  <i name="program" type="string">vasp </i>
  <i name="version" type="string">6.2.0  </i>
  <i name="subversion" type="string">18Jan21 (build Aug 12 2022 13:00:08) complex                          parallel </i>
  <i name="platform" type="string">LinuxIFC </i>
  <i name="date" type="string">2024 11 03 </i>
  <i name="time" type="string">22:10:15 </i>
 </generator>
 <incar>
  <i type="int" name="ISTART">     0</i>
  <i type="string" name="PREC">Accurate      (Accurate strictly avoids</i>
  <i type="logical" name="ADDGRID"> T  </i>
  <i type="int" name="ISPIN">     1</i>
  <i type="int" name="NELM">    90</i>
  <i type="int" name="NELMIN">     6</i>
  <i type="int" name="IBRION">     2</i>
  <i name="EDIFF">      0.00000100</i>
  <i name="EDIFFG">     -0.00200000</i>
  <i type="int" name="NSW">   100</i>
  <i type="int" name="ISIF">     3</i>
  <i type="int" name="ISYM">     2</i>
  <i name="ENCUT">    700.00000000</i>
  <i type="logical" name="LREAL"> F  </i>
  <i type="int" name="ISMEAR">     0</i>
  <i name="SIGMA">      0.05000000</i>
  <i type="logical" name="LWAVE"> F  </i>
  <i type="logical" name="LCHARG"> F  </i>
  <i type="logical" name="LASPH"> T  </i>
 </incar>
 <primitive_cell>
  <structure name="primitive_cell" >
   <crystal>
    <varray name="basis" >
     <v>       1.51332563       1.51332563       1.51332563 </v>
     <v>       1.51332563      -1.51332563      -1.51332563 </v>
     <v>      -1.51332563       1.51332563      -1.51332563 </v>
    </varray>
    <i name="volume">     13.86299778 </i>
    <varray name="rec_basis" >
     <v>       0.33039816       0.33039816       0.00000000 </v>
     <v>       0.33039816       0.00000000      -0.33039816 </v>
     <v>       0.00000000       0.33039816      -0.33039816 </v>
    </varray>
   </crystal>
   <varray name="positions" >
    <v>       0.00000000       0.00000000       0.00000000 </v>
   </varray>
  </structure>
  <varray name="primitive_index" >
   <v type="int" >        1 </v>
  </varray>
 </primitive_cell>
 <kpoints>
  <generation param="Monkhorst-Pack">
   <v type="int" name="divisions">      15       15       15 </v>
   <v name="usershift">      0.00000000       0.00000000       0.00000000 </v>
   <v name="genvec1">      0.06666667       0.00000000       0.00000000 </v>
   <v name="genvec2">      0.00000000       0.06666667       0.00000000 </v>
   <v name="genvec3">      0.00000000       0.00000000       0.06666667 </v>
   <v name="shift">      0.00000000       0.00000000       0.00000000 </v>
  </generation>
  <varray name="kpointlist" >
   <v>       0.00000000       0.00000000       0.00000000 </v>
   <v>       0.06666667       0.00000000       0.00000000 </v>
   <v>       0.13333333       0.00000000       0.00000000 </v>
   <v>       0.20000000       0.00000000       0.00000000 </v>
   <v>       0.26666667       0.00000000       0.00000000 </v>
   <v>       0.33333333       0.00000000       0.00000000 </v>
   <v>       0.40000000       0.00000000       0.00000000 </v>
   <v>       0.46666667       0.00000000       0.00000000 </v>
   <v>       0.06666667       0.06666667       0.00000000 </v>
   <v>       0.13333333       0.06666667      -0.00000000 </v>
   <v>       0.20000000       0.06666667      -0.00000000 </v>
   <v>       0.26666667       0.06666667       0.00000000 </v>
   <v>       0.33333333       0.06666667      -0.00000000 </v>
   <v>       0.40000000       0.06666667       0.00000000 </v>
   <v>       0.46666667       0.06666667       0.00000000 </v>
   <v>       0.13333333       0.13333333       0.00000000 </v>
   <v>       0.20000000       0.13333333       0.00000000 </v>
   <v>       0.26666667       0.13333333       0.00000000 </v>
   <v>       0.33333333       0.13333333       0.00000000 </v>
   <v>       0.40000000       0.13333333       0.00000000 </v>
   <v>       0.20000000       0.20000000       0.00000000 </v>
   <v>       0.26666667       0.20000000       0.00000000 </v>
   <v>       0.33333333       0.20000000       0.00000000 </v>
   <v>       0.40000000       0.20000000       0.00000000 </v>
   <v>       0.26666667       0.26666667       0.00000000 </v>
   <v>       0.33333333       0.26666667       0.00000000 </v>
   <v>       0.33333333       0.33333333       0.00000000 </v>
   <v>       0.06666667       0.06666667       0.06666667 </v>
   <v>       0.13333333       0.06666667       0.06666667 </v>
   <v>       0.20000000       0.06666667       0.06666667 </v>
   <v>       0.26666667       0.06666667       0.06666667 </v>
   <v>       0.33333333       0.06666667       0.06666667 </v>
   <v>       0.40000000       0.06666667       0.06666667 </v>
   <v>      -0.06666667       0.06666667       0.06666667 </v>
   <v>       0.13333333       0.13333333       0.06666667 </v>
   <v>       0.20000000       0.13333333       0.06666667 </v>
   <v>       0.26666667       0.13333333       0.06666667 </v>
   <v>       0.33333333       0.13333333       0.06666667 </v>
   <v>       0.40000000       0.13333333       0.06666667 </v>
   <v>      -0.13333333       0.13333333       0.06666667 </v>
   <v>       0.20000000       0.20000000       0.06666667 </v>
   <v>       0.26666667       0.20000000       0.06666667 </v>
   <v>       0.33333333       0.20000000       0.06666667 </v>
   <v>      -0.20000000       0.20000000       0.06666667 </v>
   <v>      -0.13333333       0.20000000       0.06666667 </v>
   <v>       0.26666667       0.26666667       0.06666667 </v>
   <v>       0.33333333       0.26666667       0.06666667 </v>
   <v>      -0.26666667       0.26666667       0.06666667 </v>
   <v>      -0.20000000       0.26666667       0.06666667 </v>
   <v>      -0.33333333       0.33333333       0.06666667 </v>
   <v>      -0.26666667       0.33333333       0.06666667 </v>
   <v>      -0.20000000       0.33333333       0.06666667 </v>
   <v>      -0.40000000       0.40000000       0.06666667 </v>
   <v>      -0.33333333       0.40000000       0.06666667 </v>
   <v>      -0.26666667       0.40000000       0.06666667 </v>
   <v>      -0.46666667       0.46666667       0.06666667 </v>
   <v>      -0.40000000       0.46666667       0.06666667 </v>
   <v>      -0.33333333       0.46666667       0.06666667 </v>
   <v>      -0.26666667       0.46666667       0.06666667 </v>
   <v>      -0.46666667      -0.46666667       0.06666667 </v>
   <v>      -0.40000000      -0.46666667       0.06666667 </v>
   <v>      -0.33333333      -0.46666667       0.06666667 </v>
   <v>      -0.40000000      -0.40000000       0.06666667 </v>
   <v>      -0.33333333      -0.40000000       0.06666667 </v>
   <v>       0.13333333       0.13333333       0.13333333 </v>
   <v>       0.20000000       0.13333333       0.13333333 </v>
   <v>       0.26666667       0.13333333       0.13333333 </v>
   <v>       0.33333333       0.13333333       0.13333333 </v>
   <v>      -0.13333333       0.13333333       0.13333333 </v>
   <v>       0.20000000       0.20000000       0.13333333 </v>
   <v>       0.26666667       0.20000000       0.13333333 </v>
   <v>       0.33333333       0.20000000       0.13333333 </v>
   <v>      -0.20000000       0.20000000       0.13333333 </v>
   <v>       0.26666667       0.26666667       0.13333333 </v>
   <v>      -0.26666667       0.26666667       0.13333333 </v>
   <v>      -0.20000000       0.26666667       0.13333333 </v>
   <v>      -0.33333333       0.33333333       0.13333333 </v>
   <v>      -0.26666667       0.33333333       0.13333333 </v>
   <v>      -0.40000000       0.40000000       0.13333333 </v>
   <v>      -0.33333333       0.40000000       0.13333333 </v>
   <v>      -0.26666667       0.40000000       0.13333333 </v>
   <v>      -0.46666667       0.46666667       0.13333333 </v>
   <v>      -0.40000000       0.46666667       0.13333333 </v>
   <v>      -0.33333333       0.46666667       0.13333333 </v>
   <v>      -0.46666667      -0.46666667       0.13333333 </v>
   <v>      -0.40000000      -0.46666667       0.13333333 </v>
   <v>      -0.33333333      -0.46666667       0.13333333 </v>
   <v>      -0.40000000      -0.40000000       0.13333333 </v>
   <v>       0.20000000       0.20000000       0.20000000 </v>
   <v>       0.26666667       0.20000000       0.20000000 </v>
   <v>      -0.20000000       0.20000000       0.20000000 </v>
   <v>       0.26666667       0.26666667       0.20000000 </v>
   <v>      -0.26666667       0.26666667       0.20000000 </v>
   <v>      -0.33333333       0.33333333       0.20000000 </v>
   <v>      -0.26666667       0.33333333       0.20000000 </v>
   <v>      -0.40000000       0.40000000       0.20000000 </v>
   <v>      -0.33333333       0.40000000       0.20000000 </v>
   <v>      -0.46666667       0.46666667       0.20000000 </v>
   <v>      -0.40000000       0.46666667       0.20000000 </v>
   <v>      -0.33333333       0.46666667       0.20000000 </v>
   <v>      -0.46666667      -0.46666667       0.20000000 </v>
   <v>      -0.40000000      -0.46666667       0.20000000 </v>
   <v>      -0.40000000      -0.40000000       0.20000000 </v>
   <v>      -0.26666667       0.26666667       0.26666667 </v>
   <v>      -0.33333333       0.33333333       0.26666667 </v>
   <v>      -0.40000000       0.40000000       0.26666667 </v>
   <v>      -0.33333333       0.40000000       0.26666667 </v>
   <v>      -0.46666667       0.46666667       0.26666667 </v>
   <v>      -0.40000000       0.46666667       0.26666667 </v>
   <v>      -0.46666667      -0.46666667       0.26666667 </v>
   <v>      -0.40000000      -0.46666667       0.26666667 </v>
   <v>      -0.33333333       0.33333333       0.33333333 </v>
   <v>      -0.40000000       0.40000000       0.33333333 </v>
   <v>      -0.46666667       0.46666667       0.33333333 </v>
   <v>      -0.40000000       0.46666667       0.33333333 </v>
   <v>      -0.46666667      -0.46666667       0.33333333 </v>
   <v>      -0.40000000       0.40000000       0.40000000 </v>
   <v>      -0.46666667       0.46666667       0.40000000 </v>
   <v>      -0.46666667      -0.46666667       0.40000000 </v>
   <v>      -0.46666667       0.46666667       0.46666667 </v>
  </varray>
  <varray name="weights" >
   <v>       0.00029630 </v>
   <v>       0.00355556 </v>
   <v>       0.00355556 </v>
   <v>       0.00355556 </v>
   <v>       0.00355556 </v>
   <v>       0.00355556 </v>
   <v>       0.00355556 </v>
   <v>       0.00355556 </v>
   <v>       0.00711111 </v>
   <v>       0.01422222 </v>
   <v>       0.01422222 </v>
   <v>       0.01422222 </v>
   <v>       0.01422222 </v>
   <v>       0.01422222 </v>
   <v>       0.00711111 </v>
   <v>       0.00711111 </v>
   <v>       0.01422222 </v>
   <v>       0.01422222 </v>
   <v>       0.01422222 </v>
   <v>       0.01422222 </v>
   <v>       0.00711111 </v>
   <v>       0.01422222 </v>
   <v>       0.01422222 </v>
   <v>       0.00711111 </v>
   <v>       0.00711111 </v>
   <v>       0.01422222 </v>
   <v>       0.00237037 </v>
   <v>       0.00237037 </v>
   <v>       0.00711111 </v>
   <v>       0.00711111 </v>
   <v>       0.00711111 </v>
   <v>       0.00711111 </v>
   <v>       0.00711111 </v>
   <v>       0.00177778 </v>
   <v>       0.00711111 </v>
   <v>       0.01422222 </v>
   <v>       0.01422222 </v>
   <v>       0.01422222 </v>
   <v>       0.00711111 </v>
   <v>       0.00711111 </v>
   <v>       0.00711111 </v>
   <v>       0.01422222 </v>
   <v>       0.01422222 </v>
   <v>       0.00711111 </v>
   <v>       0.00711111 </v>
   <v>       0.00711111 </v>
   <v>       0.00711111 </v>
   <v>       0.00711111 </v>
   <v>       0.01422222 </v>
   <v>       0.00711111 </v>
   <v>       0.01422222 </v>
   <v>       0.00711111 </v>
   <v>       0.00711111 </v>
   <v>       0.01422222 </v>
   <v>       0.01422222 </v>
   <v>       0.00711111 </v>
   <v>       0.01422222 </v>
   <v>       0.01422222 </v>
   <v>       0.00711111 </v>
   <v>       0.00711111 </v>
   <v>       0.01422222 </v>
   <v>       0.01422222 </v>
   <v>       0.00711111 </v>
   <v>       0.00711111 </v>
   <v>       0.00237037 </v>
   <v>       0.00711111 </v>
   <v>       0.00711111 </v>
   <v>       0.00711111 </v>
   <v>       0.00177778 </v>
   <v>       0.00711111 </v>
   <v>       0.01422222 </v>
   <v>       0.00711111 </v>
   <v>       0.00711111 </v>
   <v>       0.00711111 </v>
   <v>       0.00711111 </v>
   <v>       0.00711111 </v>
   <v>       0.00711111 </v>
   <v>       0.01422222 </v>
   <v>       0.00711111 </v>
   <v>       0.01422222 </v>
   <v>       0.00711111 </v>
   <v>       0.00711111 </v>
   <v>       0.01422222 </v>
   <v>       0.01422222 </v>
   <v>       0.00711111 </v>
   <v>       0.01422222 </v>
   <v>       0.00711111 </v>
   <v>       0.00711111 </v>
   <v>       0.00237037 </v>
   <v>       0.00711111 </v>
   <v>       0.00177778 </v>
   <v>       0.00237037 </v>
   <v>       0.00711111 </v>
   <v>       0.00711111 </v>
   <v>       0.00711111 </v>
   <v>       0.00711111 </v>
   <v>       0.01422222 </v>
   <v>       0.00711111 </v>
   <v>       0.01422222 </v>
   <v>       0.00711111 </v>
   <v>       0.00711111 </v>
   <v>       0.01422222 </v>
   <v>       0.00237037 </v>
   <v>       0.00177778 </v>
   <v>       0.00711111 </v>
   <v>       0.00711111 </v>
   <v>       0.00711111 </v>
   <v>       0.00711111 </v>
   <v>       0.01422222 </v>
   <v>       0.00711111 </v>
   <v>       0.00711111 </v>
   <v>       0.00177778 </v>
   <v>       0.00711111 </v>
   <v>       0.00711111 </v>
   <v>       0.00711111 </v>
   <v>       0.00711111 </v>
   <v>       0.00177778 </v>
   <v>       0.00711111 </v>
   <v>       0.00237037 </v>
   <v>       0.00177778 </v>
  </varray>
 </kpoints>
 <parameters>
  <separator name="general" >
   <i type="string" name="SYSTEM">unknown system</i>
   <i type="logical" name="LCOMPAT"> F  </i>
  </separator>
  <separator name="electronic" >
   <i type="string" name="PREC">accura</i>
   <i name="ENMAX">    700.00000000</i>
   <i name="ENAUG">    322.06900000</i>
   <i name="EDIFF">      0.00000100</i>
   <i type="int" name="IALGO">    38</i>
   <i type="int" name="IWAVPR">    11</i>
   <i type="int" name="NBANDS">     8</i>
   <i type="int" name="NBANDSLOW">    -1</i>
   <i type="int" name="NBANDSHIGH">    -1</i>
   <i name="NELECT">      4.00000000</i>
   <i type="int" name="TURBO">     0</i>
   <i type="int" name="IRESTART">     0</i>
   <i type="int" name="NREBOOT">     0</i>
   <i type="int" name="NMIN">     0</i>
   <i name="EREF">      0.00000000</i>
   <separator name="electronic smearing" >
    <i type="int" name="ISMEAR">     0</i>
    <i name="SIGMA">      0.05000000</i>
    <i name="KSPACING">      0.50000000</i>
    <i type="logical" name="KGAMMA"> T  </i>
    <i type="logical" name="KBLOWUP"> T  </i>
   </separator>
   <separator name="electronic projectors" >
    <i type="logical" name="LREAL"> F  </i>
    <v name="ROPT">      0.00000000</v>
    <i type="int" name="LMAXPAW">  -100</i>
    <i type="int" name="LMAXMIX">     2</i>
    <i type="logical" name="NLSPLINE"> F  </i>
   </separator>
   <separator name="electronic startup" >
    <i type="int" name="ISTART">     0</i>
    <i type="int" name="ICHARG">     2</i>
    <i type="int" name="INIWAV">     1</i>
   </separator>
   <separator name="electronic spin" >
    <i type="int" name="ISPIN">     1</i>
    <i type="logical" name="LNONCOLLINEAR"> F  </i>
    <v name="MAGMOM">      1.00000000</v>
    <i name="NUPDOWN">     -1.00000000</i>
    <i type="logical" name="LSORBIT"> F  </i>
    <v name="SAXIS">      0.00000000      0.00000000      1.00000000</v>
    <i type="logical" name="LSPIRAL"> F  </i>
    <v name="QSPIRAL">      0.00000000      0.00000000      0.00000000</v>
    <i type="logical" name="LZEROZ"> F  </i>
   </separator>
   <separator name="electronic exchange-correlation" >
    <i type="logical" name="LASPH"> T  </i>
    <i type="logical" name="LMETAGGA"> F  </i>
   </separator>
   <separator name="electronic convergence" >
    <i type="int" name="NELM">    90</i>
    <i type="int" name="NELMDL">    -5</i>
    <i type="int" name="NELMIN">     6</i>
    <i name="ENINI">    700.00000000</i>
    <separator name="electronic convergence detail" >
     <i type="logical" name="LDIAG"> T  </i>
     <i type="logical" name="LSUBROT"> F  </i>
     <i name="WEIMIN">      0.00100000</i>
     <i name="EBREAK">      0.00000003</i>
     <i name="DEPER">      0.30000000</i>
     <i type="int" name="NRMM">     4</i>
     <i name="TIME">      0.40000000</i>
    </separator>
   </separator>
   <separator name="electronic mixer" >
    <i name="AMIX">      0.40000000</i>
    <i name="BMIX">      1.00000000</i>
    <i name="AMIN">      0.10000000</i>
    <i name="AMIX_MAG">      1.60000000</i>
    <i name="BMIX_MAG">      1.00000000</i>
    <separator name="electronic mixer details" >
     <i type="int" name="IMIX">     4</i>
     <i type="logical" name="MIXFIRST"> F  </i>
     <i type="int" name="MAXMIX">   -45</i>
     <i name="WC">    100.00000000</i>
     <i type="int" name="INIMIX">     1</i>
     <i type="int" name="MIXPRE">     1</i>
     <i type="int" name="MREMOVE">     5</i>
    </separator>
   </separator>
   <separator name="electronic dipolcorrection" >
    <i type="logical" name="LDIPOL"> F  </i>
    <i type="logical" name="LMONO"> F  </i>
    <i type="int" name="IDIPOL">     0</i>
    <i name="EPSILON">      1.00000000</i>
    <v name="DIPOL">   -100.00000000   -100.00000000   -100.00000000</v>
    <i name="EFIELD">      0.00000000</i>
   </separator>
  </separator>
  <separator name="grids" >
   <i type="int" name="NGX">    24</i>
   <i type="int" name="NGY">    24</i>
   <i type="int" name="NGZ">    24</i>
   <i type="int" name="NGXF">    48</i>
   <i type="int" name="NGYF">    48</i>
   <i type="int" name="NGZF">    48</i>
   <i type="logical" name="ADDGRID"> T  </i>
  </separator>
  <separator name="ionic" >
   <i type="int" name="NSW">   100</i>
   <i type="int" name="IBRION">     2</i>
   <i type="int" name="MDALGO">     0</i>
   <i type="int" name="ISIF">     3</i>
   <i name="PSTRESS">      0.00000000</i>
   <i name="EDIFFG">     -0.00200000</i>
   <i type="int" name="NFREE">     1</i>
   <i name="POTIM">      0.50000000</i>
   <i name="SMASS">     -3.00000000</i>
   <i name="SCALEE">      1.00000000</i>
  </separator>
  <separator name="ionic md" >
   <i name="TEBEG">      0.00010000</i>
   <i name="TEEND">      0.00010000</i>
   <i type="int" name="NBLOCK">     1</i>
   <i type="int" name="KBLOCK">   100</i>
   <i type="int" name="NPACO">   256</i>
   <i name="APACO">     16.00000000</i>
  </separator>
  <separator name="symmetry" >
   <i type="int" name="ISYM">     2</i>
   <i name="SYMPREC">      0.00001000</i>
  </separator>
  <separator name="dos" >
   <i type="int" name="LORBIT">     0</i>
   <v name="RWIGS">     -1.00000000</v>
   <i type="int" name="NEDOS">   301</i>
   <i name="EMIN">     10.00000000</i>
   <i name="EMAX">    -10.00000000</i>
   <i name="EFERMI">      0.00000000</i>
  </separator>
  <separator name="writing" >
   <i type="int" name="NWRITE">     2</i>
   <i type="logical" name="LWAVE"> F  </i>
   <i type="logical" name="LDOWNSAMPLE"> F  </i>
   <i type="logical" name="LCHARG"> F  </i>
   <i type="logical" name="LPARD"> F  </i>
   <i type="logical" name="LVTOT"> F  </i>
   <i type="logical" name="LVHAR"> F  </i>
   <i type="logical" name="LELF"> F  </i>
   <i type="logical" name="LOPTICS"> F  </i>
   <v name="STM">      0.00000000      0.00000000      0.00000000      0.00000000      0.00000000      0.00000000      0.00000000</v>
  </separator>
  <separator name="performance" >
   <i type="int" name="NPAR">     4</i>
   <i type="int" name="NSIM">     4</i>
   <i type="int" name="NBLK">    -1</i>
   <i type="logical" name="LPLANE"> T  </i>
   <i type="logical" name="LSCALAPACK"> T  </i>
   <i type="logical" name="LSCAAWARE"> F  </i>
   <i type="logical" name="LSCALU"> F  </i>
   <i type="logical" name="LASYNC"> F  </i>
   <i type="logical" name="LORBITALREAL"> F  </i>
  </separator>
  <separator name="miscellaneous" >
   <i type="int" name="IDIOT">     3</i>
   <i type="int" name="PHON_NSTRUCT">    -1</i>
   <i type="logical" name="LMUSIC"> F  </i>
   <v name="POMASS">     28.08500000</v>
   <v name="DARWINR">      0.00000000</v>
   <v name="DARWINV">      1.00000000</v>
   <i type="logical" name="LCORR"> T  </i>
  </separator>
  <i type="logical" name="GGA_COMPAT"> T  </i>
  <i type="logical" name="LBERRY"> F  </i>
  <i type="int" name="ICORELEVEL">     0</i>
  <i type="logical" name="LDAU"> F  </i>
  <i type="int" name="I_CONSTRAINED_M">     0</i>
  <separator name="electronic exchange-correlation" >
   <i type="string" name="GGA">--</i>
   <i type="int" name="VOSKOWN">     0</i>
   <i type="logical" name="LHFCALC"> F  </i>
   <i type="string" name="PRECFOCK"></i>
   <i type="logical" name="LSYMGRAD"> F  </i>
   <i type="logical" name="LHFONE"> F  </i>
   <i type="logical" name="LRHFCALC"> F  </i>
   <i type="logical" name="LTHOMAS"> F  </i>
   <i type="logical" name="LMODELHF"> F  </i>
   <i type="logical" name="LFOCKACE"> F  </i>
   <i name="ENCUT4O">     -1.00000000</i>
   <i type="int" name="EXXOEP">     0</i>
   <i type="int" name="FOURORBIT">     0</i>
   <i name="AEXX">      0.00000000</i>
   <i name="HFALPHA">      0.00000000</i>
   <i name="MCALPHA">      0.00000000</i>
   <i name="ALDAX">      1.00000000</i>
   <i name="AGGAX">      1.00000000</i>
   <i name="ALDAC">      1.00000000</i>
   <i name="AGGAC">      1.00000000</i>
   <i type="int" name="NKREDX">     1</i>
   <i type="int" name="NKREDY">     1</i>
   <i type="int" name="NKREDZ">     1</i>
   <i type="logical" name="SHIFTRED"> F  </i>
   <i type="logical" name="ODDONLY"> F  </i>
   <i type="logical" name="EVENONLY"> F  </i>
   <i type="int" name="LMAXFOCK">     0</i>
   <i type="int" name="NMAXFOCKAE">     0</i>
   <i type="logical" name="LFOCKAEDFT"> F  </i>
   <i name="HFSCREEN">      0.00000000</i>
   <i name="HFSCREENC">      0.00000000</i>
   <i type="int" name="NBANDSGWLOW">     0</i>
  </separator>
  <separator name="vdW DFT" >
   <i type="logical" name="LUSE_VDW"> F  </i>
   <i name="Zab_VDW">     -0.84910000</i>
   <i name="PARAM1">      0.12340000</i>
   <i name="PARAM2">      1.00000000</i>
   <i name="PARAM3">      0.00000000</i>
  </separator>
  <separator name="model GW" >
   <i type="int" name="MODEL_GW">     0</i>
   <i name="MODEL_EPS0">      8.31779867</i>
   <i name="MODEL_ALPHA">      1.00000000</i>
  </separator>
  <separator name="linear response parameters" >
   <i type="logical" name="LEPSILON"> F  </i>
   <i type="logical" name="LRPA"> F  </i>
   <i type="logical" name="LNABLA"> F  </i>
   <i type="logical" name="LVEL"> F  </i>
   <i type="int" name="KINTER">     0</i>
   <i name="CSHIFT">      0.10000000</i>
   <i name="OMEGAMAX">     -1.00000000</i>
   <i name="DEG_THRESHOLD">      0.00200000</i>
   <i name="RTIME">     -0.10000000</i>
   <i name="WPLASMAI">      0.00000000</i>
   <v name="DFIELD">      0.00000000      0.00000000      0.00000000</v>
   <v name="WPLASMA">      0.00000000      0.00000000      0.00000000      0.00000000      0.00000000      0.00000000      0.00000000      0.00000000      0.00000000</v>
  </separator>
  <separator name="orbital magnetization" >
   <i type="logical" name="NUCIND"> F  </i>
   <v name="MAGPOS">      0.00000000      0.00000000      0.00000000</v>
   <i type="logical" name="LNICSALL"> T  </i>
   <i type="logical" name="ORBITALMAG"> F  </i>
   <i type="logical" name="LMAGBLOCH"> F  </i>
   <i type="logical" name="LCHIMAG"> F  </i>
   <i type="logical" name="LGAUGE"> T  </i>
   <i type="int" name="MAGATOM">     0</i>
   <v name="MAGDIPOL">      0.00000000      0.00000000      0.00000000</v>
   <v name="AVECCONST">      0.00000000      0.00000000      0.00000000</v>
  </separator>
  <separator name="response functions" >
   <i type="logical" name="LFINITE_TEMPERATURE"> F  </i>
   <i type="logical" name="LADDER"> F  </i>
   <i type="logical" name="LRPAFORCE"> F  </i>
   <i type="logical" name="LFXC"> F  </i>
   <i type="logical" name="LHARTREE"> T  </i>
   <i type="int" name="IBSE">     0</i>
   <v type="int" name="KPOINT">    -1     0     0     0</v>
   <i type="logical" name="LTCTC"> F  </i>
   <i type="logical" name="LTCTE"> F  </i>
   <i type="logical" name="LTETE"> F  </i>
   <i type="logical" name="LTRIPLET"> F  </i>
   <i type="logical" name="LFXCEPS"> F  </i>
   <i type="logical" name="LFXHEG"> F  </i>
   <i type="int" name="NATURALO">     2</i>
   <i type="logical" name="LHOLEGF"> F  </i>
   <i type="logical" name="L2ORDER"> F  </i>
   <i type="logical" name="LDMP1"> F  </i>
   <i type="logical" name="LMP2LT"> F  </i>
   <i type="logical" name="LSMP2LT"> F  </i>
   <i type="logical" name="LGWLF"> F  </i>
   <i name="ENCUTGW">     -2.00000000</i>
   <i name="ENCUTGWSOFT">     -2.00000000</i>
   <i name="ENCUTLF">     -1.00000000</i>
   <i type="logical" name="LESF_SPLINES"> F  </i>
   <i type="int" name="LMAXMP2">    -1</i>
   <i name="SCISSOR">      0.00000000</i>
   <i type="int" name="NOMEGA">     0</i>
   <i type="int" name="NOMEGAR">     0</i>
   <i type="int" name="NBANDSGW">    -1</i>
   <i type="int" name="NBANDSO">    -1</i>
   <i type="int" name="NBANDSV">    -1</i>
   <i type="int" name="NELM">    90</i>
   <i type="int" name="NELMHF">     1</i>
   <i type="int" name="DIM">     3</i>
   <i type="int" name="IESPILON">     4</i>
   <i type="int" name="ANTIRES">     0</i>
   <i name="OMEGAMAX">    -30.00000000</i>
   <i name="OMEGAMIN">    -30.00000000</i>
   <i name="OMEGATL">   -200.00000000</i>
   <i type="int" name="OMEGAGRID">     0</i>
   <i name="CSHIFT">     -0.10000000</i>
   <i type="logical" name="LSELFENERGY"> F  </i>
   <i type="logical" name="LSPECTRAL"> F  </i>
   <i type="logical" name="LSPECTRALGW"> F  </i>
   <i type="logical" name="LSINGLES"> F  </i>
   <i type="logical" name="LFERMIGW"> F  </i>
   <i type="logical" name="ODDONLYGW"> F  </i>
   <i type="logical" name="EVENONLYGW"> F  </i>
   <i type="int" name="NKREDLFX">     1</i>
   <i type="int" name="NKREDLFY">     1</i>
   <i type="int" name="NKREDLFZ">     1</i>
   <i type="int" name="MAXMEM">  2800</i>
   <i type="int" name="TELESCOPE">     0</i>
   <i type="int" name="NTAUPAR">    -1</i>
   <i type="int" name="NOMEGAPAR">    -1</i>
   <i name="DAMP_NEWTON">      0.80000001</i>
   <i name="LAMBDA">      1.00000000</i>
  </separator>
  <separator name="External order field" >
   <i name="OFIELD_KAPPA">      0.00000000</i>
   <v name="OFIELD_K">      0.00000000      0.00000000      0.00000000</v>
   <i name="OFIELD_Q6_NEAR">      0.00000000</i>
   <i name="OFIELD_Q6_FAR">      0.00000000</i>
   <i name="OFIELD_A">      0.00000000</i>
  </separator>
 </parameters>
 <atominfo>
  <atoms>       1 </atoms>
  <types>       1 </types>
  <array name="atoms" >
   <dimension dim="1">ion</dimension>
   <field type="string">element</field>
   <field type="int">atomtype</field>
   <set>
    <rc><c>Si</c><c>   1</c></rc>
   </set>
  </array>
  <array name="atomtypes" >
   <dimension dim="1">type</dimension>
   <field type="int">atomspertype</field>
   <field type="string">element</field>
   <field>mass</field>
   <field>valence</field>
   <field type="string">pseudopotential</field>
   <set>
    <rc><c>   1</c><c>Si</c><c>     28.08500000</c><c>      4.00000000</c><c>  PAW_PBE Si 05Jan2001                  </c></rc>
   </set>
  </array>
 </atominfo>
 <structure name="initialpos" >
  <crystal>
   <varray name="basis" >
    <v>       1.51332563       1.51332563       1.51332563 </v>
    <v>       1.51332563      -1.51332563      -1.51332563 </v>
    <v>      -1.51332563       1.51332563      -1.51332563 </v>
   </varray>
   <i name="volume">     13.86299778 </i>
   <varray name="rec_basis" >
    <v>       0.33039816       0.33039816       0.00000000 </v>
    <v>       0.33039816       0.00000000      -0.33039816 </v>
    <v>       0.00000000       0.33039816      -0.33039816 </v>
   </varray>
  </crystal>
  <varray name="positions" >
   <v>       0.00000000       0.00000000       0.00000000 </v>
  </varray>
 </structure>
 <calculation>
  <scstep>
   <time name="dav">    0.98    0.98</time>
   <time name="total">    1.21    1.21</time>
   <energy>
    <i name="alphaZ">      2.42827211 </i>
    <i name="ewald">   -138.51397499 </i>
    <i name="hartreedc">     -0.48179554 </i>
    <i name="XCdc">     -8.69332258 </i>
    <i name="pawpsdc">     88.12379961 </i>
    <i name="pawaedc">    -70.53051779 </i>
    <i name="eentropy">     -0.00055827 </i>
    <i name="bandstr">     22.98457878 </i>
    <i name="atom">    103.06662367 </i>
    <i name="e_fr_energy">     -1.61689499 </i>
    <i name="e_wo_entrp">     -1.61633673 </i>
    <i name="e_0_energy">     -1.61661586 </i>
   </energy>
  </scstep>
  <scstep>
   <time name="dav">    1.33    1.34</time>
   <time name="total">    1.33    1.35</time>
   <energy>
    <i name="e_fr_energy">     -4.89448717 </i>
    <i name="e_wo_entrp">     -4.89387112 </i>
    <i name="e_0_energy">     -4.89417915 </i>
   </energy>
  </scstep>
  <scstep>
   <time name="dav">    1.06    1.08</time>
   <time name="total">    1.06    1.08</time>
   <energy>
    <i name="e_fr_energy">     -4.91376990 </i>
    <i name="e_wo_entrp">     -4.91318710 </i>
    <i name="e_0_energy">     -4.91347850 </i>
   </energy>
  </scstep>
  <scstep>
   <time name="dav">    1.46    1.47</time>
   <time name="total">    1.46    1.47</time>
   <energy>
    <i name="e_fr_energy">     -4.91378766 </i>
    <i name="e_wo_entrp">     -4.91320496 </i>
    <i name="e_0_energy">     -4.91349631 </i>
   </energy>
  </scstep>
  <scstep>
   <time name="dav">    1.09    1.10</time>
   <time name="total">    1.18    1.20</time>
   <energy>
    <i name="e_fr_energy">     -4.91378767 </i>
    <i name="e_wo_entrp">     -4.91320497 </i>
    <i name="e_0_energy">     -4.91349632 </i>
   </energy>
  </scstep>
  <scstep>
   <time name="dav">    1.05    1.05</time>
   <time name="total">    1.35    1.36</time>
   <energy>
    <i name="e_fr_energy">     -4.90233980 </i>
    <i name="e_wo_entrp">     -4.90173633 </i>
    <i name="e_0_energy">     -4.90203806 </i>
   </energy>
  </scstep>
  <scstep>
   <time name="dav">    1.04    1.04</time>
   <time name="total">    1.33    1.35</time>
   <energy>
    <i name="e_fr_energy">     -4.89577289 </i>
    <i name="e_wo_entrp">     -4.89514409 </i>
    <i name="e_0_energy">     -4.89545849 </i>
   </energy>
  </scstep>
  <scstep>
   <time name="dav">    1.30    1.30</time>
   <time name="total">    1.60    1.61</time>
   <energy>
    <i name="e_fr_energy">     -4.89575167 </i>
    <i name="e_wo_entrp">     -4.89512224 </i>
    <i name="e_0_energy">     -4.89543695 </i>
   </energy>
  </scstep>
  <scstep>
   <time name="dav">    1.07    1.08</time>
   <time name="total">    1.29    1.30</time>
   <energy>
    <i name="alphaZ">      2.42827211 </i>
    <i name="ewald">   -138.51397499 </i>
    <i name="hartreedc">     -0.35545291 </i>
    <i name="XCdc">     -8.62527693 </i>
    <i name="pawpsdc">    332.70404585 </i>
    <i name="pawaedc">   -315.13781112 </i>
    <i name="eentropy">     -0.00062961 </i>
    <i name="bandstr">     19.53845173 </i>
    <i name="atom">    103.06662367 </i>
    <i name="e_fr_energy">     -4.89575222 </i>
    <i name="e_wo_entrp">     -4.89512260 </i>
    <i name="e_0_energy">     -4.89543741 </i>
   </energy>
  </scstep>
  <structure>
   <crystal>
    <varray name="basis" >
     <v>       1.51332563       1.51332563       1.51332563 </v>
     <v>       1.51332563      -1.51332563      -1.51332563 </v>
     <v>      -1.51332563       1.51332563      -1.51332563 </v>
    </varray>
    <i name="volume">     13.86299778 </i>
    <varray name="rec_basis" >
     <v>       0.33039816       0.33039816       0.00000000 </v>
     <v>       0.33039816       0.00000000      -0.33039816 </v>
     <v>       0.00000000       0.33039816      -0.33039816 </v>
    </varray>
   </crystal>
   <varray name="positions" >
    <v>       0.00000000       0.00000000       0.00000000 </v>
   </varray>
  </structure>
  <varray name="forces" >
   <v>       0.00000000       0.00000000       0.00000000 </v>
  </varray>
  <varray name="stress" >
   <v>      56.40561050       0.00000000       0.00000000 </v>
   <v>       0.00000000      56.40561050      -0.00000000 </v>
   <v>       0.00000000      -0.00000000      56.40561050 </v>
  </varray>
  <energy>
   <i name="e_fr_energy">     -4.89575222 </i>
   <i name="e_wo_entrp">     -4.89512260 </i>
   <i name="e_0_energy">     -4.89543741 </i>
  </energy>
  <time name="totalsc">   13.63   13.91</time>
 </calculation>
 <calculation>
  <scstep>
   <time name="dav">    0.96    0.96</time>
   <time name="total">    1.26    1.26</time>
   <energy>
    <i name="alphaZ">      2.26452142 </i>
    <i name="ewald">   -135.32767481 </i>
    <i name="hartreedc">     -0.34725079 </i>
    <i name="XCdc">     -8.80817830 </i>
    <i name="pawpsdc">    332.76421735 </i>
    <i name="pawaedc">   -315.19764094 </i>
    <i name="eentropy">     -0.00046837 </i>
    <i name="bandstr">     16.66953165 </i>
    <i name="atom">    103.06662367 </i>
    <i name="e_fr_energy">     -4.91631913 </i>
    <i name="e_wo_entrp">     -4.91585076 </i>
    <i name="e_0_energy">     -4.91608494 </i>
   </energy>
  </scstep>
  <scstep>
   <time name="dav">    1.04    1.04</time>
   <time name="total">    1.34    1.35</time>
   <energy>
    <i name="e_fr_energy">     -4.91093239 </i>
    <i name="e_wo_entrp">     -4.91046707 </i>
    <i name="e_0_energy">     -4.91069973 </i>
   </energy>
  </scstep>
  <scstep>
   <time name="dav">    1.00    1.00</time>
   <time name="total">    1.29    1.30</time>
   <energy>
    <i name="e_fr_energy">     -4.90772929 </i>
    <i name="e_wo_entrp">     -4.90726690 </i>
    <i name="e_0_energy">     -4.90749810 </i>
   </energy>
  </scstep>
  <scstep>
   <time name="dav">    1.17    1.18</time>
   <time name="total">    1.47    1.48</time>
   <energy>
    <i name="e_fr_energy">     -4.90772620 </i>
    <i name="e_wo_entrp">     -4.90726376 </i>
    <i name="e_0_energy">     -4.90749498 </i>
   </energy>
  </scstep>
  <scstep>
   <time name="dav">    1.13    1.13</time>
   <time name="total">    1.42    1.44</time>
   <energy>
    <i name="e_fr_energy">     -4.90771399 </i>
    <i name="e_wo_entrp">     -4.90725137 </i>
    <i name="e_0_energy">     -4.90748268 </i>
   </energy>
  </scstep>
  <scstep>
   <time name="dav">    0.63    0.64</time>
   <time name="total">    0.84    0.86</time>
   <energy>
    <i name="alphaZ">      2.26452142 </i>
    <i name="ewald">   -135.32767481 </i>
    <i name="hartreedc">     -0.45721734 </i>
    <i name="XCdc">     -8.82992948 </i>
    <i name="pawpsdc">    284.85637689 </i>
    <i name="pawaedc">   -267.27462158 </i>
    <i name="eentropy">     -0.00046260 </i>
    <i name="bandstr">     16.79466945 </i>
    <i name="atom">    103.06662367 </i>
    <i name="e_fr_energy">     -4.90771439 </i>
    <i name="e_wo_entrp">     -4.90725179 </i>
    <i name="e_0_energy">     -4.90748309 </i>
   </energy>
  </scstep>
  <structure>
   <crystal>
    <varray name="basis" >
     <v>       1.54895699       1.54895699       1.54895699 </v>
     <v>       1.54895699      -1.54895699      -1.54895699 </v>
     <v>      -1.54895699       1.54895699      -1.54895699 </v>
    </varray>
    <i name="volume">     14.86545039 </i>
    <varray name="rec_basis" >
     <v>       0.32279786       0.32279786       0.00000000 </v>
     <v>       0.32279786       0.00000000      -0.32279786 </v>
     <v>       0.00000000       0.32279786      -0.32279786 </v>
    </varray>
   </crystal>
   <varray name="positions" >
    <v>       0.00000000       0.00000000      -0.00000000 </v>
   </varray>
  </structure>
  <varray name="forces" >
   <v>       0.00000000       0.00000000      -0.00000000 </v>
  </varray>
  <varray name="stress" >
   <v>     -14.32910420       0.00000000      -0.00000000 </v>
   <v>      -0.00000000     -14.32910420       0.00000000 </v>
   <v>      -0.00000000       0.00000000     -14.32910420 </v>
  </varray>
  <energy>
   <i name="e_fr_energy">     -4.90771439 </i>
   <i name="e_wo_entrp">     -4.90725179 </i>
   <i name="e_0_energy">     -4.90748309 </i>
  </energy>
  <time name="totalsc">    9.44    9.72</time>
 </calculation>
 <calculation>
  <scstep>
   <time name="dav">    1.15    1.15</time>
   <time name="total">    1.44    1.45</time>
   <energy>
    <i name="alphaZ">      2.30053516 </i>
    <i name="ewald">   -136.04129806 </i>
    <i name="hartreedc">     -0.45961493 </i>
    <i name="XCdc">     -8.78966158 </i>
    <i name="pawpsdc">    284.54545793 </i>
    <i name="pawaedc">   -266.96371752 </i>
    <i name="eentropy">     -0.00049181 </i>
    <i name="bandstr">     17.43295490 </i>
    <i name="atom">    103.06662367 </i>
    <i name="e_fr_energy">     -4.90921224 </i>
    <i name="e_wo_entrp">     -4.90872043 </i>
    <i name="e_0_energy">     -4.90896634 </i>
   </energy>
  </scstep>
  <scstep>
   <time name="dav">    1.06    1.06</time>
   <time name="total">    1.35    1.37</time>
   <energy>
    <i name="e_fr_energy">     -4.90892843 </i>
    <i name="e_wo_entrp">     -4.90843817 </i>
    <i name="e_0_energy">     -4.90868330 </i>
   </energy>
  </scstep>
  <scstep>
   <time name="dav">    1.01    1.02</time>
   <time name="total">    1.31    1.32</time>
   <energy>
    <i name="e_fr_energy">     -4.90876152 </i>
    <i name="e_wo_entrp">     -4.90827341 </i>
    <i name="e_0_energy">     -4.90851746 </i>
   </energy>
  </scstep>
  <scstep>
   <time name="dav">    1.13    1.14</time>
   <time name="total">    1.43    1.44</time>
   <energy>
    <i name="e_fr_energy">     -4.90876160 </i>
    <i name="e_wo_entrp">     -4.90827349 </i>
    <i name="e_0_energy">     -4.90851754 </i>
   </energy>
  </scstep>
  <scstep>
   <time name="dav">    0.66    0.66</time>
   <time name="total">    0.95    0.96</time>
   <energy>
    <i name="e_fr_energy">     -4.90876231 </i>
    <i name="e_wo_entrp">     -4.90827423 </i>
    <i name="e_0_energy">     -4.90851827 </i>
   </energy>
  </scstep>
  <scstep>
   <time name="dav">    0.61    0.61</time>
   <time name="total">    0.82    0.83</time>
   <energy>
    <i name="alphaZ">      2.30053516 </i>
    <i name="ewald">   -136.04129806 </i>
    <i name="hartreedc">     -0.43169985 </i>
    <i name="XCdc">     -8.78449452 </i>
    <i name="pawpsdc">    294.37006853 </i>
    <i name="pawaedc">   -276.79160036 </i>
    <i name="eentropy">     -0.00048808 </i>
    <i name="bandstr">     17.40359133 </i>
    <i name="atom">    103.06662367 </i>
    <i name="e_fr_energy">     -4.90876217 </i>
    <i name="e_wo_entrp">     -4.90827410 </i>
    <i name="e_0_energy">     -4.90851813 </i>
   </energy>
  </scstep>
  <structure>
   <crystal>
    <varray name="basis" >
     <v>       1.54083173       1.54083173       1.54083173 </v>
     <v>       1.54083173      -1.54083173      -1.54083173 </v>
     <v>      -1.54083173       1.54083173      -1.54083173 </v>
    </varray>
    <i name="volume">     14.63273912 </i>
    <varray name="rec_basis" >
     <v>       0.32450007       0.32450007       0.00000000 </v>
     <v>       0.32450007       0.00000000      -0.32450007 </v>
     <v>      -0.00000000       0.32450007      -0.32450007 </v>
    </varray>
   </crystal>
   <varray name="positions" >
    <v>       0.00000000       0.00000000      -0.00000000 </v>
   </varray>
  </structure>
  <varray name="forces" >
   <v>       0.00000000      -0.00000000      -0.00000000 </v>
  </varray>
  <varray name="stress" >
   <v>       0.15321762      -0.00000000       0.00000000 </v>
   <v>      -0.00000000       0.15321762       0.00000000 </v>
   <v>       0.00000000       0.00000000       0.15321762 </v>
  </varray>
  <energy>
   <i name="e_fr_energy">     -4.90876217 </i>
   <i name="e_wo_entrp">     -4.90827410 </i>
   <i name="e_0_energy">     -4.90851813 </i>
  </energy>
  <time name="totalsc">    8.98    9.18</time>
  <eigenvalues>
   <array>
    <dimension dim="1">band</dimension>
    <dimension dim="2">kpoint</dimension>
    <dimension dim="3">spin</dimension>
    <field>eigene</field>
    <field>occ</field>
    <set>
     <set comment="spin 1">
      <set comment="kpoint 1">
       <r>   -4.3170    1.0000 </r>
       <r>   21.2828    0.0000 </r>
       <r>   21.2828    0.0000 </r>
       <r>   21.2828    0.0000 </r>
       <r>   22.4355    0.0000 </r>
       <r>   22.4355    0.0000 </r>
       <r>   22.4355    0.0000 </r>
       <r>   26.1270    0.0000 </r>
      </set>
      <set comment="kpoint 2">
       <r>   -4.1809    1.0000 </r>
       <r>   19.6757    0.0000 </r>
       <r>   20.1520    0.0000 </r>
       <r>   21.0912    0.0000 </r>
       <r>   21.9892    0.0000 </r>
       <r>   23.1980    0.0000 </r>
       <r>   23.7939    0.0000 </r>
       <r>   25.2200    0.0000 </r>
      </set>
      <set comment="kpoint 3">
       <r>   -3.7733    1.0000 </r>
       <r>   17.0647    0.0000 </r>
       <r>   18.8151    0.0000 </r>
       <r>   20.5727    0.0000 </r>
       <r>   21.0127    0.0000 </r>
       <r>   22.9669    0.0000 </r>
       <r>   25.1399    0.0000 </r>
       <r>   25.8097    0.0000 </r>
      </set>
      <set comment="kpoint 4">
       <r>   -3.0958    1.0000 </r>
       <r>   14.2455    0.0000 </r>
       <r>   17.6798    0.0000 </r>
       <r>   19.8877    0.0000 </r>
       <r>   19.9579    0.0000 </r>
       <r>   22.0193    0.0000 </r>
       <r>   26.0056    0.0000 </r>
       <r>   26.1899    0.0000 </r>
      </set>
      <set comment="kpoint 5">
       <r>   -2.1510    1.0000 </r>
       <r>   11.4729    0.0000 </r>
       <r>   16.7682    0.0000 </r>
       <r>   19.0256    0.0000 </r>
       <r>   19.2063    0.0000 </r>
       <r>   21.1589    0.0000 </r>
       <r>   26.8151    0.0000 </r>
       <r>   27.0794    0.0000 </r>
      </set>
      <set comment="kpoint 6">
       <r>   -0.9429    1.0000 </r>
       <r>    8.8517    1.0000 </r>
       <r>   16.0841    0.0000 </r>
       <r>   18.2934    0.0000 </r>
       <r>   18.6371    0.0000 </r>
       <r>   20.4828    0.0000 </r>
       <r>   27.7170    0.0000 </r>
       <r>   28.2892    0.0000 </r>
      </set>
      <set comment="kpoint 7">
       <r>    0.5227    1.0000 </r>
       <r>    6.4294    1.0000 </r>
       <r>   15.6282    0.0000 </r>
       <r>   17.7937    0.0000 </r>
       <r>   18.2363    0.0000 </r>
       <r>   20.0191    0.0000 </r>
       <r>   28.8211    0.0000 </r>
       <r>   29.5571    0.0000 </r>
      </set>
      <set comment="kpoint 8">
       <r>    2.2307    1.0000 </r>
       <r>    4.2396    1.0000 </r>
       <r>   15.4003    0.0000 </r>
       <r>   17.5410    0.0000 </r>
       <r>   18.0305    0.0000 </r>
       <r>   19.7833    0.0000 </r>
       <r>   29.8974    0.0000 </r>
       <r>   30.5774    0.0000 </r>
      </set>
      <set comment="kpoint 9">
       <r>   -3.9091    1.0000 </r>
       <r>   18.1811    0.0000 </r>
       <r>   18.7271    0.0000 </r>
       <r>   20.0761    0.0000 </r>
       <r>   22.1452    0.0000 </r>
       <r>   23.5005    0.0000 </r>
       <r>   24.4568    0.0000 </r>
       <r>   24.9956    0.0000 </r>
      </set>
      <set comment="kpoint 10">
       <r>   -3.3665    1.0000 </r>
       <r>   15.7107    0.0000 </r>
       <r>   17.2726    0.0000 </r>
       <r>   19.1075    0.0000 </r>
       <r>   21.6668    0.0000 </r>
       <r>   23.0570    0.0000 </r>
       <r>   24.7676    0.0000 </r>
       <r>   26.3888    0.0000 </r>
      </set>
      <set comment="kpoint 11">
       <r>   -2.5554    1.0000 </r>
       <r>   12.9283    0.0000 </r>
       <r>   16.2084    0.0000 </r>
       <r>   18.1932    0.0000 </r>
       <r>   20.9354    0.0000 </r>
       <r>   22.3950    0.0000 </r>
       <r>   25.3239    0.0000 </r>
       <r>   27.6471    0.0000 </r>
      </set>
      <set comment="kpoint 12">
       <r>   -1.4789    1.0000 </r>
       <r>   10.2313    0.0000 </r>
       <r>   15.3835    0.0000 </r>
       <r>   17.4244    0.0000 </r>
       <r>   20.2328    0.0000 </r>
       <r>   21.8066    0.0000 </r>
       <r>   26.1194    0.0000 </r>
       <r>   28.7947    0.0000 </r>
      </set>
      <set comment="kpoint 13">
       <r>   -0.1417    1.0000 </r>
       <r>    7.7087    1.0000 </r>
       <r>   14.7925    0.0000 </r>
       <r>   16.8540    0.0000 </r>
       <r>   19.6880    0.0000 </r>
       <r>   21.3392    0.0000 </r>
       <r>   27.1808    0.0000 </r>
       <r>   29.9055    0.0000 </r>
      </set>
      <set comment="kpoint 14">
       <r>    1.4483    1.0000 </r>
       <r>    5.3992    1.0000 </r>
       <r>   14.4370    0.0000 </r>
       <r>   16.5053    0.0000 </r>
       <r>   19.3492    0.0000 </r>
       <r>   21.0413    0.0000 </r>
       <r>   28.4432    0.0000 </r>
       <r>   30.5160    0.0000 </r>
      </set>
      <set comment="kpoint 15">
       <r>    3.1021    1.0000 </r>
       <r>    3.5043    1.0000 </r>
       <r>   14.3183    0.0000 </r>
       <r>   16.3882    0.0000 </r>
       <r>   19.2345    0.0000 </r>
       <r>   20.9394    0.0000 </r>
       <r>   29.5924    0.0000 </r>
       <r>   29.9495    0.0000 </r>
      </set>
      <set comment="kpoint 16">
       <r>   -2.6903    1.0000 </r>
       <r>   14.3484    0.0000 </r>
       <r>   14.8146    0.0000 </r>
       <r>   18.0499    0.0000 </r>
       <r>   21.8763    0.0000 </r>
       <r>   22.9758    0.0000 </r>
       <r>   25.4519    0.0000 </r>
       <r>   26.7549    0.0000 </r>
      </set>
      <set comment="kpoint 17">
       <r>   -1.7474    1.0000 </r>
       <r>   11.8200    0.0000 </r>
       <r>   13.6432    0.0000 </r>
       <r>   17.1868    0.0000 </r>
       <r>   21.5260    0.0000 </r>
       <r>   23.0283    0.0000 </r>
       <r>   25.7583    0.0000 </r>
       <r>   28.1835    0.0000 </r>
      </set>
      <set comment="kpoint 18">
       <r>   -0.5416    1.0000 </r>
       <r>    9.2247    1.0000 </r>
       <r>   12.9004    0.0000 </r>
       <r>   16.5133    0.0000 </r>
       <r>   20.9725    0.0000 </r>
       <r>   23.2606    0.0000 </r>
       <r>   26.0181    0.0000 </r>
       <r>   29.7770    0.0000 </r>
      </set>
      <set comment="kpoint 19">
       <r>    0.9213    1.0000 </r>
       <r>    6.8128    1.0000 </r>
       <r>   12.4073    0.0000 </r>
       <r>   16.0540    0.0000 </r>
       <r>   20.5482    0.0000 </r>
       <r>   23.3048    0.0000 </r>
       <r>   26.8078    0.0000 </r>
       <r>   30.3171    0.0000 </r>
      </set>
      <set comment="kpoint 20">
       <r>    2.6265    1.0000 </r>
       <r>    4.6286    1.0000 </r>
       <r>   12.1606    0.0000 </r>
       <r>   15.8218    0.0000 </r>
       <r>   20.3267    0.0000 </r>
       <r>   23.2648    0.0000 </r>
       <r>   27.9923    0.0000 </r>
       <r>   29.4264    0.0000 </r>
      </set>
      <set comment="kpoint 21">
       <r>   -0.6751    1.0000 </r>
       <r>   10.7984    0.0000 </r>
       <r>   11.1507    0.0000 </r>
       <r>   16.4180    0.0000 </r>
       <r>   22.0421    0.0000 </r>
       <r>   22.9299    0.0000 </r>
       <r>   27.3238    0.0000 </r>
       <r>   28.2518    0.0000 </r>
      </set>
      <set comment="kpoint 22">
       <r>    0.6569    1.0000 </r>
       <r>    8.4595    1.0000 </r>
       <r>   10.3641    0.0000 </r>
       <r>   15.8527    0.0000 </r>
       <r>   21.8971    0.0000 </r>
       <r>   23.5749    0.0000 </r>
       <r>   27.4577    0.0000 </r>
       <r>   29.3992    0.0000 </r>
      </set>
      <set comment="kpoint 23">
       <r>    2.2408    1.0000 </r>
       <r>    6.1698    1.0000 </r>
       <r>    9.9807    0.0011 </r>
       <r>   15.5073    0.0000 </r>
       <r>   21.6346    0.0000 </r>
       <r>   24.4817    0.0000 </r>
       <r>   27.2939    0.0000 </r>
       <r>   29.3432    0.0000 </r>
      </set>
      <set comment="kpoint 24">
       <r>    3.8959    1.0000 </r>
       <r>    4.2768    1.0000 </r>
       <r>    9.8537    0.7013 </r>
       <r>   15.3912    0.0000 </r>
       <r>   21.5365    0.0000 </r>
       <r>   24.9405    0.0000 </r>
       <r>   27.2645    0.0000 </r>
       <r>   28.9139    0.0000 </r>
      </set>
      <set comment="kpoint 25">
       <r>    2.1107    1.0000 </r>
       <r>    7.8100    1.0000 </r>
       <r>    8.1199    1.0000 </r>
       <r>   15.4010    0.0000 </r>
       <r>   22.7660    0.0000 </r>
       <r>   23.6653    0.0000 </r>
       <r>   27.8542    0.0000 </r>
       <r>   29.7100    0.0000 </r>
      </set>
      <set comment="kpoint 26">
       <r>    3.8050    1.0000 </r>
       <r>    5.7844    1.0000 </r>
       <r>    7.7237    1.0000 </r>
       <r>   15.1717    0.0000 </r>
       <r>   22.8896    0.0000 </r>
       <r>   24.6710    0.0000 </r>
       <r>   26.5249    0.0000 </r>
       <r>   30.5314    0.0000 </r>
      </set>
      <set comment="kpoint 27">
       <r>    5.3131    1.0000 </r>
       <r>    5.8187    1.0000 </r>
       <r>    5.8187    1.0000 </r>
       <r>   15.0584    0.0000 </r>
       <r>   23.7012    0.0000 </r>
       <r>   25.1395    0.0000 </r>
       <r>   25.1395    0.0000 </r>
       <r>   32.5237    0.0000 </r>
      </set>
      <set comment="kpoint 28">
       <r>   -3.5021    1.0000 </r>
       <r>   16.7137    0.0000 </r>
       <r>   17.7016    0.0000 </r>
       <r>   17.7016    0.0000 </r>
       <r>   23.3617    0.0000 </r>
       <r>   23.3617    0.0000 </r>
       <r>   25.4960    0.0000 </r>
       <r>   25.4960    0.0000 </r>
      </set>
      <set comment="kpoint 29">
       <r>   -2.8254    1.0000 </r>
       <r>   14.4317    0.0000 </r>
       <r>   15.9882    0.0000 </r>
       <r>   16.6423    0.0000 </r>
       <r>   23.0631    0.0000 </r>
       <r>   23.7281    0.0000 </r>
       <r>   25.8254    0.0000 </r>
       <r>   26.3039    0.0000 </r>
      </set>
      <set comment="kpoint 30">
       <r>   -1.8818    1.0000 </r>
       <r>   11.7133    0.0000 </r>
       <r>   14.9874    0.0000 </r>
       <r>   15.7249    0.0000 </r>
       <r>   22.6187    0.0000 </r>
       <r>   23.1678    0.0000 </r>
       <r>   27.0429    0.0000 </r>
       <r>   27.0439    0.0000 </r>
      </set>
      <set comment="kpoint 31">
       <r>   -0.6753    1.0000 </r>
       <r>    9.1038    1.0000 </r>
       <r>   14.2646    0.0000 </r>
       <r>   15.0111    0.0000 </r>
       <r>   22.1647    0.0000 </r>
       <r>   22.6023    0.0000 </r>
       <r>   27.9512    0.0000 </r>
       <r>   28.3600    0.0000 </r>
      </set>
      <set comment="kpoint 32">
       <r>    0.7886    1.0000 </r>
       <r>    6.6867    1.0000 </r>
       <r>   13.7851    0.0000 </r>
       <r>   14.5264    0.0000 </r>
       <r>   21.8144    0.0000 </r>
       <r>   22.1940    0.0000 </r>
       <r>   29.0320    0.0000 </r>
       <r>   29.6739    0.0000 </r>
      </set>
      <set comment="kpoint 33">
       <r>    2.4949    1.0000 </r>
       <r>    4.4998    1.0000 </r>
       <r>   13.5455    0.0000 </r>
       <r>   14.2818    0.0000 </r>
       <r>   21.6275    0.0000 </r>
       <r>   21.9831    0.0000 </r>
       <r>   30.0552    0.0000 </r>
       <r>   30.7032    0.0000 </r>
      </set>
      <set comment="kpoint 34">
       <r>   -4.0450    1.0000 </r>
       <r>   19.2277    0.0000 </r>
       <r>   19.2277    0.0000 </r>
       <r>   20.2486    0.0000 </r>
       <r>   22.7015    0.0000 </r>
       <r>   23.6447    0.0000 </r>
       <r>   23.7819    0.0000 </r>
       <r>   23.7819    0.0000 </r>
      </set>
      <set comment="kpoint 35">
       <r>   -2.0163    1.0000 </r>
       <r>   13.1620    0.0000 </r>
       <r>   13.6755    0.0000 </r>
       <r>   15.3258    0.0000 </r>
       <r>   23.6566    0.0000 </r>
       <r>   24.5324    0.0000 </r>
       <r>   26.1427    0.0000 </r>
       <r>   27.1123    0.0000 </r>
      </set>
      <set comment="kpoint 36">
       <r>   -0.9426    1.0000 </r>
       <r>   10.7176    0.0000 </r>
       <r>   12.5895    0.0000 </r>
       <r>   14.4822    0.0000 </r>
       <r>   23.5834    0.0000 </r>
       <r>   24.6158    0.0000 </r>
       <r>   26.9516    0.0000 </r>
       <r>   28.3481    0.0000 </r>
      </set>
      <set comment="kpoint 37">
       <r>    0.3912    1.0000 </r>
       <r>    8.2167    1.0000 </r>
       <r>   11.9609    0.0000 </r>
       <r>   13.8781    0.0000 </r>
       <r>   23.2669    0.0000 </r>
       <r>   24.5347    0.0000 </r>
       <r>   27.8401    0.0000 </r>
       <r>   29.7799    0.0000 </r>
      </set>
      <set comment="kpoint 38">
       <r>    1.9774    1.0000 </r>
       <r>    5.9161    1.0000 </r>
       <r>   11.5872    0.0000 </r>
       <r>   13.5133    0.0000 </r>
       <r>   23.0149    0.0000 </r>
       <r>   24.4200    0.0000 </r>
       <r>   28.9549    0.0000 </r>
       <r>   30.6452    0.0000 </r>
      </set>
      <set comment="kpoint 39">
       <r>    3.6321    1.0000 </r>
       <r>    4.0216    1.0000 </r>
       <r>   11.4627    0.0000 </r>
       <r>   13.3913    0.0000 </r>
       <r>   22.9242    0.0000 </r>
       <r>   24.3702    0.0000 </r>
       <r>   29.8942    0.0000 </r>
       <r>   30.3979    0.0000 </r>
      </set>
      <set comment="kpoint 40">
       <r>   -3.6376    1.0000 </r>
       <r>   17.0673    0.0000 </r>
       <r>   17.9291    0.0000 </r>
       <r>   19.7093    0.0000 </r>
       <r>   22.0811    0.0000 </r>
       <r>   22.3763    0.0000 </r>
       <r>   24.2431    0.0000 </r>
       <r>   25.4091    0.0000 </r>
      </set>
      <set comment="kpoint 41">
       <r>    0.2585    1.0000 </r>
       <r>    9.8109    0.9590 </r>
       <r>   10.1707    0.0000 </r>
       <r>   13.7481    0.0000 </r>
       <r>   24.2164    0.0000 </r>
       <r>   25.2195    0.0000 </r>
       <r>   28.0854    0.0000 </r>
       <r>   28.9193    0.0000 </r>
      </set>
      <set comment="kpoint 42">
       <r>    1.7157    1.0000 </r>
       <r>    7.5747    1.0000 </r>
       <r>    9.5024    1.0000 </r>
       <r>   13.2621    0.0000 </r>
       <r>   24.3073    0.0000 </r>
       <r>   25.8096    0.0000 </r>
       <r>   28.5879    0.0000 </r>
       <r>   30.0323    0.0000 </r>
      </set>
      <set comment="kpoint 43">
       <r>    3.4148    1.0000 </r>
       <r>    5.4051    1.0000 </r>
       <r>    9.2433    1.0000 </r>
       <r>   13.0184    0.0000 </r>
       <r>   24.2178    0.0000 </r>
       <r>   26.3302    0.0000 </r>
       <r>   28.8988    0.0000 </r>
       <r>   30.2469    0.0000 </r>
      </set>
      <set comment="kpoint 44">
       <r>   -2.9605    1.0000 </r>
       <r>   14.3323    0.0000 </r>
       <r>   16.7855    0.0000 </r>
       <r>   19.0848    0.0000 </r>
       <r>   21.0791    0.0000 </r>
       <r>   21.8339    0.0000 </r>
       <r>   24.2956    0.0000 </r>
       <r>   27.6408    0.0000 </r>
      </set>
      <set comment="kpoint 45">
       <r>   -3.0957    1.0000 </r>
       <r>   15.6721    0.0000 </r>
       <r>   15.9887    0.0000 </r>
       <r>   19.1158    0.0000 </r>
       <r>   21.3309    0.0000 </r>
       <r>   21.8309    0.0000 </r>
       <r>   25.1295    0.0000 </r>
       <r>   26.0408    0.0000 </r>
      </set>
      <set comment="kpoint 46">
       <r>    3.2901    1.0000 </r>
       <r>    7.0490    1.0000 </r>
       <r>    7.3658    1.0000 </r>
       <r>   12.8969    0.0000 </r>
       <r>   25.1666    0.0000 </r>
       <r>   26.3336    0.0000 </r>
       <r>   28.8417    0.0000 </r>
       <r>   30.6025    0.0000 </r>
      </set>
      <set comment="kpoint 47">
       <r>    4.9315    1.0000 </r>
       <r>    5.3106    1.0000 </r>
       <r>    7.0977    1.0000 </r>
       <r>   12.7751    0.0000 </r>
       <r>   25.3817    0.0000 </r>
       <r>   27.0325    0.0000 </r>
       <r>   28.0139    0.0000 </r>
       <r>   31.3869    0.0000 </r>
      </set>
      <set comment="kpoint 48">
       <r>   -2.0163    1.0000 </r>
       <r>   11.5849    0.0000 </r>
       <r>   15.8551    0.0000 </r>
       <r>   18.3556    0.0000 </r>
       <r>   20.1777    0.0000 </r>
       <r>   21.5371    0.0000 </r>
       <r>   24.5406    0.0000 </r>
       <r>   29.3742    0.0000 </r>
      </set>
      <set comment="kpoint 49">
       <r>   -2.2856    1.0000 </r>
       <r>   13.1238    0.0000 </r>
       <r>   14.7904    0.0000 </r>
       <r>   18.5944    0.0000 </r>
       <r>   20.7832    0.0000 </r>
       <r>   21.4163    0.0000 </r>
       <r>   25.1408    0.0000 </r>
       <r>   27.8064    0.0000 </r>
      </set>
      <set comment="kpoint 50">
       <r>   -0.8090    1.0000 </r>
       <r>    8.9735    1.0000 </r>
       <r>   15.1522    0.0000 </r>
       <r>   17.7268    0.0000 </r>
       <r>   19.4691    0.0000 </r>
       <r>   21.2155    0.0000 </r>
       <r>   25.2465    0.0000 </r>
       <r>   30.2799    0.0000 </r>
      </set>
      <set comment="kpoint 51">
       <r>   -1.2105    1.0000 </r>
       <r>   10.4648    0.0000 </r>
       <r>   13.9441    0.0000 </r>
       <r>   17.9731    0.0000 </r>
       <r>   20.0923    0.0000 </r>
       <r>   21.7192    0.0000 </r>
       <r>   24.9047    0.0000 </r>
       <r>   29.6672    0.0000 </r>
      </set>
      <set comment="kpoint 52">
       <r>   -1.3445    1.0000 </r>
       <r>   11.9991    0.0000 </r>
       <r>   12.3281    0.0000 </r>
       <r>   18.3578    0.0000 </r>
       <r>   20.6874    0.0000 </r>
       <r>   20.8385    0.0000 </r>
       <r>   26.7843    0.0000 </r>
       <r>   27.6770    0.0000 </r>
      </set>
      <set comment="kpoint 53">
       <r>    0.6557    1.0000 </r>
       <r>    6.5560    1.0000 </r>
       <r>   14.6818    0.0000 </r>
       <r>   17.2837    0.0000 </r>
       <r>   18.9860    0.0000 </r>
       <r>   20.9300    0.0000 </r>
       <r>   26.3381    0.0000 </r>
       <r>   30.3248    0.0000 </r>
      </set>
      <set comment="kpoint 54">
       <r>    0.1249    1.0000 </r>
       <r>    7.9570    1.0000 </r>
       <r>   13.3381    0.0000 </r>
       <r>   17.4587    0.0000 </r>
       <r>   19.5258    0.0000 </r>
       <r>   22.1058    0.0000 </r>
       <r>   25.0786    0.0000 </r>
       <r>   29.9102    0.0000 </r>
      </set>
      <set comment="kpoint 55">
       <r>   -0.1411    1.0000 </r>
       <r>    9.5808    1.0000 </r>
       <r>   11.4358    0.0000 </r>
       <r>   17.9444    0.0000 </r>
       <r>   20.1492    0.0000 </r>
       <r>   21.4032    0.0000 </r>
       <r>   26.6717    0.0000 </r>
       <r>   28.8533    0.0000 </r>
      </set>
      <set comment="kpoint 56">
       <r>    2.3627    1.0000 </r>
       <r>    4.3686    1.0000 </r>
       <r>   14.4461    0.0000 </r>
       <r>   17.0568    0.0000 </r>
       <r>   18.7419    0.0000 </r>
       <r>   20.7679    0.0000 </r>
       <r>   27.6866    0.0000 </r>
       <r>   29.1841    0.0000 </r>
      </set>
      <set comment="kpoint 57">
       <r>    1.7127    1.0000 </r>
       <r>    5.6548    1.0000 </r>
       <r>   12.9735    0.0000 </r>
       <r>   17.1337    0.0000 </r>
       <r>   19.1720    0.0000 </r>
       <r>   22.2723    0.0000 </r>
       <r>   25.8721    0.0000 </r>
       <r>   28.7325    0.0000 </r>
      </set>
      <set comment="kpoint 58">
       <r>    1.3187    1.0000 </r>
       <r>    7.1891    1.0000 </r>
       <r>   10.9320    0.0000 </r>
       <r>   17.5814    0.0000 </r>
       <r>   19.6967    0.0000 </r>
       <r>   22.3961    0.0000 </r>
       <r>   26.1617    0.0000 </r>
       <r>   28.6032    0.0000 </r>
      </set>
      <set comment="kpoint 59">
       <r>    1.1870    1.0000 </r>
       <r>    8.8138    1.0000 </r>
       <r>    9.1113    1.0000 </r>
       <r>   17.6908    0.0000 </r>
       <r>   20.8238    0.0000 </r>
       <r>   21.0668    0.0000 </r>
       <r>   27.0524    0.0000 </r>
       <r>   28.9695    0.0000 </r>
      </set>
      <set comment="kpoint 60">
       <r>    3.3682    1.0000 </r>
       <r>    3.7597    1.0000 </r>
       <r>   12.8517    0.0000 </r>
       <r>   17.0234    0.0000 </r>
       <r>   19.0524    0.0000 </r>
       <r>   22.2989    0.0000 </r>
       <r>   26.8523    0.0000 </r>
       <r>   27.5575    0.0000 </r>
      </set>
      <set comment="kpoint 61">
       <r>    3.0205    1.0000 </r>
       <r>    5.0138    1.0000 </r>
       <r>   10.6812    0.0000 </r>
       <r>   17.3841    0.0000 </r>
       <r>   19.4623    0.0000 </r>
       <r>   23.3583    0.0000 </r>
       <r>   25.6109    0.0000 </r>
       <r>   27.8992    0.0000 </r>
      </set>
      <set comment="kpoint 62">
       <r>    2.7659    1.0000 </r>
       <r>    6.6722    1.0000 </r>
       <r>    8.5943    1.0000 </r>
       <r>   17.4507    0.0000 </r>
       <r>   20.6064    0.0000 </r>
       <r>   22.1891    0.0000 </r>
       <r>   25.4956    0.0000 </r>
       <r>   29.6954    0.0000 </r>
      </set>
      <set comment="kpoint 63">
       <r>    4.4203    1.0000 </r>
       <r>    4.7860    1.0000 </r>
       <r>    8.4635    1.0000 </r>
       <r>   17.3612    0.0000 </r>
       <r>   20.4998    0.0000 </r>
       <r>   23.2948    0.0000 </r>
       <r>   24.2420    0.0000 </r>
       <r>   29.7820    0.0000 </r>
      </set>
      <set comment="kpoint 64">
       <r>    4.4484    1.0000 </r>
       <r>    6.2899    1.0000 </r>
       <r>    6.5765    1.0000 </r>
       <r>   17.3164    0.0000 </r>
       <r>   21.7059    0.0000 </r>
       <r>   22.2760    0.0000 </r>
       <r>   23.7976    0.0000 </r>
       <r>   31.6610    0.0000 </r>
      </set>
      <set comment="kpoint 65">
       <r>   -1.0765    1.0000 </r>
       <r>   12.0473    0.0000 </r>
       <r>   12.7160    0.0000 </r>
       <r>   12.7160    0.0000 </r>
       <r>   25.3123    0.0000 </r>
       <r>   25.3123    0.0000 </r>
       <r>   27.3476    0.0000 </r>
       <r>   27.3476    0.0000 </r>
      </set>
      <set comment="kpoint 66">
       <r>    0.1254    1.0000 </r>
       <r>    9.8400    0.8206 </r>
       <r>   11.5794    0.0000 </r>
       <r>   11.9796    0.0000 </r>
       <r>   25.5506    0.0000 </r>
       <r>   25.8853    0.0000 </r>
       <r>   28.3824    0.0000 </r>
       <r>   28.5240    0.0000 </r>
      </set>
      <set comment="kpoint 67">
       <r>    1.5838    1.0000 </r>
       <r>    7.4530    1.0000 </r>
       <r>   11.0620    0.0000 </r>
       <r>   11.4828    0.0000 </r>
       <r>   25.5626    0.0000 </r>
       <r>   25.7916    0.0000 </r>
       <r>   29.5910    0.0000 </r>
       <r>   29.8681    0.0000 </r>
      </set>
      <set comment="kpoint 68">
       <r>    3.2843    1.0000 </r>
       <r>    5.2777    1.0000 </r>
       <r>   10.8096    0.0000 </r>
       <r>   11.2330    0.0000 </r>
       <r>   25.5245    0.0000 </r>
       <r>   25.6801    0.0000 </r>
       <r>   30.4582    0.0000 </r>
       <r>   30.9976    0.0000 </r>
      </set>
      <set comment="kpoint 69">
       <r>   -3.2310    1.0000 </r>
       <r>   16.6275    0.0000 </r>
       <r>   16.6275    0.0000 </r>
       <r>   18.2563    0.0000 </r>
       <r>   20.5120    0.0000 </r>
       <r>   23.4973    0.0000 </r>
       <r>   25.0280    0.0000 </r>
       <r>   25.0280    0.0000 </r>
      </set>
      <set comment="kpoint 70">
       <r>    1.4523    1.0000 </r>
       <r>    9.0515    1.0000 </r>
       <r>    9.4228    1.0000 </r>
       <r>   11.1780    0.0000 </r>
       <r>   26.4606    0.0000 </r>
       <r>   27.1740    0.0000 </r>
       <r>   29.0919    0.0000 </r>
       <r>   29.5675    0.0000 </r>
      </set>
      <set comment="kpoint 71">
       <r>    3.0301    1.0000 </r>
       <r>    6.9376    1.0000 </r>
       <r>    8.8737    1.0000 </r>
       <r>   10.7976    0.0000 </r>
       <r>   26.7747    0.0000 </r>
       <r>   27.7118    0.0000 </r>
       <r>   29.9857    0.0000 </r>
       <r>   30.6382    0.0000 </r>
      </set>
      <set comment="kpoint 72">
       <r>    4.6796    1.0000 </r>
       <r>    5.0558    1.0000 </r>
       <r>    8.7414    1.0000 </r>
       <r>   10.6717    0.0000 </r>
       <r>   26.8191    0.0000 </r>
       <r>   27.8795    0.0000 </r>
       <r>   30.3735    0.0000 </r>
       <r>   31.1543    0.0000 </r>
      </set>
      <set comment="kpoint 73">
       <r>   -2.5552    1.0000 </r>
       <r>   14.5327    0.0000 </r>
       <r>   15.4691    0.0000 </r>
       <r>   17.6621    0.0000 </r>
       <r>   19.6323    0.0000 </r>
       <r>   23.0444    0.0000 </r>
       <r>   25.2186    0.0000 </r>
       <r>   26.7712    0.0000 </r>
      </set>
      <set comment="kpoint 74">
       <r>    4.7110    1.0000 </r>
       <r>    6.5485    1.0000 </r>
       <r>    6.8595    1.0000 </r>
       <r>   10.5413    0.0000 </r>
       <r>   27.5638    0.0000 </r>
       <r>   28.8205    0.0000 </r>
       <r>   29.9023    0.0000 </r>
       <r>   31.4717    0.0000 </r>
      </set>
      <set comment="kpoint 75">
       <r>   -1.6128    1.0000 </r>
       <r>   11.9076    0.0000 </r>
       <r>   14.5239    0.0000 </r>
       <r>   17.0250    0.0000 </r>
       <r>   19.8288    0.0000 </r>
       <r>   22.2196    0.0000 </r>
       <r>   24.8934    0.0000 </r>
       <r>   29.2335    0.0000 </r>
      </set>
      <set comment="kpoint 76">
       <r>   -1.7471    1.0000 </r>
       <r>   13.3477    0.0000 </r>
       <r>   13.5774    0.0000 </r>
       <r>   17.2819    0.0000 </r>
       <r>   18.7634    0.0000 </r>
       <r>   22.8696    0.0000 </r>
       <r>   26.4600    0.0000 </r>
       <r>   27.1478    0.0000 </r>
      </set>
      <set comment="kpoint 77">
       <r>   -0.4079    1.0000 </r>
       <r>    9.3348    1.0000 </r>
       <r>   13.8089    0.0000 </r>
       <r>   16.3829    0.0000 </r>
       <r>   20.4994    0.0000 </r>
       <r>   21.5407    0.0000 </r>
       <r>   24.5776    0.0000 </r>
       <r>   29.4692    0.0000 </r>
      </set>
      <set comment="kpoint 78">
       <r>   -0.6748    1.0000 </r>
       <r>   10.9128    0.0000 </r>
       <r>   12.6246    0.0000 </r>
       <r>   16.9223    0.0000 </r>
       <r>   18.9676    0.0000 </r>
       <r>   22.2509    0.0000 </r>
       <r>   26.2097    0.0000 </r>
       <r>   28.4634    0.0000 </r>
      </set>
      <set comment="kpoint 79">
       <r>    1.0538    1.0000 </r>
       <r>    6.9339    1.0000 </r>
       <r>   13.3302    0.0000 </r>
       <r>   15.9193    0.0000 </r>
       <r>   21.0728    0.0000 </r>
       <r>   21.2109    0.0000 </r>
       <r>   24.5875    0.0000 </r>
       <r>   28.2397    0.0000 </r>
      </set>
      <set comment="kpoint 80">
       <r>    0.6569    1.0000 </r>
       <r>    8.4472    1.0000 </r>
       <r>   12.0088    0.0000 </r>
       <r>   16.4292    0.0000 </r>
       <r>   19.7827    0.0000 </r>
       <r>   21.8159    0.0000 </r>
       <r>   25.4758    0.0000 </r>
       <r>   28.0752    0.0000 </r>
      </set>
      <set comment="kpoint 81">
       <r>    0.5244    1.0000 </r>
       <r>   10.0385    0.0000 </r>
       <r>   10.3106    0.0000 </r>
       <r>   17.3439    0.0000 </r>
       <r>   18.6759    0.0000 </r>
       <r>   21.7921    0.0000 </r>
       <r>   26.4710    0.0000 </r>
       <r>   28.4269    0.0000 </r>
      </set>
      <set comment="kpoint 82">
       <r>    2.7576    1.0000 </r>
       <r>    4.7547    1.0000 </r>
       <r>   13.0904    0.0000 </r>
       <r>   15.6812    0.0000 </r>
       <r>   20.8355    0.0000 </r>
       <r>   21.6339    0.0000 </r>
       <r>   25.0732    0.0000 </r>
       <r>   26.9136    0.0000 </r>
      </set>
      <set comment="kpoint 83">
       <r>    2.2402    1.0000 </r>
       <r>    6.1631    1.0000 </r>
       <r>   11.6392    0.0000 </r>
       <r>   16.0948    0.0000 </r>
       <r>   20.4976    0.0000 </r>
       <r>   21.9082    0.0000 </r>
       <r>   24.5234    0.0000 </r>
       <r>   27.2958    0.0000 </r>
      </set>
      <set comment="kpoint 84">
       <r>    1.9788    1.0000 </r>
       <r>    7.8064    1.0000 </r>
       <r>    9.6833    1.0000 </r>
       <r>   17.2629    0.0000 </r>
       <r>   19.3544    0.0000 </r>
       <r>   21.5030    0.0000 </r>
       <r>   24.7860    0.0000 </r>
       <r>   29.0416    0.0000 </r>
      </set>
      <set comment="kpoint 85">
       <r>    3.8979    1.0000 </r>
       <r>    4.2694    1.0000 </r>
       <r>   11.5158    0.0000 </r>
       <r>   15.9798    0.0000 </r>
       <r>   20.6583    0.0000 </r>
       <r>   22.4328    0.0000 </r>
       <r>   23.7749    0.0000 </r>
       <r>   27.0069    0.0000 </r>
      </set>
      <set comment="kpoint 86">
       <r>    3.6741    1.0000 </r>
       <r>    5.6517    1.0000 </r>
       <r>    9.4275    1.0000 </r>
       <r>   17.1010    0.0000 </r>
       <r>   20.1039    0.0000 </r>
       <r>   21.8252    0.0000 </r>
       <r>   23.1045    0.0000 </r>
       <r>   29.0689    0.0000 </r>
      </set>
      <set comment="kpoint 87">
       <r>    3.5490    1.0000 </r>
       <r>    7.2957    1.0000 </r>
       <r>    7.5746    1.0000 </r>
       <r>   17.9233    0.0000 </r>
       <r>   19.5780    0.0000 </r>
       <r>   21.2515    0.0000 </r>
       <r>   23.0519    0.0000 </r>
       <r>   30.9388    0.0000 </r>
      </set>
      <set comment="kpoint 88">
       <r>    5.1954    1.0000 </r>
       <r>    5.5458    1.0000 </r>
       <r>    7.3227    1.0000 </r>
       <r>   18.0525    0.0000 </r>
       <r>   20.1654    0.0000 </r>
       <r>   21.3030    0.0000 </r>
       <r>   21.8783    0.0000 </r>
       <r>   31.5406    0.0000 </r>
      </set>
      <set comment="kpoint 89">
       <r>    2.9004    1.0000 </r>
       <r>    8.4135    1.0000 </r>
       <r>    8.9199    1.0000 </r>
       <r>    8.9199    1.0000 </r>
       <r>   28.3910    0.0000 </r>
       <r>   28.3910    0.0000 </r>
       <r>   30.1790    0.0000 </r>
       <r>   30.1790    0.0000 </r>
      </set>
      <set comment="kpoint 90">
       <r>    4.5871    1.0000 </r>
       <r>    6.5556    1.0000 </r>
       <r>    8.3616    1.0000 </r>
       <r>    8.6675    1.0000 </r>
       <r>   28.9277    0.0000 </r>
       <r>   29.2637    0.0000 </r>
       <r>   30.8779    0.0000 </r>
       <r>   31.1511    0.0000 </r>
      </set>
      <set comment="kpoint 91">
       <r>   -1.8815    1.0000 </r>
       <r>   14.2984    0.0000 </r>
       <r>   14.2984    0.0000 </r>
       <r>   16.2104    0.0000 </r>
       <r>   17.8128    0.0000 </r>
       <r>   24.8158    0.0000 </r>
       <r>   26.3516    0.0000 </r>
       <r>   26.3516    0.0000 </r>
      </set>
      <set comment="kpoint 92">
       <r>    6.0659    1.0000 </r>
       <r>    6.6056    1.0000 </r>
       <r>    6.6056    1.0000 </r>
       <r>    8.4033    1.0000 </r>
       <r>   29.7170    0.0000 </r>
       <r>   30.6805    0.0000 </r>
       <r>   30.6805    0.0000 </r>
       <r>   31.7835    0.0000 </r>
      </set>
      <set comment="kpoint 93">
       <r>   -0.9422    1.0000 </r>
       <r>   12.3635    0.0000 </r>
       <r>   13.3438    0.0000 </r>
       <r>   15.6954    0.0000 </r>
       <r>   17.2907    0.0000 </r>
       <r>   24.5455    0.0000 </r>
       <r>   26.3713    0.0000 </r>
       <r>   28.2394    0.0000 </r>
      </set>
      <set comment="kpoint 94">
       <r>    0.2586    1.0000 </r>
       <r>    9.9166    0.1054 </r>
       <r>   12.6222    0.0000 </r>
       <r>   15.1481    0.0000 </r>
       <r>   17.9457    0.0000 </r>
       <r>   23.9285    0.0000 </r>
       <r>   25.3782    0.0000 </r>
       <r>   27.8421    0.0000 </r>
      </set>
      <set comment="kpoint 95">
       <r>    0.1257    1.0000 </r>
       <r>   11.4156    0.0000 </r>
       <r>   11.6052    0.0000 </r>
       <r>   15.5497    0.0000 </r>
       <r>   16.6528    0.0000 </r>
       <r>   24.4484    0.0000 </r>
       <r>   26.1303    0.0000 </r>
       <r>   28.0976    0.0000 </r>
      </set>
      <set comment="kpoint 96">
       <r>    1.7151    1.0000 </r>
       <r>    7.5561    1.0000 </r>
       <r>   12.1393    0.0000 </r>
       <r>   14.6887    0.0000 </r>
       <r>   19.0701    0.0000 </r>
       <r>   23.4801    0.0000 </r>
       <r>   23.9710    0.0000 </r>
       <r>   27.3361    0.0000 </r>
      </set>
      <set comment="kpoint 97">
       <r>    1.4517    1.0000 </r>
       <r>    9.1587    1.0000 </r>
       <r>   10.9023    0.0000 </r>
       <r>   15.3292    0.0000 </r>
       <r>   17.2573    0.0000 </r>
       <r>   23.5773    0.0000 </r>
       <r>   24.6906    0.0000 </r>
       <r>   28.6298    0.0000 </r>
      </set>
      <set comment="kpoint 98">
       <r>    3.4128    1.0000 </r>
       <r>    5.3944    1.0000 </r>
       <r>   11.8975    0.0000 </r>
       <r>   14.4473    0.0000 </r>
       <r>   20.3008    0.0000 </r>
       <r>   22.5487    0.0000 </r>
       <r>   23.2501    0.0000 </r>
       <r>   27.0465    0.0000 </r>
      </set>
      <set comment="kpoint 99">
       <r>    3.0275    1.0000 </r>
       <r>    6.9164    1.0000 </r>
       <r>   10.5283    0.0000 </r>
       <r>   15.0196    0.0000 </r>
       <r>   18.5025    0.0000 </r>
       <r>   22.0317    0.0000 </r>
       <r>   24.0526    0.0000 </r>
       <r>   28.6288    0.0000 </r>
      </set>
      <set comment="kpoint 100">
       <r>    2.8977    1.0000 </r>
       <r>    8.5370    1.0000 </r>
       <r>    8.7871    1.0000 </r>
       <r>   16.1124    0.0000 </r>
       <r>   17.1280    0.0000 </r>
       <r>   21.8787    0.0000 </r>
       <r>   24.1739    0.0000 </r>
       <r>   30.4050    0.0000 </r>
      </set>
      <set comment="kpoint 101">
       <r>    4.6858    1.0000 </r>
       <r>    5.0300    1.0000 </r>
       <r>   10.4038    0.0000 </r>
       <r>   14.9063    0.0000 </r>
       <r>   19.5719    0.0000 </r>
       <r>   20.8075    0.0000 </r>
       <r>   23.8952    0.0000 </r>
       <r>   28.5945    0.0000 </r>
      </set>
      <set comment="kpoint 102">
       <r>    4.5816    1.0000 </r>
       <r>    6.5325    1.0000 </r>
       <r>    8.4194    1.0000 </r>
       <r>   16.2023    0.0000 </r>
       <r>   18.2007    0.0000 </r>
       <r>   20.1122    0.0000 </r>
       <r>   23.9232    0.0000 </r>
       <r>   31.0136    0.0000 </r>
      </set>
      <set comment="kpoint 103">
       <r>    6.1025    1.0000 </r>
       <r>    6.5478    1.0000 </r>
       <r>    6.5478    1.0000 </r>
       <r>   17.0490    0.0000 </r>
       <r>   18.5632    0.0000 </r>
       <r>   18.5632    0.0000 </r>
       <r>   23.8433    0.0000 </r>
       <r>   33.1257    0.0000 </r>
      </set>
      <set comment="kpoint 104">
       <r>   -0.0073    1.0000 </r>
       <r>   12.3830    0.0000 </r>
       <r>   12.3830    0.0000 </r>
       <r>   14.4050    0.0000 </r>
       <r>   15.6302    0.0000 </r>
       <r>   25.9227    0.0000 </r>
       <r>   26.6403    0.0000 </r>
       <r>   27.9873    0.0000 </r>
      </set>
      <set comment="kpoint 105">
       <r>    1.1875    1.0000 </r>
       <r>   10.6410    0.0000 </r>
       <r>   11.6574    0.0000 </r>
       <r>   14.0380    0.0000 </r>
       <r>   15.4527    0.0000 </r>
       <r>   23.8255    0.0000 </r>
       <r>   26.5310    0.0000 </r>
       <r>   28.6636    0.0000 </r>
      </set>
      <set comment="kpoint 106">
       <r>    2.6359    1.0000 </r>
       <r>    8.4029    1.0000 </r>
       <r>   11.1720    0.0000 </r>
       <r>   13.6577    0.0000 </r>
       <r>   16.4690    0.0000 </r>
       <r>   21.7492    0.0000 </r>
       <r>   26.1259    0.0000 </r>
       <r>   28.8619    0.0000 </r>
      </set>
      <set comment="kpoint 107">
       <r>    2.5050    1.0000 </r>
       <r>    9.9382    0.0314 </r>
       <r>   10.1106    0.0000 </r>
       <r>   14.1571    0.0000 </r>
       <r>   15.0545    0.0000 </r>
       <r>   21.6379    0.0000 </r>
       <r>   26.8073    0.0000 </r>
       <r>   30.0793    0.0000 </r>
      </set>
      <set comment="kpoint 108">
       <r>    4.3232    1.0000 </r>
       <r>    6.2799    1.0000 </r>
       <r>   10.9289    0.0000 </r>
       <r>   13.4243    0.0000 </r>
       <r>   17.8735    0.0000 </r>
       <r>   19.8783    0.0000 </r>
       <r>   25.9066    0.0000 </r>
       <r>   28.8726    0.0000 </r>
      </set>
      <set comment="kpoint 109">
       <r>    4.0689    1.0000 </r>
       <r>    7.8934    1.0000 </r>
       <r>    9.6588    1.0000 </r>
       <r>   14.1153    0.0000 </r>
       <r>   15.9979    0.0000 </r>
       <r>   19.5771    0.0000 </r>
       <r>   26.6056    0.0000 </r>
       <r>   30.6442    0.0000 </r>
      </set>
      <set comment="kpoint 110">
       <r>    5.7217    1.0000 </r>
       <r>    6.0338    1.0000 </r>
       <r>    9.5326    1.0000 </r>
       <r>   14.0217    0.0000 </r>
       <r>   17.2469    0.0000 </r>
       <r>   18.0512    0.0000 </r>
       <r>   26.5168    0.0000 </r>
       <r>   30.7273    0.0000 </r>
      </set>
      <set comment="kpoint 111">
       <r>    5.7309    1.0000 </r>
       <r>    7.5337    1.0000 </r>
       <r>    7.7679    1.0000 </r>
       <r>   15.1586    0.0000 </r>
       <r>   16.0855    0.0000 </r>
       <r>   17.6234    0.0000 </r>
       <r>   26.5598    0.0000 </r>
       <r>   32.6157    0.0000 </r>
      </set>
      <set comment="kpoint 112">
       <r>    2.3739    1.0000 </r>
       <r>   10.9291    0.0000 </r>
       <r>   10.9291    0.0000 </r>
       <r>   12.9687    0.0000 </r>
       <r>   13.9849    0.0000 </r>
       <r>   21.5336    0.0000 </r>
       <r>   28.9313    0.0000 </r>
       <r>   29.9700    0.0000 </r>
      </set>
      <set comment="kpoint 113">
       <r>    3.8101    1.0000 </r>
       <r>    9.3971    1.0000 </r>
       <r>   10.4422    0.0000 </r>
       <r>   12.7953    0.0000 </r>
       <r>   14.1335    0.0000 </r>
       <r>   19.3240    0.0000 </r>
       <r>   28.9458    0.0000 </r>
       <r>   30.7275    0.0000 </r>
      </set>
      <set comment="kpoint 114">
       <r>    5.4790    1.0000 </r>
       <r>    7.3906    1.0000 </r>
       <r>   10.1984    0.0000 </r>
       <r>   12.6270    0.0000 </r>
       <r>   15.4397    0.0000 </r>
       <r>   17.3421    0.0000 </r>
       <r>   28.7499    0.0000 </r>
       <r>   30.9983    0.0000 </r>
      </set>
      <set comment="kpoint 115">
       <r>    5.3541    1.0000 </r>
       <r>    8.9436    1.0000 </r>
       <r>    9.1091    1.0000 </r>
       <r>   13.1797    0.0000 </r>
       <r>   13.9844    0.0000 </r>
       <r>   17.1892    0.0000 </r>
       <r>   29.3563    0.0000 </r>
       <r>   32.3017    0.0000 </r>
      </set>
      <set comment="kpoint 116">
       <r>    6.9840    1.0000 </r>
       <r>    7.2575    1.0000 </r>
       <r>    8.9102    1.0000 </r>
       <r>   13.3217    0.0000 </r>
       <r>   15.0059    0.0000 </r>
       <r>   15.5619    0.0000 </r>
       <r>   29.3332    0.0000 </r>
       <r>   32.8033    0.0000 </r>
      </set>
      <set comment="kpoint 117">
       <r>    5.2266    1.0000 </r>
       <r>    9.9544    0.0102 </r>
       <r>    9.9544    0.0102 </r>
       <r>   11.9673    0.0000 </r>
       <r>   12.8850    0.0000 </r>
       <r>   17.0530    0.0000 </r>
       <r>   31.5703    0.0000 </r>
       <r>   32.1959    0.0000 </r>
      </set>
      <set comment="kpoint 118">
       <r>    6.8586    1.0000 </r>
       <r>    8.6487    1.0000 </r>
       <r>    9.7102    1.0000 </r>
       <r>   12.0060    0.0000 </r>
       <r>   13.3269    0.0000 </r>
       <r>   15.0456    0.0000 </r>
       <r>   31.6501    0.0000 </r>
       <r>   32.9268    0.0000 </r>
      </set>
      <set comment="kpoint 119">
       <r>    8.3401    1.0000 </r>
       <r>    8.6071    1.0000 </r>
       <r>    8.6071    1.0000 </r>
       <r>   12.4196    0.0000 </r>
       <r>   13.4484    0.0000 </r>
       <r>   13.4484    0.0000 </r>
       <r>   32.0760    0.0000 </r>
       <r>   34.2441    0.0000 </r>
      </set>
      <set comment="kpoint 120">
       <r>    8.3836    1.0000 </r>
       <r>    9.4659    1.0000 </r>
       <r>    9.4659    1.0000 </r>
       <r>   11.3542    0.0000 </r>
       <r>   12.3343    0.0000 </r>
       <r>   13.1394    0.0000 </r>
       <r>   34.0161    0.0000 </r>
       <r>   34.1445    0.0000 </r>
      </set>
     </set>
    </set>
   </array>
  </eigenvalues>
  <separator name="orbital magnetization" >
   <v name="MAGDIPOLOUT">      0.00000000      0.00000000      0.00000000</v>
  </separator>
  <dos>
   <i name="efermi">      9.87240701 </i>
   <total>
    <array>
     <dimension dim="1">gridpoints</dimension>
     <dimension dim="2">spin</dimension>
     <field>energy</field>
     <field>total</field>
     <field>integrated</field>
     <set>
      <set comment="spin 1">
       <r>    -6.2450     0.0000     0.0000 </r>
       <r>    -6.1037     0.0000     0.0000 </r>
       <r>    -5.9623     0.0000     0.0000 </r>
       <r>    -5.8209     0.0000     0.0000 </r>
       <r>    -5.6795     0.0000     0.0000 </r>
       <r>    -5.5381     0.0000     0.0000 </r>
       <r>    -5.3967     0.0000     0.0000 </r>
       <r>    -5.2553     0.0000     0.0000 </r>
       <r>    -5.1139     0.0000     0.0000 </r>
       <r>    -4.9725     0.0000     0.0000 </r>
       <r>    -4.8311     0.0000     0.0000 </r>
       <r>    -4.6898     0.0000     0.0000 </r>
       <r>    -4.5484     0.0000     0.0000 </r>
       <r>    -4.4070     0.0000     0.0000 </r>
       <r>    -4.2656     0.0043     0.0006 </r>
       <r>    -4.1242     0.0478     0.0074 </r>
       <r>    -3.9828     0.0284     0.0114 </r>
       <r>    -3.8414     0.0983     0.0253 </r>
       <r>    -3.7000     0.0547     0.0330 </r>
       <r>    -3.5586     0.0982     0.0469 </r>
       <r>    -3.4172     0.0479     0.0537 </r>
       <r>    -3.2758     0.1877     0.0802 </r>
       <r>    -3.1345     0.0442     0.0865 </r>
       <r>    -2.9931     0.1480     0.1074 </r>
       <r>    -2.8517     0.1058     0.1223 </r>
       <r>    -2.7103     0.1064     0.1374 </r>
       <r>    -2.5689     0.1776     0.1625 </r>
       <r>    -2.4275     0.1960     0.1902 </r>
       <r>    -2.2861     0.0994     0.2043 </r>
       <r>    -2.1447     0.1305     0.2227 </r>
       <r>    -2.0033     0.1510     0.2441 </r>
       <r>    -1.8619     0.1615     0.2669 </r>
       <r>    -1.7205     0.2700     0.3051 </r>
       <r>    -1.5792     0.1516     0.3265 </r>
       <r>    -1.4378     0.1936     0.3539 </r>
       <r>    -1.2964     0.1176     0.3705 </r>
       <r>    -1.1550     0.1971     0.3984 </r>
       <r>    -1.0136     0.0514     0.4057 </r>
       <r>    -0.8722     0.3410     0.4539 </r>
       <r>    -0.7308     0.1267     0.4718 </r>
       <r>    -0.5894     0.3953     0.5277 </r>
       <r>    -0.4480     0.1987     0.5558 </r>
       <r>    -0.3066     0.0883     0.5683 </r>
       <r>    -0.1653     0.1008     0.5825 </r>
       <r>    -0.0239     0.3096     0.6263 </r>
       <r>     0.1175     0.1837     0.6523 </r>
       <r>     0.2589     0.3373     0.7000 </r>
       <r>     0.4003     0.2209     0.7312 </r>
       <r>     0.5417     0.1850     0.7574 </r>
       <r>     0.6831     0.4347     0.8188 </r>
       <r>     0.8245     0.1998     0.8471 </r>
       <r>     0.9659     0.1959     0.8748 </r>
       <r>     1.1073     0.1166     0.8913 </r>
       <r>     1.2487     0.2018     0.9198 </r>
       <r>     1.3900     0.2224     0.9513 </r>
       <r>     1.5314     0.4866     1.0200 </r>
       <r>     1.6728     0.1589     1.0425 </r>
       <r>     1.8142     0.4420     1.1050 </r>
       <r>     1.9556     0.1068     1.1201 </r>
       <r>     2.0970     0.3317     1.1670 </r>
       <r>     2.2384     0.2867     1.2076 </r>
       <r>     2.3798     0.3148     1.2521 </r>
       <r>     2.5212     0.1884     1.2787 </r>
       <r>     2.6626     0.3040     1.3217 </r>
       <r>     2.8040     0.3173     1.3666 </r>
       <r>     2.9453     0.1662     1.3901 </r>
       <r>     3.0867     0.6157     1.4771 </r>
       <r>     3.2281     0.1034     1.4917 </r>
       <r>     3.3695     0.2725     1.5303 </r>
       <r>     3.5109     0.3923     1.5857 </r>
       <r>     3.6523     0.2564     1.6220 </r>
       <r>     3.7937     0.3674     1.6739 </r>
       <r>     3.9351     0.3843     1.7283 </r>
       <r>     4.0765     0.2397     1.7621 </r>
       <r>     4.2179     0.1154     1.7785 </r>
       <r>     4.3592     0.3538     1.8285 </r>
       <r>     4.5006     0.3203     1.8738 </r>
       <r>     4.6420     0.4999     1.9445 </r>
       <r>     4.7834     0.4838     2.0129 </r>
       <r>     4.9248     0.1208     2.0299 </r>
       <r>     5.0662     0.3909     2.0852 </r>
       <r>     5.2076     0.1418     2.1053 </r>
       <r>     5.3490     0.3466     2.1543 </r>
       <r>     5.4904     0.6094     2.2404 </r>
       <r>     5.6318     0.2448     2.2750 </r>
       <r>     5.7732     0.5570     2.3538 </r>
       <r>     5.9145     0.3022     2.3965 </r>
       <r>     6.0559     0.1947     2.4241 </r>
       <r>     6.1973     0.4034     2.4811 </r>
       <r>     6.3387     0.2643     2.5185 </r>
       <r>     6.4801     0.0815     2.5300 </r>
       <r>     6.6215     0.6952     2.6283 </r>
       <r>     6.7629     0.3400     2.6763 </r>
       <r>     6.9043     0.4970     2.7466 </r>
       <r>     7.0457     0.5442     2.8236 </r>
       <r>     7.1871     0.2498     2.8589 </r>
       <r>     7.3285     0.3599     2.9098 </r>
       <r>     7.4698     0.3184     2.9548 </r>
       <r>     7.6112     0.4795     3.0226 </r>
       <r>     7.7526     0.4429     3.0852 </r>
       <r>     7.8940     0.5213     3.1589 </r>
       <r>     8.0354     0.2932     3.2003 </r>
       <r>     8.1768     0.1230     3.2177 </r>
       <r>     8.3182     0.2026     3.2464 </r>
       <r>     8.4596     0.7452     3.3517 </r>
       <r>     8.6010     0.5172     3.4249 </r>
       <r>     8.7424     0.3784     3.4784 </r>
       <r>     8.8837     0.4395     3.5405 </r>
       <r>     9.0251     0.4381     3.6025 </r>
       <r>     9.1665     0.5010     3.6733 </r>
       <r>     9.3079     0.5020     3.7443 </r>
       <r>     9.4493     0.4349     3.8058 </r>
       <r>     9.5907     0.5283     3.8805 </r>
       <r>     9.7321     0.5351     3.9561 </r>
       <r>     9.8735     0.3132     4.0004 </r>
       <r>    10.0149     0.4756     4.0677 </r>
       <r>    10.1563     0.2526     4.1034 </r>
       <r>    10.2977     0.3986     4.1597 </r>
       <r>    10.4390     0.4422     4.2222 </r>
       <r>    10.5804     0.5056     4.2937 </r>
       <r>    10.7218     0.5062     4.3653 </r>
       <r>    10.8632     0.5590     4.4443 </r>
       <r>    11.0046     0.7149     4.5454 </r>
       <r>    11.1460     0.1896     4.5722 </r>
       <r>    11.2874     0.3103     4.6161 </r>
       <r>    11.4288     0.2095     4.6457 </r>
       <r>    11.5702     0.6273     4.7344 </r>
       <r>    11.7116     0.6905     4.8320 </r>
       <r>    11.8529     0.2452     4.8667 </r>
       <r>    11.9943     0.6244     4.9550 </r>
       <r>    12.1357     0.4526     5.0190 </r>
       <r>    12.2771     0.2168     5.0496 </r>
       <r>    12.4185     0.3943     5.1054 </r>
       <r>    12.5599     0.1616     5.1282 </r>
       <r>    12.7013     0.5681     5.2086 </r>
       <r>    12.8427     0.2989     5.2508 </r>
       <r>    12.9841     0.7398     5.3554 </r>
       <r>    13.1255     0.4859     5.4241 </r>
       <r>    13.2669     0.4410     5.4865 </r>
       <r>    13.4082     0.8682     5.6092 </r>
       <r>    13.5496     0.4217     5.6689 </r>
       <r>    13.6910     0.4940     5.7387 </r>
       <r>    13.8324     0.3489     5.7880 </r>
       <r>    13.9738     0.4371     5.8498 </r>
       <r>    14.1152     0.4484     5.9132 </r>
       <r>    14.2566     0.3700     5.9656 </r>
       <r>    14.3980     0.5560     6.0442 </r>
       <r>    14.5394     0.8462     6.1638 </r>
       <r>    14.6808     0.2147     6.1942 </r>
       <r>    14.8222     0.4949     6.2641 </r>
       <r>    14.9635     0.2723     6.3027 </r>
       <r>    15.1049     0.6992     6.4015 </r>
       <r>    15.2463     0.4864     6.4703 </r>
       <r>    15.3877     0.5112     6.5426 </r>
       <r>    15.5291     0.7332     6.6462 </r>
       <r>    15.6705     0.4250     6.7063 </r>
       <r>    15.8119     0.5831     6.7888 </r>
       <r>    15.9533     0.5487     6.8663 </r>
       <r>    16.0947     0.8429     6.9855 </r>
       <r>    16.2361     0.5991     7.0702 </r>
       <r>    16.3774     0.1937     7.0976 </r>
       <r>    16.5188     0.7280     7.2006 </r>
       <r>    16.6602     0.3400     7.2486 </r>
       <r>    16.8016     0.2363     7.2820 </r>
       <r>    16.9430     0.3748     7.3350 </r>
       <r>    17.0844     0.5716     7.4158 </r>
       <r>    17.2258     0.8841     7.5408 </r>
       <r>    17.3672     1.2954     7.7240 </r>
       <r>    17.5086     0.8180     7.8397 </r>
       <r>    17.6500     0.4046     7.8969 </r>
       <r>    17.7914     0.4092     7.9547 </r>
       <r>    17.9327     0.3953     8.0106 </r>
       <r>    18.0741     0.7256     8.1132 </r>
       <r>    18.2155     0.4668     8.1792 </r>
       <r>    18.3569     0.3446     8.2280 </r>
       <r>    18.4983     0.1958     8.2556 </r>
       <r>    18.6397     0.3973     8.3118 </r>
       <r>    18.7811     0.3883     8.3667 </r>
       <r>    18.9225     0.1169     8.3832 </r>
       <r>    19.0639     0.4824     8.4515 </r>
       <r>    19.2053     0.6725     8.5465 </r>
       <r>    19.3467     0.4313     8.6075 </r>
       <r>    19.4880     0.5071     8.6792 </r>
       <r>    19.6294     0.6905     8.7769 </r>
       <r>    19.7708     0.6997     8.8758 </r>
       <r>    19.9122     0.3901     8.9310 </r>
       <r>    20.0536     0.1977     8.9589 </r>
       <r>    20.1950     1.0351     9.1053 </r>
       <r>    20.3364     0.4826     9.1735 </r>
       <r>    20.4778     0.2384     9.2072 </r>
       <r>    20.6192     0.7218     9.3093 </r>
       <r>    20.7606     0.3751     9.3623 </r>
       <r>    20.9019     0.6625     9.4560 </r>
       <r>    21.0433     0.7435     9.5611 </r>
       <r>    21.1847     0.4804     9.6290 </r>
       <r>    21.3261     0.4729     9.6959 </r>
       <r>    21.4675     0.6404     9.7864 </r>
       <r>    21.6089     0.8250     9.9031 </r>
       <r>    21.7503     0.9220    10.0334 </r>
       <r>    21.8917     1.3957    10.2307 </r>
       <r>    22.0331     0.7026    10.3301 </r>
       <r>    22.1745     0.7249    10.4326 </r>
       <r>    22.3159     0.8953    10.5592 </r>
       <r>    22.4572     0.6357    10.6491 </r>
       <r>    22.5986     0.2125    10.6791 </r>
       <r>    22.7400     0.1791    10.7044 </r>
       <r>    22.8814     0.2472    10.7394 </r>
       <r>    23.0228     0.7773    10.8493 </r>
       <r>    23.1642     0.8638    10.9714 </r>
       <r>    23.3056     0.9110    11.1002 </r>
       <r>    23.4470     0.4911    11.1697 </r>
       <r>    23.5884     0.5743    11.2509 </r>
       <r>    23.7298     0.5493    11.3285 </r>
       <r>    23.8712     0.5026    11.3996 </r>
       <r>    24.0125     0.4905    11.4689 </r>
       <r>    24.1539     0.2300    11.5015 </r>
       <r>    24.2953     0.6708    11.5963 </r>
       <r>    24.4367     0.5173    11.6694 </r>
       <r>    24.5781     1.1279    11.8289 </r>
       <r>    24.7195     0.7262    11.9316 </r>
       <r>    24.8609     0.4969    12.0018 </r>
       <r>    25.0023     0.4386    12.0639 </r>
       <r>    25.1437     0.6408    12.1545 </r>
       <r>    25.2851     0.6345    12.2442 </r>
       <r>    25.4264     0.5453    12.3213 </r>
       <r>    25.5678     0.8045    12.4350 </r>
       <r>    25.7092     0.3697    12.4873 </r>
       <r>    25.8506     0.6736    12.5825 </r>
       <r>    25.9920     0.4814    12.6506 </r>
       <r>    26.1334     0.6157    12.7377 </r>
       <r>    26.2748     0.6604    12.8310 </r>
       <r>    26.4162     0.7879    12.9424 </r>
       <r>    26.5576     0.7296    13.0456 </r>
       <r>    26.6990     0.5005    13.1164 </r>
       <r>    26.8404     0.9206    13.2465 </r>
       <r>    26.9817     0.4748    13.3136 </r>
       <r>    27.1231     0.7431    13.4187 </r>
       <r>    27.2645     0.5446    13.4957 </r>
       <r>    27.4059     0.6442    13.5868 </r>
       <r>    27.5473     0.2648    13.6242 </r>
       <r>    27.6887     0.5775    13.7059 </r>
       <r>    27.8301     0.6109    13.7923 </r>
       <r>    27.9715     0.7452    13.8976 </r>
       <r>    28.1129     0.6064    13.9834 </r>
       <r>    28.2543     0.4718    14.0501 </r>
       <r>    28.3957     0.5738    14.1312 </r>
       <r>    28.5370     0.6483    14.2229 </r>
       <r>    28.6784     0.9606    14.3587 </r>
       <r>    28.8198     0.6663    14.4529 </r>
       <r>    28.9612     1.2519    14.6299 </r>
       <r>    29.1026     0.7477    14.7356 </r>
       <r>    29.2440     0.2706    14.7739 </r>
       <r>    29.3854     0.6230    14.8620 </r>
       <r>    29.5268     0.5197    14.9355 </r>
       <r>    29.6682     0.5316    15.0106 </r>
       <r>    29.8096     0.8460    15.1302 </r>
       <r>    29.9509     0.8767    15.2542 </r>
       <r>    30.0923     0.6387    15.3445 </r>
       <r>    30.2337     0.2057    15.3736 </r>
       <r>    30.3751     0.6052    15.4592 </r>
       <r>    30.5165     0.4887    15.5283 </r>
       <r>    30.6579     0.8148    15.6435 </r>
       <r>    30.7993     0.5401    15.7198 </r>
       <r>    30.9407     0.1670    15.7434 </r>
       <r>    31.0821     0.4373    15.8053 </r>
       <r>    31.2235     0.1990    15.8334 </r>
       <r>    31.3649     0.0316    15.8379 </r>
       <r>    31.5062     0.1751    15.8627 </r>
       <r>    31.6476     0.2073    15.8920 </r>
       <r>    31.7890     0.1375    15.9114 </r>
       <r>    31.9304     0.0147    15.9135 </r>
       <r>    32.0718     0.0152    15.9156 </r>
       <r>    32.2132     0.0363    15.9208 </r>
       <r>    32.3546     0.1010    15.9350 </r>
       <r>    32.4960     0.0141    15.9370 </r>
       <r>    32.6374     0.0996    15.9511 </r>
       <r>    32.7788     0.0517    15.9584 </r>
       <r>    32.9202     0.1189    15.9752 </r>
       <r>    33.0615     0.0590    15.9836 </r>
       <r>    33.2029     0.0319    15.9881 </r>
       <r>    33.3443     0.0005    15.9881 </r>
       <r>    33.4857     0.0000    15.9881 </r>
       <r>    33.6271     0.0000    15.9881 </r>
       <r>    33.7685     0.0000    15.9881 </r>
       <r>    33.9099     0.0000    15.9882 </r>
       <r>    34.0513     0.0212    15.9912 </r>
       <r>    34.1927     0.0293    15.9953 </r>
       <r>    34.3341     0.0331    16.0000 </r>
       <r>    34.4754     0.0002    16.0000 </r>
       <r>    34.6168     0.0000    16.0000 </r>
       <r>    34.7582     0.0000    16.0000 </r>
       <r>    34.8996     0.0000    16.0000 </r>
       <r>    35.0410     0.0000    16.0000 </r>
       <r>    35.1824     0.0000    16.0000 </r>
       <r>    35.3238     0.0000    16.0000 </r>
       <r>    35.4652     0.0000    16.0000 </r>
       <r>    35.6066     0.0000    16.0000 </r>
       <r>    35.7480     0.0000    16.0000 </r>
       <r>    35.8894     0.0000    16.0000 </r>
       <r>    36.0307     0.0000    16.0000 </r>
       <r>    36.1721     0.0000    16.0000 </r>
      </set>
     </set>
    </array>
   </total>
  </dos>
 </calculation>
 <structure name="finalpos" >
  <crystal>
   <varray name="basis" >
    <v>       1.54083173       1.54083173       1.54083173 </v>
    <v>       1.54083173      -1.54083173      -1.54083173 </v>
    <v>      -1.54083173       1.54083173      -1.54083173 </v>
   </varray>
   <i name="volume">     14.63273912 </i>
   <varray name="rec_basis" >
    <v>       0.32450007       0.32450007       0.00000000 </v>
    <v>       0.32450007       0.00000000      -0.32450007 </v>
    <v>      -0.00000000       0.32450007      -0.32450007 </v>
   </varray>
  </crystal>
  <varray name="positions" >
   <v>       0.00000000       0.00000000      -0.00000000 </v>
  </varray>
 </structure>
</modeling>
