   2   2   0   0
  0.2016476E+02  0.3849278E-09  0.3849279E-09  0.3849278E-09  0.5000000E-15
  1.000000000000000E-004
  CAR 
 unknown system                          
     16.50995921     -7.27788854  301      5.80790562      1.00000000
     -7.278  0.0000E+00  0.0000E+00
     -7.199  0.0000E+00  0.0000E+00
     -7.119  0.0000E+00  0.0000E+00
     -7.040  0.0000E+00  0.0000E+00
     -6.961  0.0000E+00  0.0000E+00
     -6.881  0.0000E+00  0.0000E+00
     -6.802  0.0000E+00  0.0000E+00
     -6.723  0.0000E+00  0.0000E+00
     -6.644  0.0000E+00  0.0000E+00
     -6.564  0.0000E+00  0.0000E+00
     -6.485  0.6124E-20  0.4856E-21
     -6.406  0.6258E-13  0.4962E-14
     -6.326  0.4940E-08  0.3917E-09
     -6.247  0.5612E-05  0.4454E-06
     -6.168  0.2288E-03  0.1859E-04
     -6.088  0.8666E-03  0.8730E-04
     -6.009  0.1290E-02  0.1896E-03
     -5.930  0.1828E-02  0.3345E-03
     -5.851  0.1833E-02  0.4798E-03
     -5.771  0.2327E-02  0.6644E-03
     -5.692  0.2596E-02  0.8702E-03
     -5.613  0.2161E-02  0.1042E-02
     -5.533  0.3418E-02  0.1313E-02
     -5.454  0.3063E-02  0.1555E-02
     -5.375  0.2780E-02  0.1776E-02
     -5.296  0.3751E-02  0.2073E-02
     -5.216  0.4140E-02  0.2402E-02
     -5.137  0.3344E-02  0.2667E-02
     -5.058  0.3364E-02  0.2934E-02
     -4.978  0.5014E-02  0.3331E-02
     -4.899  0.4554E-02  0.3692E-02
     -4.820  0.4342E-02  0.4037E-02
     -4.741  0.3412E-02  0.4307E-02
     -4.661  0.6194E-02  0.4798E-02
     -4.582  0.5757E-02  0.5255E-02
     -4.503  0.4302E-02  0.5596E-02
     -4.423  0.5636E-02  0.6043E-02
     -4.344  0.4779E-02  0.6422E-02
     -4.265  0.7567E-02  0.7022E-02
     -4.185  0.6356E-02  0.7526E-02
     -4.106  0.6632E-02  0.8051E-02
     -4.027  0.5482E-02  0.8486E-02
     -3.948  0.7873E-02  0.9110E-02
     -3.868  0.1099E-01  0.9982E-02
     -3.789  0.8566E-02  0.1066E-01
     -3.710  0.7271E-02  0.1124E-01
     -3.630  0.7021E-02  0.1179E-01
     -3.551  0.1054E-01  0.1263E-01
     -3.472  0.8486E-02  0.1330E-01
     -3.393  0.6002E-02  0.1378E-01
     -3.313  0.6973E-02  0.1433E-01
     -3.234  0.7042E-02  0.1489E-01
     -3.155  0.7351E-02  0.1547E-01
     -3.075  0.6479E-02  0.1599E-01
     -2.996  0.6745E-02  0.1652E-01
     -2.917  0.3697E-02  0.1681E-01
     -2.837  0.5732E-02  0.1727E-01
     -2.758  0.7752E-02  0.1788E-01
     -2.679  0.3805E-02  0.1819E-01
     -2.600  0.3515E-02  0.1846E-01
     -2.520  0.3054E-02  0.1871E-01
     -2.441  0.6597E-02  0.1923E-01
     -2.362  0.3451E-02  0.1950E-01
     -2.282  0.1337E-02  0.1961E-01
     -2.203  0.1493E-02  0.1973E-01
     -2.124  0.2806E-02  0.1995E-01
     -2.045  0.1375E-02  0.2006E-01
     -1.965  0.7907E-03  0.2012E-01
     -1.886  0.9680E-03  0.2020E-01
     -1.807  0.9516E-03  0.2027E-01
     -1.727  0.2191E-02  0.2045E-01
     -1.648  0.5328E-02  0.2087E-01
     -1.569  0.3192E-02  0.2112E-01
     -1.490  0.2973E-02  0.2136E-01
     -1.410  0.3320E-02  0.2162E-01
     -1.331  0.5208E-02  0.2203E-01
     -1.252  0.9066E-02  0.2275E-01
     -1.172  0.8122E-02  0.2340E-01
     -1.093  0.1313E-01  0.2444E-01
     -1.014  0.1522E-01  0.2565E-01
     -0.934  0.1315E-01  0.2669E-01
     -0.855  0.1109E-01  0.2757E-01
     -0.776  0.6986E-02  0.2812E-01
     -0.697  0.7580E-02  0.2872E-01
     -0.617  0.6399E-02  0.2923E-01
     -0.538  0.6763E-02  0.2977E-01
     -0.459  0.8785E-02  0.3046E-01
     -0.379  0.4025E-02  0.3078E-01
     -0.300  0.4813E-02  0.3116E-01
     -0.221  0.5474E-02  0.3160E-01
     -0.142  0.4650E-02  0.3197E-01
     -0.062  0.6735E-02  0.3250E-01
      0.017  0.3034E-02  0.3274E-01
      0.096  0.3551E-02  0.3302E-01
      0.176  0.5879E-02  0.3349E-01
      0.255  0.1745E-02  0.3363E-01
      0.334  0.3737E-02  0.3392E-01
      0.414  0.5799E-02  0.3438E-01
      0.493  0.3691E-02  0.3468E-01
      0.572  0.6767E-03  0.3473E-01
      0.651  0.3517E-02  0.3501E-01
      0.731  0.3750E-02  0.3531E-01
      0.810  0.2262E-02  0.3548E-01
      0.889  0.3342E-02  0.3575E-01
      0.969  0.3978E-02  0.3607E-01
      1.048  0.7677E-03  0.3613E-01
      1.127  0.2093E-02  0.3629E-01
      1.206  0.2991E-02  0.3653E-01
      1.286  0.2067E-02  0.3669E-01
      1.365  0.3545E-02  0.3697E-01
      1.444  0.7534E-02  0.3757E-01
      1.524  0.9064E-02  0.3829E-01
      1.603  0.1141E-01  0.3920E-01
      1.682  0.1075E-01  0.4005E-01
      1.761  0.1196E-01  0.4100E-01
      1.841  0.1242E-01  0.4198E-01
      1.920  0.1055E-01  0.4282E-01
      1.999  0.7639E-02  0.4342E-01
      2.079  0.1329E-01  0.4448E-01
      2.158  0.1259E-01  0.4547E-01
      2.237  0.8745E-02  0.4617E-01
      2.317  0.7979E-02  0.4680E-01
      2.396  0.1106E-01  0.4768E-01
      2.475  0.1436E-01  0.4882E-01
      2.554  0.9587E-02  0.4958E-01
      2.634  0.1160E-01  0.5050E-01
      2.713  0.1327E-01  0.5155E-01
      2.792  0.1551E-01  0.5278E-01
      2.872  0.1711E-01  0.5413E-01
      2.951  0.9566E-02  0.5489E-01
      3.030  0.1276E-01  0.5590E-01
      3.109  0.1879E-01  0.5739E-01
      3.189  0.1895E-01  0.5890E-01
      3.268  0.1304E-01  0.5993E-01
      3.347  0.1155E-01  0.6085E-01
      3.427  0.1281E-01  0.6186E-01
      3.506  0.1689E-01  0.6320E-01
      3.585  0.1523E-01  0.6441E-01
      3.665  0.9805E-02  0.6519E-01
      3.744  0.1203E-01  0.6614E-01
      3.823  0.1683E-01  0.6747E-01
      3.902  0.1184E-01  0.6841E-01
      3.982  0.1157E-01  0.6933E-01
      4.061  0.1298E-01  0.7036E-01
      4.140  0.1228E-01  0.7133E-01
      4.220  0.1211E-01  0.7229E-01
      4.299  0.1117E-01  0.7318E-01
      4.378  0.1255E-01  0.7417E-01
      4.457  0.9065E-02  0.7489E-01
      4.537  0.1122E-01  0.7578E-01
      4.616  0.6863E-02  0.7633E-01
      4.695  0.7080E-02  0.7689E-01
      4.775  0.6191E-02  0.7738E-01
      4.854  0.6557E-02  0.7790E-01
      4.933  0.4266E-02  0.7824E-01
      5.012  0.4088E-02  0.7856E-01
      5.092  0.3896E-02  0.7887E-01
      5.171  0.2414E-02  0.7906E-01
      5.250  0.3678E-02  0.7935E-01
      5.330  0.3168E-02  0.7961E-01
      5.409  0.1867E-02  0.7975E-01
      5.488  0.1551E-02  0.7988E-01
      5.568  0.8964E-03  0.7995E-01
      5.647  0.6140E-03  0.8000E-01
      5.726  0.4608E-04  0.8000E-01
      5.805  0.2138E-06  0.8000E-01
      5.885  0.1488E-10  0.8000E-01
      5.964  0.1105E-16  0.8000E-01
      6.043  0.8234E-11  0.8000E-01
      6.123  0.1888E-06  0.8000E-01
      6.202  0.4337E-04  0.8000E-01
      6.281  0.3465E-03  0.8003E-01
      6.360  0.1150E-02  0.8012E-01
      6.440  0.1649E-02  0.8025E-01
      6.519  0.2768E-02  0.8047E-01
      6.598  0.3159E-02  0.8072E-01
      6.678  0.2851E-02  0.8095E-01
      6.757  0.5944E-02  0.8142E-01
      6.836  0.5166E-02  0.8183E-01
      6.916  0.3966E-02  0.8214E-01
      6.995  0.5704E-02  0.8260E-01
      7.074  0.4919E-02  0.8299E-01
      7.153  0.6501E-02  0.8350E-01
      7.233  0.7337E-02  0.8408E-01
      7.312  0.7000E-02  0.8464E-01
      7.391  0.1127E-01  0.8553E-01
      7.471  0.1277E-01  0.8655E-01
      7.550  0.7839E-02  0.8717E-01
      7.629  0.8818E-02  0.8787E-01
      7.708  0.1569E-01  0.8911E-01
      7.788  0.1639E-01  0.9041E-01
      7.867  0.1211E-01  0.9137E-01
      7.946  0.1345E-01  0.9244E-01
      8.026  0.1800E-01  0.9386E-01
      8.105  0.1630E-01  0.9516E-01
      8.184  0.1610E-01  0.9643E-01
      8.264  0.1331E-01  0.9749E-01
      8.343  0.1101E-01  0.9836E-01
      8.422  0.1387E-01  0.9946E-01
      8.501  0.1334E-01  0.1005E+00
      8.581  0.9618E-02  0.1013E+00
      8.660  0.7619E-02  0.1019E+00
      8.739  0.1167E-01  0.1028E+00
      8.819  0.1199E-01  0.1038E+00
      8.898  0.1672E-01  0.1051E+00
      8.977  0.2387E-01  0.1070E+00
      9.056  0.2367E-01  0.1089E+00
      9.136  0.1661E-01  0.1102E+00
      9.215  0.1643E-01  0.1115E+00
      9.294  0.1998E-01  0.1131E+00
      9.374  0.1871E-01  0.1145E+00
      9.453  0.1717E-01  0.1159E+00
      9.532  0.1433E-01  0.1170E+00
      9.611  0.1328E-01  0.1181E+00
      9.691  0.1094E-01  0.1190E+00
      9.770  0.1177E-01  0.1199E+00
      9.849  0.8747E-02  0.1206E+00
      9.929  0.1100E-01  0.1215E+00
     10.008  0.1505E-01  0.1227E+00
     10.087  0.1615E-01  0.1239E+00
     10.167  0.1556E-01  0.1252E+00
     10.246  0.1311E-01  0.1262E+00
     10.325  0.1318E-01  0.1273E+00
     10.404  0.1142E-01  0.1282E+00
     10.484  0.1144E-01  0.1291E+00
     10.563  0.8324E-02  0.1297E+00
     10.642  0.1330E-01  0.1308E+00
     10.722  0.1498E-01  0.1320E+00
     10.801  0.1305E-01  0.1330E+00
     10.880  0.1307E-01  0.1340E+00
     10.959  0.1532E-01  0.1353E+00
     11.039  0.1239E-01  0.1362E+00
     11.118  0.1031E-01  0.1371E+00
     11.197  0.6388E-02  0.1376E+00
     11.277  0.9025E-02  0.1383E+00
     11.356  0.9067E-02  0.1390E+00
     11.435  0.1023E-01  0.1398E+00
     11.515  0.1189E-01  0.1408E+00
     11.594  0.1251E-01  0.1417E+00
     11.673  0.1059E-01  0.1426E+00
     11.752  0.1457E-01  0.1437E+00
     11.832  0.1627E-01  0.1450E+00
     11.911  0.1113E-01  0.1459E+00
     11.990  0.6111E-02  0.1464E+00
     12.070  0.3729E-02  0.1467E+00
     12.149  0.9237E-02  0.1474E+00
     12.228  0.5908E-02  0.1479E+00
     12.307  0.3373E-02  0.1482E+00
     12.387  0.6303E-02  0.1487E+00
     12.466  0.1106E-01  0.1495E+00
     12.545  0.1028E-01  0.1504E+00
     12.625  0.9420E-02  0.1511E+00
     12.704  0.1043E-01  0.1519E+00
     12.783  0.1354E-01  0.1530E+00
     12.862  0.9479E-02  0.1538E+00
     12.942  0.3786E-02  0.1541E+00
     13.021  0.2660E-02  0.1543E+00
     13.100  0.5230E-02  0.1547E+00
     13.180  0.4327E-02  0.1550E+00
     13.259  0.1983E-02  0.1552E+00
     13.338  0.3799E-02  0.1555E+00
     13.418  0.6268E-02  0.1560E+00
     13.497  0.5825E-02  0.1564E+00
     13.576  0.3245E-02  0.1567E+00
     13.655  0.7291E-02  0.1573E+00
     13.735  0.8875E-02  0.1580E+00
     13.814  0.6670E-02  0.1585E+00
     13.893  0.3211E-03  0.1585E+00
     13.973  0.4473E-03  0.1586E+00
     14.052  0.4220E-03  0.1586E+00
     14.131  0.7414E-03  0.1587E+00
     14.210  0.1390E-02  0.1588E+00
     14.290  0.5307E-03  0.1588E+00
     14.369  0.2124E-02  0.1590E+00
     14.448  0.2298E-02  0.1592E+00
     14.528  0.9174E-03  0.1592E+00
     14.607  0.1396E-02  0.1593E+00
     14.686  0.3162E-02  0.1596E+00
     14.766  0.2596E-02  0.1598E+00
     14.845  0.2879E-03  0.1598E+00
     14.924  0.1448E-05  0.1598E+00
     15.003  0.8821E-10  0.1598E+00
     15.083  0.1644E-07  0.1598E+00
     15.162  0.2644E-04  0.1598E+00
     15.241  0.5433E-03  0.1599E+00
     15.321  0.6176E-03  0.1599E+00
     15.400  0.6404E-03  0.1600E+00
     15.479  0.3448E-03  0.1600E+00
     15.558  0.3384E-04  0.1600E+00
     15.638  0.5353E-07  0.1600E+00
     15.717  0.7427E-12  0.1600E+00
     15.796  0.9798E-19  0.1600E+00
     15.876  0.0000E+00  0.1600E+00
     15.955  0.0000E+00  0.1600E+00
     16.034  0.0000E+00  0.1600E+00
     16.113  0.0000E+00  0.1600E+00
     16.193  0.0000E+00  0.1600E+00
     16.272  0.0000E+00  0.1600E+00
     16.351  0.0000E+00  0.1600E+00
     16.431  0.0000E+00  0.1600E+00
     16.510  0.0000E+00  0.1600E+00
