    2    2  100    1
  0.2016476E+02  0.3849278E-09  0.3849279E-09  0.3849278E-09  0.5000000E-15
  1.000000000000000E-004
  CAR 
 unknown system                          
      8    220      8
 
  0.0000000E+00  0.0000000E+00  0.0000000E+00  0.1457938E-03
    1       -6.196623   1.000000
    2        5.623561   1.000000
    3        5.623561   1.000000
    4        5.623564   1.000000
    5        8.181283   0.000000
    6        8.181290   0.000000
    7        8.181291   0.000000
    8        8.764129   0.000000
 
  0.5263158E-01 -0.3469447E-17  0.0000000E+00  0.1166351E-02
    1       -6.160908   1.000000
    2        5.230405   1.000000
    3        5.564038   1.000000
    4        5.564040   1.000000
    5        8.226863   0.000000
    6        8.268732   0.000000
    7        8.268739   0.000000
    8        9.050857   0.000000
 
  0.1052632E+00 -0.6938894E-17  0.0000000E+00  0.1166351E-02
    1       -6.054125   1.000000
    2        4.388629   1.000000
    3        5.411661   1.000000
    4        5.411663   1.000000
    5        8.133629   0.000000
    6        8.494361   0.000000
    7        8.494368   0.000000
    8        9.821359   0.000000
 
  0.1578947E+00  0.1387779E-16  0.0000000E+00  0.1166351E-02
    1       -5.877750   1.000000
    2        3.423188   1.000000
    3        5.216220   1.000000
    4        5.216222   1.000000
    5        7.946741   0.000000
    6        8.772902   0.000000
    7        8.772909   0.000000
    8       10.749434   0.000000
 
  0.2105263E+00  0.0000000E+00  0.0000000E+00  0.1166351E-02
    1       -5.634532   1.000000
    2        2.446871   1.000000
    3        5.016436   1.000000
    4        5.016438   1.000000
    5        7.737205   0.000000
    6        9.010271   0.000000
    7        9.010279   0.000000
    8       11.695442   0.000000
 
  0.2631579E+00  0.0000000E+00  0.0000000E+00  0.1166351E-02
    1       -5.329700   1.000000
    2        1.504935   1.000000
    3        4.834809   1.000000
    4        4.834812   1.000000
    5        7.538137   0.000000
    6        9.135168   0.000000
    7        9.135176   0.000000
    8       12.596858   0.000000
 
  0.3157895E+00 -0.1387779E-16  0.0000000E+00  0.1166351E-02
    1       -4.973064   1.000000
    2        0.625728   1.000000
    3        4.682991   1.000000
    4        4.682994   1.000000
    5        7.367656   0.000000
    6        9.143761   0.000000
    7        9.143769   0.000000
    8       13.293830   0.000000
 
  0.3684211E+00  0.1387779E-16  0.0000000E+00  0.1166351E-02
    1       -4.584991   1.000000
    2       -0.160464   1.000000
    3        4.566635   1.000000
    4        4.566638   1.000000
    5        7.234835   0.000000
    6        9.087449   0.000000
    7        9.087457   0.000000
    8       13.468303   0.000000
 
  0.4210526E+00  0.0000000E+00  0.0000000E+00  0.1166351E-02
    1       -4.211383   1.000000
    2       -0.802098   1.000000
    3        4.488275   1.000000
    4        4.488278   1.000000
    5        7.144424   0.000000
    6        9.021314   0.000000
    7        9.021322   0.000000
    8       13.397326   0.000000
 
  0.4736842E+00  0.0000000E+00  0.0000000E+00  0.1166351E-02
    1       -3.953989   1.000000
    2       -1.194229   1.000000
    3        4.448929   1.000000
    4        4.448932   1.000000
    5        7.098973   0.000000
    6        8.980516   0.000000
    7        8.980524   0.000000
    8       13.336180   0.000000
 
  0.5263158E-01  0.5263158E-01  0.0000000E+00  0.8747631E-03
    1       -6.148974   1.000000
    2        5.306832   1.000000
    3        5.435930   1.000000
    4        5.435932   1.000000
    5        8.067169   0.000000
    6        8.427965   0.000000
    7        8.427971   0.000000
    8        9.069993   0.000000
 
  0.1052632E+00  0.5263158E-01  0.0000000E+00  0.3499052E-02
    1       -6.065796   1.000000
    2        4.636423   1.000000
    3        5.239593   1.000000
    4        5.372943   1.000000
    5        8.058659   0.000000
    6        8.505808   0.000000
    7        8.705176   0.000000
    8        9.634893   0.000000
 
  0.1578947E+00  0.5263158E-01  0.0000000E+00  0.3499052E-02
    1       -5.912476   1.000000
    2        3.722672   1.000000
    3        5.022773   1.000000
    4        5.234936   1.000000
    5        8.118011   0.000000
    6        8.498272   0.000000
    7        9.021052   0.000000
    8       10.451659   0.000000
 
  0.2105263E+00  0.5263158E-01  0.0000000E+00  0.3499052E-02
    1       -5.691206   1.000000
    2        2.760669   1.000000
    3        4.817802   1.000000
    4        5.039368   1.000000
    5        8.012569   0.000000
    6        8.669080   0.000000
    7        9.290087   0.000000
    8       11.168582   0.000000
 
  0.2631579E+00  0.5263158E-01  0.0000000E+00  0.3499052E-02
    1       -5.406265   1.000000
    2        1.814317   1.000000
    3        4.642351   1.000000
    4        4.830126   1.000000
    5        7.836916   0.000000
    6        8.853632   0.000000
    7        9.438331   0.000000
    8       11.633464   0.000000
 
  0.3157895E+00  0.5263158E-01  0.0000000E+00  0.3499052E-02
    1       -5.065451   1.000000
    2        0.917915   1.000000
    3        4.505709   1.000000
    4        4.632638   1.000000
    5        7.667451   0.000000
    6        8.937456   0.000000
    7        9.448575   0.000000
    8       12.093351   0.000000
 
  0.3684211E+00  0.5263158E-01  0.0000000E+00  0.3499052E-02
    1       -4.684569   1.000000
    2        0.100770   1.000000
    3        4.412193   1.000000
    4        4.460486   1.000000
    5        7.526825   0.000000
    6        8.937433   0.000000
    7        9.367265   0.000000
    8       12.681877   0.000000
 
  0.4210526E+00  0.5263158E-01  0.0000000E+00  0.3499052E-02
    1       -4.298178   1.000000
    2       -0.594841   1.000000
    3        4.320887   1.000000
    4        4.363157   1.000000
    5        7.424171   0.000000
    6        8.912557   0.000000
    7        9.255054   0.000000
    8       13.236583   0.000000
 
  0.4736842E+00  0.5263158E-01  0.0000000E+00  0.3499052E-02
    1       -3.985872   1.000000
    2       -1.085174   1.000000
    3        4.218279   1.000000
    4        4.358212   1.000000
    5        7.363742   0.000000
    6        8.906806   0.000000
    7        9.154772   0.000000
    8       13.431986   0.000000
 
 -0.4736842E+00  0.5263158E-01  0.0000000E+00  0.3499052E-02
    1       -3.888648   1.000000
    2       -1.226955   1.000000
    3        4.155694   1.000000
    4        4.395917   1.000000
    5        7.347299   0.000000
    6        8.940920   0.000000
    7        9.088774   0.000000
    8       13.460245   0.000000
 
 -0.4210526E+00  0.5263158E-01  0.0000000E+00  0.3499052E-02
    1       -4.074155   1.000000
    2       -0.952050   1.000000
    3        4.135699   1.000000
    4        4.474021   1.000000
    5        7.375530   0.000000
    6        9.018780   0.000000
    7        9.063473   0.000000
    8       13.473180   0.000000
 
 -0.3684211E+00  0.5263158E-01  0.0000000E+00  0.3499052E-02
    1       -4.424343   1.000000
    2       -0.379588   1.000000
    3        4.160184   1.000000
    4        4.589604   1.000000
    5        7.447836   0.000000
    6        9.069972   0.000000
    7        9.128995   0.000000
    8       13.386972   0.000000
 
 -0.3157895E+00  0.5263158E-01  0.0000000E+00  0.3499052E-02
    1       -4.814761   1.000000
    2        0.363064   1.000000
    3        4.230538   1.000000
    4        4.738895   1.000000
    5        7.562515   0.000000
    6        9.081075   0.000000
    7        9.241832   0.000000
    8       12.978362   0.000000
 
 -0.2631579E+00  0.5263158E-01  0.0000000E+00  0.3499052E-02
    1       -5.184806   1.000000
    2        1.209955   1.000000
    3        4.347092   1.000000
    4        4.916225   1.000000
    5        7.715335   0.000000
    6        9.047863   0.000000
    7        9.302629   0.000000
    8       12.380130   0.000000
 
 -0.2105263E+00  0.5263158E-01  0.0000000E+00  0.3499052E-02
    1       -5.508174   1.000000
    2        2.124912   1.000000
    3        4.508688   1.000000
    4        5.112366   1.000000
    5        7.898591   0.000000
    6        8.919596   0.000000
    7        9.239867   0.000000
    8       11.756379   0.000000
 
 -0.1578947E+00  0.5263158E-01  0.0000000E+00  0.3499052E-02
    1       -5.772477   1.000000
    2        3.076888   1.000000
    3        4.712085   1.000000
    4        5.310410   1.000000
    5        8.096510   0.000000
    6        8.695409   0.000000
    7        9.018413   0.000000
    8       11.050183   0.000000
 
 -0.1052632E+00  0.5263158E-01  0.0000000E+00  0.3499052E-02
    1       -5.971391   1.000000
    2        4.017551   1.000000
    3        4.953350   1.000000
    4        5.481079   1.000000
    5        8.278645   0.000000
    6        8.447983   0.000000
    7        8.691827   0.000000
    8       10.248025   0.000000
 
 -0.5263158E-01  0.5263158E-01  0.0000000E+00  0.1749526E-02
    1       -6.101461   1.000000
    2        4.819163   1.000000
    3        5.247861   1.000000
    4        5.579465   1.000000
    5        8.279555   0.000000
    6        8.355955   0.000000
    7        8.394090   0.000000
    8        9.487212   0.000000
 
  0.1052632E+00  0.1052632E+00  0.0000000E+00  0.8747631E-03
    1       -6.006261   1.000000
    2        4.587140   1.000000
    3        5.014866   1.000000
    4        5.014866   1.000000
    5        7.775373   0.000000
    6        9.024495   0.000000
    7        9.024499   0.000000
    8        9.675247   0.000000
 
  0.1578947E+00  0.1052632E+00  0.0000000E+00  0.3499052E-02
    1       -5.876225   1.000000
    2        3.901433   1.000000
    3        4.781922   1.000000
    4        4.882524   1.000000
    5        7.724746   0.000000
    6        9.107303   0.000000
    7        9.382236   0.000000
    8       10.166589   0.000000
 
  0.2105263E+00  0.1052632E+00  0.0000000E+00  0.3499052E-02
    1       -5.677462   1.000000
    2        3.018633   1.000000
    3        4.568919   1.000000
    4        4.713846   1.000000
    5        7.844014   0.000000
    6        9.023990   0.000000
    7        9.699183   0.000000
    8       10.531169   0.000000
 
  0.2631579E+00  0.1052632E+00  0.0000000E+00  0.3499052E-02
    1       -5.413415   1.000000
    2        2.105203   1.000000
    3        4.391709   1.000000
    4        4.489079   1.000000
    5        7.955069   0.000000
    6        8.998137   0.000000
    7        9.896383   0.000000
    8       10.669488   0.000000
 
  0.3157895E+00  0.1052632E+00  0.0000000E+00  0.3499052E-02
    1       -5.090300   1.000000
    2        1.215919   1.000000
    3        4.251642   1.000000
    4        4.258876   1.000000
    5        7.951239   0.000000
    6        9.021946   0.000000
    7        9.937577   0.000000
    8       10.929299   0.000000
 
  0.3684211E+00  0.1052632E+00  0.0000000E+00  0.3499052E-02
    1       -4.720410   1.000000
    2        0.386048   1.000000
    3        4.028253   1.000000
    4        4.174632   1.000000
    5        7.879197   0.000000
    6        9.012120   0.000000
    7        9.857539   0.000000
    8       11.442826   0.000000
 
  0.4210526E+00  0.1052632E+00  0.0000000E+00  0.3499052E-02
    1       -4.329794   1.000000
    2       -0.345809   1.000000
    3        3.833443   1.000000
    4        4.140367   1.000000
    5        7.804178   0.000000
    6        8.976663   0.000000
    7        9.720925   0.000000
    8       12.148466   0.000000
 
  0.4736842E+00  0.1052632E+00  0.0000000E+00  0.3499052E-02
    1       -3.978948   1.000000
    2       -0.912205   1.000000
    3        3.675664   1.000000
    4        4.155658   1.000000
    5        7.757116   0.000000
    6        8.956893   0.000000
    7        9.578723   0.000000
    8       12.932482   0.000000
 
 -0.4736842E+00  0.1052632E+00  0.0000000E+00  0.3499052E-02
    1       -3.793322   1.000000
    2       -1.183963   1.000000
    3        3.560671   1.000000
    4        4.218647   1.000000
    5        7.749861   0.000000
    6        8.977070   0.000000
    7        9.459955   0.000000
    8       13.575904   0.000000
 
 -0.4210526E+00  0.1052632E+00  0.0000000E+00  0.3499052E-02
    1       -3.892465   1.000000
    2       -1.040332   1.000000
    3        3.492894   1.000000
    4        4.326125   1.000000
    5        7.784903   0.000000
    6        9.045343   0.000000
    7        9.376305   0.000000
    8       13.725468   0.000000
 
 -0.3684211E+00  0.1052632E+00  0.0000000E+00  0.3499052E-02
    1       -4.206528   1.000000
    2       -0.551972   1.000000
    3        3.476089   1.000000
    4        4.473477   1.000000
    5        7.860967   0.000000
    6        9.156654   0.000000
    7        9.324043   0.000000
    8       13.375814   0.000000
 
 -0.3157895E+00  0.1052632E+00  0.0000000E+00  0.3499052E-02
    1       -4.593306   1.000000
    2        0.135396   1.000000
    3        3.513923   1.000000
    4        4.654412   1.000000
    5        7.974523   0.000000
    6        9.281700   0.000000
    7        9.288427   0.000000
    8       12.739068   0.000000
 
 -0.2631579E+00  0.1052632E+00  0.0000000E+00  0.3499052E-02
    1       -4.973784   1.000000
    2        0.935351   1.000000
    3        3.610234   1.000000
    4        4.859498   1.000000
    5        8.119984   0.000000
    6        9.205385   0.000000
    7        9.386503   0.000000
    8       12.083886   0.000000
 
 -0.2105263E+00  0.1052632E+00  0.0000000E+00  0.3499052E-02
    1       -5.313871   1.000000
    2        1.798275   1.000000
    3        3.771781   1.000000
    4        5.074435   1.000000
    5        8.287920   0.000000
    6        9.046245   0.000000
    7        9.353206   0.000000
    8       11.561987   0.000000
 
 -0.1578947E+00  0.1052632E+00  0.0000000E+00  0.3499052E-02
    1       -5.598058   1.000000
    2        2.672818   1.000000
    3        4.016135   1.000000
    4        5.275764   1.000000
    5        8.458224   0.000000
    6        8.808085   0.000000
    7        9.109603   0.000000
    8       11.190554   0.000000
 
 -0.1052632E+00  0.1052632E+00  0.0000000E+00  0.1749526E-02
    1       -5.818621   1.000000
    2        3.458666   1.000000
    3        4.396531   1.000000
    4        5.426745   1.000000
    5        8.551800   0.000000
    6        8.573634   0.000000
    7        8.763308   0.000000
    8       10.781538   0.000000
 
  0.1578947E+00  0.1578947E+00  0.0000000E+00  0.8747631E-03
    1       -5.769404   1.000000
    2        3.720447   1.000000
    3        4.536438   1.000000
    4        4.536439   1.000000
    5        7.402851   0.000000
    6        9.791094   0.000000
    7        9.791097   0.000000
    8        9.890419   0.000000
 
  0.2105263E+00  0.1578947E+00  0.0000000E+00  0.3499052E-02
    1       -5.593392   1.000000
    2        3.090604   1.000000
    3        4.313645   1.000000
    4        4.336737   1.000000
    5        7.348591   0.000000
    6        9.614318   0.000000
    7       10.173585   0.000000
    8       10.175867   0.000000
 
  0.2631579E+00  0.1578947E+00  0.0000000E+00  0.3499052E-02
    1       -5.350897   1.000000
    2        2.293219   1.000000
    3        4.099435   1.000000
    4        4.129221   1.000000
    5        7.486910   0.000000
    6        9.492364   0.000000
    7       10.190819   0.000000
    8       10.446162   0.000000
 
  0.3157895E+00  0.1578947E+00  0.0000000E+00  0.3499052E-02
    1       -5.046897   1.000000
    2        1.461278   1.000000
    3        3.821927   1.000000
    4        3.991927   1.000000
    5        7.635255   0.000000
    6        9.588677   0.000000
    7       10.112907   0.000000
    8       10.549536   0.000000
 
  0.3684211E+00  0.1578947E+00  0.0000000E+00  0.3499052E-02
    1       -4.690953   1.000000
    2        0.652716   1.000000
    3        3.544546   1.000000
    4        3.906380   1.000000
    5        7.689435   0.000000
    6        9.722203   0.000000
    7       10.286674   0.000000
    8       10.499049   0.000000
 
  0.4210526E+00  0.1578947E+00  0.0000000E+00  0.3499052E-02
    1       -4.302738   1.000000
    2       -0.088471   1.000000
    3        3.292257   1.000000
    4        3.874428   1.000000
    5        7.687379   0.000000
    6        9.658997   0.000000
    7       10.360814   0.000000
    8       10.913394   0.000000
 
  0.4736842E+00  0.1578947E+00  0.0000000E+00  0.3499052E-02
    1       -3.927516   1.000000
    2       -0.703630   1.000000
    3        3.078835   1.000000
    4        3.896018   1.000000
    5        7.691155   0.000000
    6        9.577737   0.000000
    7       10.195675   0.000000
    8       11.742097   0.000000
 
 -0.4736842E+00  0.1578947E+00  0.0000000E+00  0.3499052E-02
    1       -3.668558   1.000000
    2       -1.082359   1.000000
    3        2.912728   1.000000
    4        3.969545   1.000000
    5        7.732802   0.000000
    6        9.528716   0.000000
    7       10.040366   0.000000
    8       12.667526   0.000000
 
 -0.4210526E+00  0.1578947E+00  0.0000000E+00  0.3499052E-02
    1       -3.672936   1.000000
    2       -1.074631   1.000000
    3        2.800298   1.000000
    4        4.091972   1.000000
    5        7.822385   0.000000
    6        9.522680   0.000000
    7        9.911815   0.000000
    8       13.614044   0.000000
 
 -0.3684211E+00  0.1578947E+00  0.0000000E+00  0.3499052E-02
    1       -3.937072   1.000000
    2       -0.684921   1.000000
    3        2.747573   1.000000
    4        4.258117   1.000000
    5        7.958086   0.000000
    6        9.560297   0.000000
    7        9.809897   0.000000
    8       13.372512   0.000000
 
 -0.3157895E+00  0.1578947E+00  0.0000000E+00  0.3499052E-02
    1       -4.313170   1.000000
    2       -0.066725   1.000000
    3        2.761736   1.000000
    4        4.460350   1.000000
    5        8.129774   0.000000
    6        9.629233   0.000000
    7        9.713502   0.000000
    8       12.576215   0.000000
 
 -0.2631579E+00  0.1578947E+00  0.0000000E+00  0.3499052E-02
    1       -4.700439   1.000000
    2        0.664726   1.000000
    3        2.855054   1.000000
    4        4.687014   1.000000
    5        8.321063   0.000000
    6        9.577413   0.000000
    7        9.684135   0.000000
    8       11.854034   0.000000
 
 -0.2105263E+00  0.1578947E+00  0.0000000E+00  0.3499052E-02
    1       -5.054860   1.000000
    2        1.430698   1.000000
    3        3.054982   1.000000
    4        4.919927   1.000000
    5        8.505387   0.000000
    6        9.353210   0.000000
    7        9.609996   0.000000
    8       11.360592   0.000000
 
 -0.1578947E+00  0.1578947E+00  0.0000000E+00  0.1749526E-02
    1       -5.357207   1.000000
    2        2.133549   1.000000
    3        3.423551   1.000000
    4        5.130261   1.000000
    5        8.616623   0.000000
    6        9.062639   0.000000
    7        9.327995   0.000000
    8       11.200810   0.000000
 
  0.2105263E+00  0.2105263E+00  0.0000000E+00  0.8747631E-03
    1       -5.439964   1.000000
    2        2.803730   1.000000
    3        4.080379   1.000000
    4        4.080380   1.000000
    5        7.028110   0.000000
    6        9.335740   0.000000
    7       10.644098   0.000000
    8       10.644100   0.000000
 
  0.2631579E+00  0.2105263E+00  0.0000000E+00  0.3499052E-02
    1       -5.219292   1.000000
    2        2.230594   1.000000
    3        3.840029   1.000000
    4        3.885638   1.000000
    5        6.994619   0.000000
    6        9.029740   0.000000
    7       10.897867   0.000000
    8       11.024142   0.000000
 
  0.3157895E+00  0.2105263E+00  0.0000000E+00  0.3499052E-02
    1       -4.935356   1.000000
    2        1.537637   1.000000
    3        3.524346   1.000000
    4        3.738887   1.000000
    5        7.151089   0.000000
    6        8.937089   0.000000
    7       10.883785   0.000000
    8       11.228673   0.000000
 
  0.3684211E+00  0.2105263E+00  0.0000000E+00  0.3499052E-02
    1       -4.595568   1.000000
    2        0.811906   1.000000
    3        3.178504   1.000000
    4        3.645382   1.000000
    5        7.295097   0.000000
    6        9.172939   0.000000
    7       10.771939   0.000000
    8       11.241870   0.000000
 
  0.4210526E+00  0.2105263E+00  0.0000000E+00  0.3499052E-02
    1       -4.214800   1.000000
    2        0.108511   1.000000
    3        2.851043   1.000000
    4        3.607503   1.000000
    5        7.351849   0.000000
    6        9.736441   0.000000
    7       10.642820   0.000000
    8       11.126536   0.000000
 
  0.4736842E+00  0.2105263E+00  0.0000000E+00  0.3499052E-02
    1       -3.826644   1.000000
    2       -0.515328   1.000000
    3        2.567318   1.000000
    4        3.625667   1.000000
    5        7.384428   0.000000
    6       10.443808   0.000000
    7       10.603937   0.000000
    8       10.955747   0.000000
 
 -0.4736842E+00  0.2105263E+00  0.0000000E+00  0.3499052E-02
    1       -3.511822   1.000000
    2       -0.964961   1.000000
    3        2.340312   1.000000
    4        3.698925   1.000000
    5        7.447976   0.000000
    6       10.418536   0.000000
    7       10.778268   0.000000
    8       11.462991   0.000000
 
 -0.4210526E+00  0.2105263E+00  0.0000000E+00  0.3499052E-02
    1       -3.421958   1.000000
    2       -1.082681   1.000000
    3        2.178657   1.000000
    4        3.824345   1.000000
    5        7.562909   0.000000
    6       10.364778   0.000000
    7       10.616017   0.000000
    8       12.470665   0.000000
 
 -0.3684211E+00  0.2105263E+00  0.0000000E+00  0.3499052E-02
    1       -3.623712   1.000000
    2       -0.802797   1.000000
    3        2.091645   1.000000
    4        3.997150   1.000000
    5        7.732020   0.000000
    6       10.344464   0.000000
    7       10.469554   0.000000
    8       13.305058   0.000000
 
 -0.3157895E+00  0.2105263E+00  0.0000000E+00  0.3499052E-02
    1       -3.981758   1.000000
    2       -0.272051   1.000000
    3        2.094102   1.000000
    4        4.209557   1.000000
    5        7.947016   0.000000
    6       10.312874   0.000000
    7       10.346588   0.000000
    8       12.473212   0.000000
 
 -0.2631579E+00  0.2105263E+00  0.0000000E+00  0.3499052E-02
    1       -4.371434   1.000000
    2        0.353750   1.000000
    3        2.216235   1.000000
    4        4.449244   1.000000
    5        8.186872   0.000000
    6       10.085691   0.000000
    7       10.309563   0.000000
    8       11.726550   0.000000
 
 -0.2105263E+00  0.2105263E+00  0.0000000E+00  0.1749526E-02
    1       -4.737019   1.000000
    2        0.952938   1.000000
    3        2.517782   1.000000
    4        4.696472   1.000000
    5        8.408544   0.000000
    6        9.742696   0.000000
    7       10.055265   0.000000
    8       11.335589   0.000000
 
  0.2631579E+00  0.2631579E+00  0.0000000E+00  0.8747631E-03
    1       -5.020195   1.000000
    2        1.871395   1.000000
    3        3.679100   1.000000
    4        3.679102   1.000000
    5        6.699703   0.000000
    6        8.570197   0.000000
    7       11.547251   0.000000
    8       11.547252   0.000000
 
  0.3157895E+00  0.2631579E+00  0.0000000E+00  0.3499052E-02
    1       -4.756721   1.000000
    2        1.342781   1.000000
    3        3.423947   1.000000
    4        3.520230   1.000000
    5        6.700173   0.000000
    6        8.294528   0.000000
    7       11.808176   0.000000
    8       11.908885   0.000000
 
  0.3684211E+00  0.2631579E+00  0.0000000E+00  0.3499052E-02
    1       -4.434572   1.000000
    2        0.746031   1.000000
    3        3.047315   1.000000
    4        3.414918   1.000000
    5        6.871051   0.000000
    6        8.294871   0.000000
    7       11.805721   0.000000
    8       12.038877   0.000000
 
  0.4210526E+00  0.2631579E+00  0.0000000E+00  0.3499052E-02
    1       -4.065017   1.000000
    2        0.134698   1.000000
    3        2.636789   1.000000
    4        3.366139   1.000000
    5        6.996032   0.000000
    6        8.671770   0.000000
    7       11.707266   0.000000
    8       11.978876   0.000000
 
  0.4736842E+00  0.2631579E+00  0.0000000E+00  0.3499052E-02
    1       -3.672730   1.000000
    2       -0.443617   1.000000
    3        2.259641   1.000000
    4        3.375085   1.000000
    5        7.056261   0.000000
    6        9.358401   0.000000
    7       11.590908   0.000000
    8       11.822671   0.000000
 
 -0.4736842E+00  0.2631579E+00  0.0000000E+00  0.3499052E-02
    1       -3.318872   1.000000
    2       -0.912853   1.000000
    3        1.949267   1.000000
    4        3.441006   1.000000
    5        7.128630   0.000000
    6       10.219708   0.000000
    7       11.496789   0.000000
    8       11.634520   0.000000
 
 -0.4210526E+00  0.2631579E+00  0.0000000E+00  0.3499052E-02
    1       -3.144343   1.000000
    2       -1.124669   1.000000
    3        1.723599   1.000000
    4        3.561641   1.000000
    5        7.250218   0.000000
    6       11.075478   0.000000
    7       11.444884   0.000000
    8       11.548399   0.000000
 
 -0.3684211E+00  0.2631579E+00  0.0000000E+00  0.3499052E-02
    1       -3.277651   1.000000
    2       -0.953972   1.000000
    3        1.599479   1.000000
    4        3.732637   1.000000
    5        7.430078   0.000000
    6       11.249603   0.000000
    7       11.250618   0.000000
    8       12.371374   0.000000
 
 -0.3157895E+00  0.2631579E+00  0.0000000E+00  0.3499052E-02
    1       -3.612330   1.000000
    2       -0.529599   1.000000
    3        1.605212   1.000000
    4        3.946712   1.000000
    5        7.662546   0.000000
    6       11.002508   0.000000
    7       11.203870   0.000000
    8       12.434518   0.000000
 
 -0.2631579E+00  0.2631579E+00  0.0000000E+00  0.1749526E-02
    1       -3.999557   1.000000
    2       -0.051191   1.000000
    3        1.792624   1.000000
    4        4.192060   1.000000
    5        7.929232   0.000000
    6       10.608980   0.000000
    7       10.948673   0.000000
    8       11.825501   0.000000
 
  0.3157895E+00  0.3157895E+00  0.0000000E+00  0.8747631E-03
    1       -4.513307   1.000000
    2        0.940166   1.000000
    3        3.347878   1.000000
    4        3.347880   1.000000
    5        6.446449   0.000000
    6        7.858347   0.000000
    7       12.483670   0.000000
    8       12.483670   0.000000
 
  0.3684211E+00  0.3157895E+00  0.0000000E+00  0.3499052E-02
    1       -4.209465   1.000000
    2        0.446771   1.000000
    3        3.097509   1.000000
    4        3.228633   1.000000
    5        6.487730   0.000000
    6        7.652020   0.000000
    7       12.759896   0.000000
    8       12.818403   0.000000
 
  0.4210526E+00  0.3157895E+00  0.0000000E+00  0.3499052E-02
    1       -3.853668   1.000000
    2       -0.072136   1.000000
    3        2.689351   1.000000
    4        3.166297   1.000000
    5        6.662638   0.000000
    6        7.777764   0.000000
    7       12.771652   0.000000
    8       12.878269   0.000000
 
  0.4736842E+00  0.3157895E+00  0.0000000E+00  0.3499052E-02
    1       -3.463817   1.000000
    2       -0.578586   1.000000
    3        2.240479   1.000000
    4        3.162389   1.000000
    5        6.765666   0.000000
    6        8.309791   0.000000
    7       12.683953   0.000000
    8       12.765981   0.000000
 
 -0.4736842E+00  0.3157895E+00  0.0000000E+00  0.3499052E-02
    1       -3.085245   1.000000
    2       -1.022296   1.000000
    3        1.836726   1.000000
    4        3.216741   1.000000
    5        6.844245   0.000000
    6        9.109577   0.000000
    7       12.574000   0.000000
    8       12.579445   0.000000
 
 -0.4210526E+00  0.3157895E+00  0.0000000E+00  0.3499052E-02
    1       -2.843138   1.000000
    2       -1.281588   1.000000
    3        1.528418   1.000000
    4        3.327649   1.000000
    5        6.964635   0.000000
    6       10.055893   0.000000
    7       12.362501   0.000000
    8       12.476584   0.000000
 
 -0.3684211E+00  0.3157895E+00  0.0000000E+00  0.3499052E-02
    1       -2.918631   1.000000
    2       -1.190751   1.000000
    3        1.354244   1.000000
    4        3.491310   1.000000
    5        7.144676   0.000000
    6       11.074289   0.000000
    7       12.091137   0.000000
    8       12.412369   0.000000
 
 -0.3157895E+00  0.3157895E+00  0.0000000E+00  0.1749526E-02
    1       -3.233144   1.000000
    2       -0.864851   1.000000
    3        1.361626   1.000000
    4        3.701298   1.000000
    5        7.382370   0.000000
    6       11.651633   0.000000
    7       11.808347   0.000000
    8       12.563234   0.000000
 
  0.3684211E+00  0.3684211E+00  0.0000000E+00  0.8747631E-03
    1       -3.923450   1.000000
    2        0.022892   1.000000
    3        3.094499   1.000000
    4        3.094501   1.000000
    5        6.286762   0.000000
    6        7.264966   0.000000
    7       13.445528   0.000000
    8       13.445529   0.000000
 
  0.4210526E+00  0.3684211E+00  0.0000000E+00  0.3499052E-02
    1       -3.582645   1.000000
    2       -0.439425   1.000000
    3        2.863310   1.000000
    4        3.017024   1.000000
    5        6.371232   0.000000
    6        7.141206   0.000000
    7       13.734446   0.000000
    8       13.748774   0.000000
 
  0.4736842E+00  0.3684211E+00  0.0000000E+00  0.3499052E-02
    1       -3.199808   1.000000
    2       -0.895872   1.000000
    3        2.453199   1.000000
    4        2.998261   1.000000
    5        6.530721   0.000000
    6        7.416830   0.000000
    7       13.746322   0.000000
    8       13.758822   0.000000
 