 vasp.6.2.0 18Jan21 (build Aug 12 2022 13:00:08) complex                        
  
 executed on             LinuxIFC date 2024.11.03  22:04:54
 running on    4 total cores
 distrk:  each k-point on    4 cores,    1 groups
 distr:  one band on NCORE=   1 cores,    4 groups


--------------------------------------------------------------------------------------------------------


 INCAR:
   ISTART = 0            (Read existing wavefunction, if there)
   ISPIN = 1            (Non-Spin polarised DFT)
   LREAL = .FALSE.       (Projection operators: automatic)
   LWAVE = .FALSE.        (Write WAVECAR or not)
   LCHARG = .FALSE.        (Write CHGCAR or not)
   ADDGRID = .TRUE.        (Increase grid, helps GGA convergence)
   LASPH = .TRUE.        (Give more accurate total energies and band structure calculations)
   PREC = Accurate      (Accurate strictly avoids any aliasing or wrap around errors)
   ENCUT = 350          (Cut-off energy for plane wave basis set, in eV)
   ISMEAR = 0            (Gaussian smearing, metals:1)
   SIGMA = 0.05         (Smearing value in eV, metals:0.2)
   NELM = 90           (Max electronic SCF steps)
   NELMIN = 6            (Min electronic SCF steps)
   EDIFF = 1E-06        (SCF energy convergence, in eV)
   NSW = 100          (Max ionic steps)
   IBRION = 2            (Algorithm: 0-MD, 1-Quasi-New, 2-CG)
   ISIF = 3            (Stress/relaxation: 2-Ions, 3-Shape/Ions/V, 4-Shape/Ions)
   EDIFFG = -2E-03        (Ionic convergence, eV/AA)
   ISYM = 2              (Symmetry: 0\=none, 2\=GGA, 3\=hybrids)

 POTCAR:    PAW_PBE Si 05Jan2001                  
 POTCAR:    PAW_PBE Si 05Jan2001                  
   VRHFIN =Si: s2p2                                                                                 
   LEXCH  = PE                                                                                      
   EATOM  =   103.0669 eV,    7.5752 Ry                                                             
                                                                                                    
   TITEL  = PAW_PBE Si 05Jan2001                                                                    
   LULTRA =        F    use ultrasoft PP ?                                                          
   IUNSCR =        1    unscreen: 0-lin 1-nonlin 2-no                                               
   RPACOR =    1.500    partial core radius                                                         
   POMASS =   28.085; ZVAL   =    4.000    mass and valenz                                          
   RCORE  =    1.900    outmost cutoff radius                                                       
   RWIGS  =    2.480; RWIGS  =    1.312    wigner-seitz radius (au A)                               
   ENMAX  =  245.345; ENMIN  =  184.009 eV                                                          
   ICORE  =        2    local potential                                                             
   LCOR   =        T    correct aug charges                                                         
   LPAW   =        T    paw PP                                                                      
   EAUG   =  322.069                                                                                
   DEXC   =    0.000                                                                                
   RMAX   =    1.950    core radius for proj-oper                                                   
   RAUG   =    1.300    factor for augmentation sphere                                              
   RDEP   =    1.993    radius for radial grids                                                     
   RDEPT  =    1.837    core radius for aug-charge                                                  
                                                                                                    
   Atomic configuration                                                                             
    6 entries                                                                                       
     n  l   j            E        occ.                                                              
     1  0  0.50     -1785.8828   2.0000                                                             
     2  0  0.50      -139.4969   2.0000                                                             
     2  1  1.50       -95.5546   6.0000                                                             
     3  0  0.50       -10.8127   2.0000                                                             
     3  1  0.50        -4.0811   2.0000                                                             
     3  2  1.50        -4.0817   0.0000                                                             
   Description                                                                                      
     l       E           TYP  RCUT    TYP  RCUT                                                     
     0    -10.8127223     23  1.900                                                                 
     0     -7.6451159     23  1.900                                                                 
     1     -4.0811372     23  1.900                                                                 
     1      2.4879257     23  1.900                                                                 
     2     -4.0817478      7  1.900                                                                 
  local pseudopotential read in
  partial core-charges read in
  partial kinetic energy density read in
  atomic valenz-charges read in
  non local Contribution for L=           0  read in
    real space projection operators read in
  non local Contribution for L=           0  read in
    real space projection operators read in
  non local Contribution for L=           1  read in
    real space projection operators read in
  non local Contribution for L=           1  read in
    real space projection operators read in
    PAW grid and wavefunctions read in
 
   number of l-projection  operators is LMAX  =           4
   number of lm-projection operators is LMMAX =           8
 
  PAW_PBE Si 05Jan2001                  :
 energy of atom  1       EATOM= -103.0669
 kinetic energy error for atom=    0.0013 (will be added to EATOM!!)
 
 
 POSCAR: Si2
  positions in direct lattice
  No initial velocities read in
 exchange correlation table for  LEXCH =        8
   RHO(1)=    0.500       N(1)  =     2000
   RHO(2)=  100.500       N(2)  =     4000
 


--------------------------------------------------------------------------------------------------------


 ion  position               nearest neighbor table
   1  0.875  0.875  0.875-   2 2.36   2 2.36   2 2.36   2 2.36
   2  0.125  0.125  0.125-   1 2.36   1 2.36   1 2.36   1 2.36
 
  LATTYP: Found a face centered cubic cell.
 ALAT       =     5.4437031493
  
  Lattice vectors:
  
 A1 = (   3.3335730000,   0.0000000000,   1.9246390000)
 A2 = (   1.1111910000,   3.1429240000,   1.9246390000)
 A3 = (   0.0000000000,   0.0000000000,   3.8492780000)


Analysis of symmetry for initial positions (statically):
=====================================================================
 Subroutine PRICEL returns:
 Original cell was already a primitive cell.
 

 Routine SETGRP: Setting up the symmetry group for a 
 face centered cubic supercell.


 Subroutine GETGRP returns: Found 48 space group operations
 (whereof 12 operations were pure point group operations)
 out of a pool of 48 trial point group operations.


The static configuration has the point symmetry D_3d.
 The point group associated with its full space group is O_h .


Analysis of symmetry for dynamics (positions and initial velocities):
=====================================================================
 Subroutine PRICEL returns:
 Original cell was already a primitive cell.
 

 Routine SETGRP: Setting up the symmetry group for a 
 face centered cubic supercell.


 Subroutine GETGRP returns: Found 48 space group operations
 (whereof 12 operations were pure point group operations)
 out of a pool of 48 trial point group operations.


The dynamic configuration has the point symmetry D_3d.
 The point group associated with its full space group is O_h .


 Subroutine INISYM returns: Found 48 space group operations
 (whereof 12 operations are pure point group operations),
 and found     1 'primitive' translations


----------------------------------------------------------------------------------------

                                     Primitive cell                                     

  volume of cell :      40.3295

  direct lattice vectors                    reciprocal lattice vectors
     3.333573000  0.000000000  1.924639000     0.299978432 -0.106058350  0.000000000
     1.111191000  3.142924000  1.924639000     0.000000000  0.318175050  0.000000000
     0.000000000  0.000000000  3.849278000    -0.149989216 -0.106058350  0.259788979

  length of vectors
     3.849278403  3.849279412  3.849278000     0.318175161  0.318175050  0.318175190

  position of ions in fractional coordinates (direct lattice)
     0.875000000  0.875000000  0.875000000
     0.125000000  0.125000000  0.125000000

  ion indices of the primitive-cell ions
   primitive index   ion index
                 1           1
                 2           2

----------------------------------------------------------------------------------------

 
 
 KPOINTS: Automatic                               

Automatic generation of k-mesh.
 Grid dimensions read from file:
 generate k-points for:   19   19   19

 Generating k-lattice:

  Cartesian coordinates                     Fractional coordinates (reciprocal lattice)
     0.015788339 -0.005582018  0.000000000     0.052631579  0.000000000  0.000000000
     0.000000000  0.016746055  0.000000000     0.000000000  0.052631579  0.000000000
    -0.007894169 -0.005582018  0.013673104     0.000000000  0.000000000  0.052631579

  Length of vectors
     0.016746061  0.016746055  0.016746063

  Shift w.r.t. Gamma in fractional coordinates (k-lattice)
     0.000000000  0.000000000  0.000000000

 
 Subroutine IBZKPT returns following result:
 ===========================================
 
 Found    220 irreducible k-points:
 
 Following reciprocal coordinates:
            Coordinates               Weight
  0.000000  0.000000  0.000000      1.000000
  0.052632 -0.000000  0.000000      8.000000
  0.105263 -0.000000  0.000000      8.000000
  0.157895  0.000000  0.000000      8.000000
  0.210526  0.000000  0.000000      8.000000
  0.263158  0.000000  0.000000      8.000000
  0.315789 -0.000000  0.000000      8.000000
  0.368421  0.000000  0.000000      8.000000
  0.421053  0.000000  0.000000      8.000000
  0.473684  0.000000  0.000000      8.000000
  0.052632  0.052632  0.000000      6.000000
  0.105263  0.052632  0.000000     24.000000
  0.157895  0.052632  0.000000     24.000000
  0.210526  0.052632  0.000000     24.000000
  0.263158  0.052632  0.000000     24.000000
  0.315789  0.052632  0.000000     24.000000
  0.368421  0.052632  0.000000     24.000000
  0.421053  0.052632  0.000000     24.000000
  0.473684  0.052632  0.000000     24.000000
 -0.473684  0.052632  0.000000     24.000000
 -0.421053  0.052632  0.000000     24.000000
 -0.368421  0.052632  0.000000     24.000000
 -0.315789  0.052632  0.000000     24.000000
 -0.263158  0.052632  0.000000     24.000000
 -0.210526  0.052632  0.000000     24.000000
 -0.157895  0.052632  0.000000     24.000000
 -0.105263  0.052632  0.000000     24.000000
 -0.052632  0.052632  0.000000     12.000000
  0.105263  0.105263  0.000000      6.000000
  0.157895  0.105263  0.000000     24.000000
  0.210526  0.105263  0.000000     24.000000
  0.263158  0.105263  0.000000     24.000000
  0.315789  0.105263  0.000000     24.000000
  0.368421  0.105263  0.000000     24.000000
  0.421053  0.105263  0.000000     24.000000
  0.473684  0.105263  0.000000     24.000000
 -0.473684  0.105263  0.000000     24.000000
 -0.421053  0.105263  0.000000     24.000000
 -0.368421  0.105263  0.000000     24.000000
 -0.315789  0.105263  0.000000     24.000000
 -0.263158  0.105263  0.000000     24.000000
 -0.210526  0.105263  0.000000     24.000000
 -0.157895  0.105263  0.000000     24.000000
 -0.105263  0.105263  0.000000     12.000000
  0.157895  0.157895  0.000000      6.000000
  0.210526  0.157895  0.000000     24.000000
  0.263158  0.157895  0.000000     24.000000
  0.315789  0.157895  0.000000     24.000000
  0.368421  0.157895  0.000000     24.000000
  0.421053  0.157895  0.000000     24.000000
  0.473684  0.157895  0.000000     24.000000
 -0.473684  0.157895  0.000000     24.000000
 -0.421053  0.157895  0.000000     24.000000
 -0.368421  0.157895  0.000000     24.000000
 -0.315789  0.157895  0.000000     24.000000
 -0.263158  0.157895  0.000000     24.000000
 -0.210526  0.157895  0.000000     24.000000
 -0.157895  0.157895  0.000000     12.000000
  0.210526  0.210526  0.000000      6.000000
  0.263158  0.210526  0.000000     24.000000
  0.315789  0.210526  0.000000     24.000000
  0.368421  0.210526  0.000000     24.000000
  0.421053  0.210526  0.000000     24.000000
  0.473684  0.210526  0.000000     24.000000
 -0.473684  0.210526  0.000000     24.000000
 -0.421053  0.210526  0.000000     24.000000
 -0.368421  0.210526  0.000000     24.000000
 -0.315789  0.210526  0.000000     24.000000
 -0.263158  0.210526  0.000000     24.000000
 -0.210526  0.210526  0.000000     12.000000
  0.263158  0.263158  0.000000      6.000000
  0.315789  0.263158  0.000000     24.000000
  0.368421  0.263158  0.000000     24.000000
  0.421053  0.263158  0.000000     24.000000
  0.473684  0.263158  0.000000     24.000000
 -0.473684  0.263158  0.000000     24.000000
 -0.421053  0.263158  0.000000     24.000000
 -0.368421  0.263158  0.000000     24.000000
 -0.315789  0.263158  0.000000     24.000000
 -0.263158  0.263158  0.000000     12.000000
  0.315789  0.315789  0.000000      6.000000
  0.368421  0.315789  0.000000     24.000000
  0.421053  0.315789  0.000000     24.000000
  0.473684  0.315789  0.000000     24.000000
 -0.473684  0.315789  0.000000     24.000000
 -0.421053  0.315789  0.000000     24.000000
 -0.368421  0.315789  0.000000     24.000000
 -0.315789  0.315789  0.000000     12.000000
  0.368421  0.368421  0.000000      6.000000
  0.421053  0.368421  0.000000     24.000000
  0.473684  0.368421  0.000000     24.000000
 -0.473684  0.368421  0.000000     24.000000
 -0.421053  0.368421  0.000000     24.000000
 -0.368421  0.368421  0.000000     12.000000
  0.421053  0.421053  0.000000      6.000000
  0.473684  0.421053  0.000000     24.000000
 -0.473684  0.421053  0.000000     24.000000
 -0.421053  0.421053  0.000000     12.000000
  0.473684  0.473684  0.000000      6.000000
 -0.473684  0.473684  0.000000     12.000000
  0.157895  0.105263  0.052632     24.000000
  0.210526  0.105263  0.052632     48.000000
  0.263158  0.105263  0.052632     48.000000
  0.315789  0.105263  0.052632     48.000000
  0.368421  0.105263  0.052632     48.000000
  0.421053  0.105263  0.052632     48.000000
  0.473684  0.105263  0.052632     48.000000
 -0.473684  0.105263  0.052632     48.000000
  0.210526  0.157895  0.052632     24.000000
  0.263158  0.157895  0.052632     48.000000
  0.315789  0.157895  0.052632     48.000000
  0.368421  0.157895  0.052632     48.000000
  0.421053  0.157895  0.052632     48.000000
  0.473684  0.157895  0.052632     48.000000
 -0.473684  0.157895  0.052632     48.000000
 -0.421053  0.157895  0.052632     48.000000
 -0.368421  0.157895  0.052632     48.000000
 -0.315789  0.157895  0.052632     48.000000
 -0.263158  0.157895  0.052632     48.000000
 -0.210526  0.157895  0.052632     48.000000
 -0.157895  0.157895  0.052632     48.000000
 -0.105263  0.157895  0.052632     24.000000
  0.263158  0.210526  0.052632     24.000000
  0.315789  0.210526  0.052632     48.000000
  0.368421  0.210526  0.052632     48.000000
  0.421053  0.210526  0.052632     48.000000
  0.473684  0.210526  0.052632     48.000000
 -0.473684  0.210526  0.052632     48.000000
 -0.421053  0.210526  0.052632     48.000000
 -0.368421  0.210526  0.052632     48.000000
 -0.315789  0.210526  0.052632     48.000000
 -0.263158  0.210526  0.052632     48.000000
 -0.210526  0.210526  0.052632     48.000000
 -0.157895  0.210526  0.052632     24.000000
  0.315789  0.263158  0.052632     24.000000
  0.368421  0.263158  0.052632     48.000000
  0.421053  0.263158  0.052632     48.000000
  0.473684  0.263158  0.052632     48.000000
 -0.473684  0.263158  0.052632     48.000000
 -0.421053  0.263158  0.052632     48.000000
 -0.368421  0.263158  0.052632     48.000000
 -0.315789  0.263158  0.052632     48.000000
 -0.263158  0.263158  0.052632     48.000000
 -0.210526  0.263158  0.052632     24.000000
  0.368421  0.315789  0.052632     24.000000
  0.421053  0.315789  0.052632     48.000000
  0.473684  0.315789  0.052632     48.000000
 -0.473684  0.315789  0.052632     48.000000
 -0.421053  0.315789  0.052632     48.000000
 -0.368421  0.315789  0.052632     48.000000
 -0.315789  0.315789  0.052632     48.000000
 -0.263158  0.315789  0.052632     24.000000
  0.421053  0.368421  0.052632     24.000000
  0.473684  0.368421  0.052632     48.000000
 -0.473684  0.368421  0.052632     48.000000
 -0.421053  0.368421  0.052632     48.000000
 -0.368421  0.368421  0.052632     48.000000
 -0.315789  0.368421  0.052632     24.000000
  0.473684  0.421053  0.052632     24.000000
 -0.473684  0.421053  0.052632     48.000000
 -0.421053  0.421053  0.052632     48.000000
 -0.368421  0.421053  0.052632     24.000000
 -0.473684  0.473684  0.052632     24.000000
 -0.421053  0.473684  0.052632     24.000000
  0.315789  0.210526  0.105263     24.000000
  0.368421  0.210526  0.105263     48.000000
  0.421053  0.210526  0.105263     48.000000
  0.473684  0.210526  0.105263     48.000000
 -0.473684  0.210526  0.105263     48.000000
 -0.421053  0.210526  0.105263     48.000000
  0.368421  0.263158  0.105263     24.000000
  0.421053  0.263158  0.105263     48.000000
  0.473684  0.263158  0.105263     48.000000
 -0.473684  0.263158  0.105263     48.000000
 -0.421053  0.263158  0.105263     48.000000
 -0.368421  0.263158  0.105263     48.000000
 -0.315789  0.263158  0.105263     48.000000
 -0.263158  0.263158  0.105263     48.000000
 -0.210526  0.263158  0.105263     48.000000
 -0.157895  0.263158  0.105263     24.000000
  0.421053  0.315789  0.105263     24.000000
  0.473684  0.315789  0.105263     48.000000
 -0.473684  0.315789  0.105263     48.000000
 -0.421053  0.315789  0.105263     48.000000
 -0.368421  0.315789  0.105263     48.000000
 -0.315789  0.315789  0.105263     48.000000
 -0.263158  0.315789  0.105263     48.000000
 -0.210526  0.315789  0.105263     24.000000
  0.473684  0.368421  0.105263     24.000000
 -0.473684  0.368421  0.105263     48.000000
 -0.421053  0.368421  0.105263     48.000000
 -0.368421  0.368421  0.105263     48.000000
 -0.315789  0.368421  0.105263     48.000000
 -0.263158  0.368421  0.105263     24.000000
 -0.473684  0.421053  0.105263     24.000000
 -0.421053  0.421053  0.105263     48.000000
 -0.368421  0.421053  0.105263     48.000000
 -0.315789  0.421053  0.105263     24.000000
 -0.421053  0.473684  0.105263     24.000000
 -0.368421  0.473684  0.105263     24.000000
  0.473684  0.315789  0.157895     24.000000
 -0.473684  0.315789  0.157895     48.000000
 -0.421053  0.315789  0.157895     48.000000
 -0.368421  0.315789  0.157895     48.000000
 -0.473684  0.368421  0.157895     24.000000
 -0.421053  0.368421  0.157895     48.000000
 -0.368421  0.368421  0.157895     48.000000
 -0.315789  0.368421  0.157895     48.000000
 -0.263158  0.368421  0.157895     48.000000
 -0.210526  0.368421  0.157895     24.000000
 -0.421053  0.421053  0.157895     24.000000
 -0.368421  0.421053  0.157895     48.000000
 -0.315789  0.421053  0.157895     48.000000
 -0.263158  0.421053  0.157895     24.000000
 -0.368421  0.473684  0.157895     24.000000
 -0.315789  0.473684  0.157895     24.000000
 -0.368421  0.421053  0.210526     24.000000
 -0.315789  0.421053  0.210526     48.000000
 -0.315789  0.473684  0.210526     24.000000
 -0.263158  0.473684  0.210526     24.000000
 
 Following cartesian coordinates:
            Coordinates               Weight
  0.000000  0.000000  0.000000      1.000000
  0.015788 -0.005582  0.000000      8.000000
  0.031577 -0.011164  0.000000      8.000000
  0.047365 -0.016746  0.000000      8.000000
  0.063153 -0.022328  0.000000      8.000000
  0.078942 -0.027910  0.000000      8.000000
  0.094730 -0.033492  0.000000      8.000000
  0.110518 -0.039074  0.000000      8.000000
  0.126307 -0.044656  0.000000      8.000000
  0.142095 -0.050238  0.000000      8.000000
  0.015788  0.011164  0.000000      6.000000
  0.031577  0.005582  0.000000     24.000000
  0.047365  0.000000  0.000000     24.000000
  0.063153 -0.005582  0.000000     24.000000
  0.078942 -0.011164  0.000000     24.000000
  0.094730 -0.016746  0.000000     24.000000
  0.110518 -0.022328  0.000000     24.000000
  0.126307 -0.027910  0.000000     24.000000
  0.142095 -0.033492  0.000000     24.000000
 -0.142095  0.066984  0.000000     24.000000
 -0.126307  0.061402  0.000000     24.000000
 -0.110518  0.055820  0.000000     24.000000
 -0.094730  0.050238  0.000000     24.000000
 -0.078942  0.044656  0.000000     24.000000
 -0.063153  0.039074  0.000000     24.000000
 -0.047365  0.033492  0.000000     24.000000
 -0.031577  0.027910  0.000000     24.000000
 -0.015788  0.022328  0.000000     12.000000
  0.031577  0.022328  0.000000      6.000000
  0.047365  0.016746  0.000000     24.000000
  0.063153  0.011164  0.000000     24.000000
  0.078942  0.005582  0.000000     24.000000
  0.094730  0.000000  0.000000     24.000000
  0.110518 -0.005582  0.000000     24.000000
  0.126307 -0.011164  0.000000     24.000000
  0.142095 -0.016746  0.000000     24.000000
 -0.142095  0.083730  0.000000     24.000000
 -0.126307  0.078148  0.000000     24.000000
 -0.110518  0.072566  0.000000     24.000000
 -0.094730  0.066984  0.000000     24.000000
 -0.078942  0.061402  0.000000     24.000000
 -0.063153  0.055820  0.000000     24.000000
 -0.047365  0.050238  0.000000     24.000000
 -0.031577  0.044656  0.000000     12.000000
  0.047365  0.033492  0.000000      6.000000
  0.063153  0.027910  0.000000     24.000000
  0.078942  0.022328  0.000000     24.000000
  0.094730  0.016746  0.000000     24.000000
  0.110518  0.011164  0.000000     24.000000
  0.126307  0.005582  0.000000     24.000000
  0.142095 -0.000000  0.000000     24.000000
 -0.142095  0.100476  0.000000     24.000000
 -0.126307  0.094894  0.000000     24.000000
 -0.110518  0.089312  0.000000     24.000000
 -0.094730  0.083730  0.000000     24.000000
 -0.078942  0.078148  0.000000     24.000000
 -0.063153  0.072566  0.000000     24.000000
 -0.047365  0.066984  0.000000     12.000000
  0.063153  0.044656  0.000000      6.000000
  0.078942  0.039074  0.000000     24.000000
  0.094730  0.033492  0.000000     24.000000
  0.110518  0.027910  0.000000     24.000000
  0.126307  0.022328  0.000000     24.000000
  0.142095  0.016746  0.000000     24.000000
 -0.142095  0.117222  0.000000     24.000000
 -0.126307  0.111640  0.000000     24.000000
 -0.110518  0.106058  0.000000     24.000000
 -0.094730  0.100476  0.000000     24.000000
 -0.078942  0.094894  0.000000     24.000000
 -0.063153  0.089312  0.000000     12.000000
  0.078942  0.055820  0.000000      6.000000
  0.094730  0.050238  0.000000     24.000000
  0.110518  0.044656  0.000000     24.000000
  0.126307  0.039074  0.000000     24.000000
  0.142095  0.033492  0.000000     24.000000
 -0.142095  0.133968  0.000000     24.000000
 -0.126307  0.128386  0.000000     24.000000
 -0.110518  0.122804  0.000000     24.000000
 -0.094730  0.117222  0.000000     24.000000
 -0.078942  0.111640  0.000000     12.000000
  0.094730  0.066984  0.000000      6.000000
  0.110518  0.061402  0.000000     24.000000
  0.126307  0.055820  0.000000     24.000000
  0.142095  0.050238  0.000000     24.000000
 -0.142095  0.150714  0.000000     24.000000
 -0.126307  0.145132  0.000000     24.000000
 -0.110518  0.139550  0.000000     24.000000
 -0.094730  0.133968  0.000000     12.000000
  0.110518  0.078148  0.000000      6.000000
  0.126307  0.072566  0.000000     24.000000
  0.142095  0.066984  0.000000     24.000000
 -0.142095  0.167461  0.000000     24.000000
 -0.126307  0.161879  0.000000     24.000000
 -0.110518  0.156297  0.000000     12.000000
  0.126307  0.089312  0.000000      6.000000
  0.142095  0.083730  0.000000     24.000000
 -0.142095  0.184207  0.000000     24.000000
 -0.126307  0.178625  0.000000     12.000000
  0.142095  0.100476  0.000000      6.000000
 -0.142095  0.200953  0.000000     12.000000
  0.039471  0.011164  0.013673     24.000000
  0.055259  0.005582  0.013673     48.000000
  0.071048  0.000000  0.013673     48.000000
  0.086836 -0.005582  0.013673     48.000000
  0.102624 -0.011164  0.013673     48.000000
  0.118413 -0.016746  0.013673     48.000000
  0.134201 -0.022328  0.013673     48.000000
 -0.149989  0.078148  0.013673     48.000000
  0.055259  0.022328  0.013673     24.000000
  0.071048  0.016746  0.013673     48.000000
  0.086836  0.011164  0.013673     48.000000
  0.102624  0.005582  0.013673     48.000000
  0.118413 -0.000000  0.013673     48.000000
  0.134201 -0.005582  0.013673     48.000000
 -0.149989  0.094894  0.013673     48.000000
 -0.134201  0.089312  0.013673     48.000000
 -0.118413  0.083730  0.013673     48.000000
 -0.102624  0.078148  0.013673     48.000000
 -0.086836  0.072566  0.013673     48.000000
 -0.071048  0.066984  0.013673     48.000000
 -0.055259  0.061402  0.013673     48.000000
 -0.039471  0.055820  0.013673     24.000000
  0.071048  0.033492  0.013673     24.000000
  0.086836  0.027910  0.013673     48.000000
  0.102624  0.022328  0.013673     48.000000
  0.118413  0.016746  0.013673     48.000000
  0.134201  0.011164  0.013673     48.000000
 -0.149989  0.111640  0.013673     48.000000
 -0.134201  0.106058  0.013673     48.000000
 -0.118413  0.100476  0.013673     48.000000
 -0.102624  0.094894  0.013673     48.000000
 -0.086836  0.089312  0.013673     48.000000
 -0.071048  0.083730  0.013673     48.000000
 -0.055259  0.078148  0.013673     24.000000
  0.086836  0.044656  0.013673     24.000000
  0.102624  0.039074  0.013673     48.000000
  0.118413  0.033492  0.013673     48.000000
  0.134201  0.027910  0.013673     48.000000
 -0.149989  0.128386  0.013673     48.000000
 -0.134201  0.122804  0.013673     48.000000
 -0.118413  0.117222  0.013673     48.000000
 -0.102624  0.111640  0.013673     48.000000
 -0.086836  0.106058  0.013673     48.000000
 -0.071048  0.100476  0.013673     24.000000
  0.102624  0.055820  0.013673     24.000000
  0.118413  0.050238  0.013673     48.000000
  0.134201  0.044656  0.013673     48.000000
 -0.149989  0.145132  0.013673     48.000000
 -0.134201  0.139550  0.013673     48.000000
 -0.118413  0.133968  0.013673     48.000000
 -0.102624  0.128386  0.013673     48.000000
 -0.086836  0.122804  0.013673     24.000000
  0.118413  0.066984  0.013673     24.000000
  0.134201  0.061402  0.013673     48.000000
 -0.149989  0.161879  0.013673     48.000000
 -0.134201  0.156297  0.013673     48.000000
 -0.118413  0.150714  0.013673     48.000000
 -0.102624  0.145132  0.013673     24.000000
  0.134201  0.078148  0.013673     24.000000
 -0.149989  0.178625  0.013673     48.000000
 -0.134201  0.173043  0.013673     48.000000
 -0.118413  0.167461  0.013673     24.000000
 -0.149989  0.195371  0.013673     24.000000
 -0.134201  0.189789  0.013673     24.000000
  0.078942  0.022328  0.027346     24.000000
  0.094730  0.016746  0.027346     48.000000
  0.110518  0.011164  0.027346     48.000000
  0.126307  0.005582  0.027346     48.000000
 -0.157883  0.106058  0.027346     48.000000
 -0.142095  0.100476  0.027346     48.000000
  0.094730  0.033492  0.027346     24.000000
  0.110518  0.027910  0.027346     48.000000
  0.126307  0.022328  0.027346     48.000000
 -0.157883  0.122804  0.027346     48.000000
 -0.142095  0.117222  0.027346     48.000000
 -0.126307  0.111640  0.027346     48.000000
 -0.110518  0.106058  0.027346     48.000000
 -0.094730  0.100476  0.027346     48.000000
 -0.078942  0.094894  0.027346     48.000000
 -0.063153  0.089312  0.027346     24.000000
  0.110518  0.044656  0.027346     24.000000
  0.126307  0.039074  0.027346     48.000000
 -0.157883  0.139550  0.027346     48.000000
 -0.142095  0.133968  0.027346     48.000000
 -0.126307  0.128386  0.027346     48.000000
 -0.110518  0.122804  0.027346     48.000000
 -0.094730  0.117222  0.027346     48.000000
 -0.078942  0.111640  0.027346     24.000000
  0.126307  0.055820  0.027346     24.000000
 -0.157883  0.156297  0.027346     48.000000
 -0.142095  0.150714  0.027346     48.000000
 -0.126307  0.145132  0.027346     48.000000
 -0.110518  0.139550  0.027346     48.000000
 -0.094730  0.133968  0.027346     24.000000
 -0.157883  0.173043  0.027346     24.000000
 -0.142095  0.167461  0.027346     48.000000
 -0.126307  0.161879  0.027346     48.000000
 -0.110518  0.156297  0.027346     24.000000
 -0.142095  0.184207  0.027346     24.000000
 -0.126307  0.178625  0.027346     24.000000
  0.118413  0.033492  0.041019     24.000000
 -0.165778  0.133968  0.041019     48.000000
 -0.149989  0.128386  0.041019     48.000000
 -0.134201  0.122804  0.041019     48.000000
 -0.165778  0.150714  0.041019     24.000000
 -0.149989  0.145132  0.041019     48.000000
 -0.134201  0.139550  0.041019     48.000000
 -0.118413  0.133968  0.041019     48.000000
 -0.102624  0.128386  0.041019     48.000000
 -0.086836  0.122804  0.041019     24.000000
 -0.149989  0.161879  0.041019     24.000000
 -0.134201  0.156297  0.041019     48.000000
 -0.118413  0.150714  0.041019     48.000000
 -0.102624  0.145132  0.041019     24.000000
 -0.134201  0.173043  0.041019     24.000000
 -0.118413  0.167461  0.041019     24.000000
 -0.142095  0.150714  0.054692     24.000000
 -0.126307  0.145132  0.054692     48.000000
 -0.126307  0.161879  0.054692     24.000000
 -0.110518  0.156297  0.054692     24.000000
 


--------------------------------------------------------------------------------------------------------




 Dimension of arrays:
   k-points           NKPTS =    220   k-points in BZ     NKDIM =    220   number of bands    NBANDS=      8
   number of dos      NEDOS =    301   number of ions     NIONS =      2
   non local maximal  LDIM  =      4   non local SUM 2l+1 LMDIM =      8
   total plane-waves  NPLWV =  13824
   max r-space proj   IRMAX =      1   max aug-charges    IRDMAX=  91874
   dimension x,y,z NGX =    24 NGY =   24 NGZ =   24
   dimension x,y,z NGXF=    48 NGYF=   48 NGZF=   48
   support grid    NGXF=    96 NGYF=   96 NGZF=   96
   ions per type =               2
   NGX,Y,Z   is equivalent  to a cutoff of  10.37, 10.37, 10.37 a.u.
   NGXF,Y,Z  is equivalent  to a cutoff of  20.73, 20.73, 20.73 a.u.

 SYSTEM =  unknown system                          
 POSCAR =  Si2                                     

 Startparameter for this run:
   NWRITE =      2    write-flag & timer
   PREC   = accura    normal or accurate (medium, high low for compatibility)
   ISTART =      0    job   : 0-new  1-cont  2-samecut
   ICHARG =      2    charge: 1-file 2-atom 10-const
   ISPIN  =      1    spin polarized calculation?
   LNONCOLLINEAR =      F non collinear calculations
   LSORBIT =      F    spin-orbit coupling
   INIWAV =      1    electr: 0-lowe 1-rand  2-diag
   LASPH  =      T    aspherical Exc in radial PAW
   METAGGA=      F    non-selfconsistent MetaGGA calc.

 Electronic Relaxation 1
   ENCUT  =  350.0 eV  25.72 Ry    5.07 a.u.   5.87  5.87  5.87*2*pi/ulx,y,z
   ENINI  =  350.0     initial cutoff
   ENAUG  =  322.1 eV  augmentation charge cutoff
   NELM   =     90;   NELMIN=  6; NELMDL= -5     # of ELM steps 
   EDIFF  = 0.1E-05   stopping-criterion for ELM
   LREAL  =      F    real-space projection
   NLSPLINE    = F    spline interpolate recip. space projectors
   LCOMPAT=      F    compatible to vasp.4.4
   GGA_COMPAT  = T    GGA compatible to vasp.4.4-vasp.4.6
   LMAXPAW     = -100 max onsite density
   LMAXMIX     =    2 max onsite mixed and CHGCAR
   VOSKOWN=      0    Vosko Wilk Nusair interpolation
   ROPT   =    0.00000
 Ionic relaxation
   EDIFFG = -.2E-02   stopping-criterion for IOM
   NSW    =    100    number of steps for IOM
   NBLOCK =      1;   KBLOCK =    100    inner block; outer block 
   IBRION =      2    ionic relax: 0-MD 1-quasi-New 2-CG
   NFREE  =      1    steps in history (QN), initial steepest desc. (CG)
   ISIF   =      3    stress and relaxation
   IWAVPR =     11    prediction:  0-non 1-charg 2-wave 3-comb
   ISYM   =      2    0-nonsym 1-usesym 2-fastsym
   LCORR  =      T    Harris-Foulkes like correction to forces

   POTIM  = 0.5000    time-step for ionic-motion
   TEIN   =    0.0    initial temperature
   TEBEG  =    0.0;   TEEND  =   0.0 temperature during run
   SMASS  =  -3.00    Nose mass-parameter (am)
   estimated Nose-frequenzy (Omega)   =  0.10E-29 period in steps = 0.13E+47 mass=  -0.339E-27a.u.
   SCALEE = 1.0000    scale energy and forces
   NPACO  =    256;   APACO  = 16.0  distance and # of slots for P.C.
   PSTRESS=    0.0 pullay stress

  Mass of Ions in am
   POMASS =  28.09
  Ionic Valenz
   ZVAL   =   4.00
  Atomic Wigner-Seitz radii
   RWIGS  =  -1.00
  virtual crystal weights 
   VCA    =   1.00
   NELECT =       8.0000    total number of electrons
   NUPDOWN=      -1.0000    fix difference up-down

 DOS related values:
   EMIN   =  10.00;   EMAX   =-10.00  energy-range for DOS
   EFERMI =   0.00
   ISMEAR =     0;   SIGMA  =   0.05  broadening in eV -4-tet -1-fermi 0-gaus

 Electronic relaxation 2 (details)
   IALGO  =     38    algorithm
   LDIAG  =      T    sub-space diagonalisation (order eigenvalues)
   LSUBROT=      F    optimize rotation matrix (better conditioning)
   TURBO    =      0    0=normal 1=particle mesh
   IRESTART =      0    0=no restart 2=restart with 2 vectors
   NREBOOT  =      0    no. of reboots
   NMIN     =      0    reboot dimension
   EREF     =   0.00    reference energy to select bands
   IMIX   =      4    mixing-type and parameters
     AMIX     =   0.40;   BMIX     =  1.00
     AMIX_MAG =   1.60;   BMIX_MAG =  1.00
     AMIN     =   0.10
     WC   =   100.;   INIMIX=   1;  MIXPRE=   1;  MAXMIX= -45

 Intra band minimization:
   WEIMIN = 0.0010     energy-eigenvalue tresh-hold
   EBREAK =  0.31E-07  absolut break condition
   DEPER  =   0.30     relativ break condition  

   TIME   =   0.40     timestep for ELM

  volume/ion in A,a.u.               =      20.16       136.08
  Fermi-wavevector in a.u.,A,eV,Ry     =   0.954766  1.804247 12.402783  0.911579
  Thomas-Fermi vector in A             =   2.083543
 
 Write flags
   LWAVE        =      F    write WAVECAR
   LDOWNSAMPLE  =      F    k-point downsampling of WAVECAR
   LCHARG       =      F    write CHGCAR
   LVTOT        =      F    write LOCPOT, total local potential
   LVHAR        =      F    write LOCPOT, Hartree potential only
   LELF         =      F    write electronic localiz. function (ELF)
   LORBIT       =      0    0 simple, 1 ext, 2 COOP (PROOUT), +10 PAW based schemes


 Dipole corrections
   LMONO  =      F    monopole corrections only (constant potential shift)
   LDIPOL =      F    correct potential (dipole corrections)
   IDIPOL =      0    1-x, 2-y, 3-z, 4-all directions 
   EPSILON=  1.0000000 bulk dielectric constant

 Exchange correlation treatment:
   GGA     =    --    GGA type
   LEXCH   =     8    internal setting for exchange type
   VOSKOWN=      0    Vosko Wilk Nusair interpolation
   LHFCALC =     F    Hartree Fock is set to
   LHFONE  =     F    Hartree Fock one center treatment
   AEXX    =    0.0000 exact exchange contribution

 Linear response parameters
   LEPSILON=     F    determine dielectric tensor
   LRPA    =     F    only Hartree local field effects (RPA)
   LNABLA  =     F    use nabla operator in PAW spheres
   LVEL    =     F    velocity operator in full k-point grid
   LINTERFAST=   F  fast interpolation
   KINTER  =     0    interpolate to denser k-point grid
   CSHIFT  =0.1000    complex shift for real part using Kramers Kronig
   OMEGAMAX=  -1.0    maximum frequency
   DEG_THRESHOLD= 0.2000000E-02 threshold for treating states as degnerate
   RTIME   =   -0.100 relaxation time in fs
  (WPLASMAI=    0.000 imaginary part of plasma frequency in eV, 0.658/RTIME)
   DFIELD  = 0.0000000 0.0000000 0.0000000 field for delta impulse in time
 
 Orbital magnetization related:
   ORBITALMAG=     F  switch on orbital magnetization
   LCHIMAG   =     F  perturbation theory with respect to B field
   DQ        =  0.001000  dq finite difference perturbation B field
   LLRAUG    =     F  two centre corrections for induced B field



--------------------------------------------------------------------------------------------------------


 conjugate gradient relaxation of ions
 charge density and potential will be updated during run
 non-spin polarized calculation
 Variant of blocked Davidson
 Davidson routine will perform the subspace rotation
 perform sub-space diagonalisation
    after iterative eigenvector-optimisation
 modified Broyden-mixing scheme, WC =      100.0
 initial mixing is a Kerker type mixing with AMIX =  0.4000 and BMIX =      1.0000
 Hartree-type preconditioning will be used
 using additional bands            4
 reciprocal scheme for non local part
 use partial core corrections
 calculate Harris-corrections to forces 
   (improved forces if not selfconsistent)
 use gradient corrections 
 use of overlap-Matrix (Vanderbilt PP)
 Gauss-broadening in eV      SIGMA  =   0.05


--------------------------------------------------------------------------------------------------------


  energy-cutoff  :      350.00
  volume of cell :       40.33
      direct lattice vectors                 reciprocal lattice vectors
     3.333573000  0.000000000  1.924639000     0.299978432 -0.106058350  0.000000000
     1.111191000  3.142924000  1.924639000     0.000000000  0.318175050  0.000000000
     0.000000000  0.000000000  3.849278000    -0.149989216 -0.106058350  0.259788979

  length of vectors
     3.849278403  3.849279412  3.849278000     0.318175161  0.318175050  0.318175190


 
 k-points in units of 2pi/SCALE and weight: Automatic                               
   0.00000000  0.00000000  0.00000000       0.000
   0.01578834 -0.00558202  0.00000000       0.001
   0.03157668 -0.01116404  0.00000000       0.001
   0.04736502 -0.01674606  0.00000000       0.001
   0.06315335 -0.02232807  0.00000000       0.001
   0.07894169 -0.02791009  0.00000000       0.001
   0.09473003 -0.03349211  0.00000000       0.001
   0.11051837 -0.03907413  0.00000000       0.001
   0.12630671 -0.04465615  0.00000000       0.001
   0.14209505 -0.05023817  0.00000000       0.001
   0.01578834  0.01116404  0.00000000       0.001
   0.03157668  0.00558202  0.00000000       0.003
   0.04736502  0.00000000  0.00000000       0.003
   0.06315335 -0.00558202  0.00000000       0.003
   0.07894169 -0.01116404  0.00000000       0.003
   0.09473003 -0.01674606  0.00000000       0.003
   0.11051837 -0.02232807  0.00000000       0.003
   0.12630671 -0.02791009  0.00000000       0.003
   0.14209505 -0.03349211  0.00000000       0.003
  -0.14209505  0.06698422  0.00000000       0.003
  -0.12630671  0.06140220  0.00000000       0.003
  -0.11051837  0.05582018  0.00000000       0.003
  -0.09473003  0.05023817  0.00000000       0.003
  -0.07894169  0.04465615  0.00000000       0.003
  -0.06315335  0.03907413  0.00000000       0.003
  -0.04736502  0.03349211  0.00000000       0.003
  -0.03157668  0.02791009  0.00000000       0.003
  -0.01578834  0.02232807  0.00000000       0.002
   0.03157668  0.02232807  0.00000000       0.001
   0.04736502  0.01674606  0.00000000       0.003
   0.06315335  0.01116404  0.00000000       0.003
   0.07894169  0.00558202  0.00000000       0.003
   0.09473003  0.00000000  0.00000000       0.003
   0.11051837 -0.00558202  0.00000000       0.003
   0.12630671 -0.01116404  0.00000000       0.003
   0.14209505 -0.01674606  0.00000000       0.003
  -0.14209505  0.08373028  0.00000000       0.003
  -0.12630671  0.07814826  0.00000000       0.003
  -0.11051837  0.07256624  0.00000000       0.003
  -0.09473003  0.06698422  0.00000000       0.003
  -0.07894169  0.06140220  0.00000000       0.003
  -0.06315335  0.05582018  0.00000000       0.003
  -0.04736502  0.05023817  0.00000000       0.003
  -0.03157668  0.04465615  0.00000000       0.002
   0.04736502  0.03349211  0.00000000       0.001
   0.06315335  0.02791009  0.00000000       0.003
   0.07894169  0.02232807  0.00000000       0.003
   0.09473003  0.01674606  0.00000000       0.003
   0.11051837  0.01116404  0.00000000       0.003
   0.12630671  0.00558202  0.00000000       0.003
   0.14209505 -0.00000000  0.00000000       0.003
  -0.14209505  0.10047633  0.00000000       0.003
  -0.12630671  0.09489431  0.00000000       0.003
  -0.11051837  0.08931229  0.00000000       0.003
  -0.09473003  0.08373028  0.00000000       0.003
  -0.07894169  0.07814826  0.00000000       0.003
  -0.06315335  0.07256624  0.00000000       0.003
  -0.04736502  0.06698422  0.00000000       0.002
   0.06315335  0.04465615  0.00000000       0.001
   0.07894169  0.03907413  0.00000000       0.003
   0.09473003  0.03349211  0.00000000       0.003
   0.11051837  0.02791009  0.00000000       0.003
   0.12630671  0.02232807  0.00000000       0.003
   0.14209505  0.01674606  0.00000000       0.003
  -0.14209505  0.11722239  0.00000000       0.003
  -0.12630671  0.11164037  0.00000000       0.003
  -0.11051837  0.10605835  0.00000000       0.003
  -0.09473003  0.10047633  0.00000000       0.003
  -0.07894169  0.09489431  0.00000000       0.003
  -0.06315335  0.08931229  0.00000000       0.002
   0.07894169  0.05582018  0.00000000       0.001
   0.09473003  0.05023817  0.00000000       0.003
   0.11051837  0.04465615  0.00000000       0.003
   0.12630671  0.03907413  0.00000000       0.003
   0.14209505  0.03349211  0.00000000       0.003
  -0.14209505  0.13396844  0.00000000       0.003
  -0.12630671  0.12838642  0.00000000       0.003
  -0.11051837  0.12280441  0.00000000       0.003
  -0.09473003  0.11722239  0.00000000       0.003
  -0.07894169  0.11164037  0.00000000       0.002
   0.09473003  0.06698422  0.00000000       0.001
   0.11051837  0.06140220  0.00000000       0.003
   0.12630671  0.05582018  0.00000000       0.003
   0.14209505  0.05023817  0.00000000       0.003
  -0.14209505  0.15071450  0.00000000       0.003
  -0.12630671  0.14513248  0.00000000       0.003
  -0.11051837  0.13955046  0.00000000       0.003
  -0.09473003  0.13396844  0.00000000       0.002
   0.11051837  0.07814826  0.00000000       0.001
   0.12630671  0.07256624  0.00000000       0.003
   0.14209505  0.06698422  0.00000000       0.003
  -0.14209505  0.16746055  0.00000000       0.003
  -0.12630671  0.16187853  0.00000000       0.003
  -0.11051837  0.15629652  0.00000000       0.002
   0.12630671  0.08931229  0.00000000       0.001
   0.14209505  0.08373028  0.00000000       0.003
  -0.14209505  0.18420661  0.00000000       0.003
  -0.12630671  0.17862459  0.00000000       0.002
   0.14209505  0.10047633  0.00000000       0.001
  -0.14209505  0.20095266  0.00000000       0.002
   0.03947085  0.01116404  0.01367310       0.003
   0.05525918  0.00558202  0.01367310       0.007
   0.07104752  0.00000000  0.01367310       0.007
   0.08683586 -0.00558202  0.01367310       0.007
   0.10262420 -0.01116404  0.01367310       0.007
   0.11841254 -0.01674606  0.01367310       0.007
   0.13420088 -0.02232807  0.01367310       0.007
  -0.14998922  0.07814826  0.01367310       0.007
   0.05525918  0.02232807  0.01367310       0.003
   0.07104752  0.01674606  0.01367310       0.007
   0.08683586  0.01116404  0.01367310       0.007
   0.10262420  0.00558202  0.01367310       0.007
   0.11841254 -0.00000000  0.01367310       0.007
   0.13420088 -0.00558202  0.01367310       0.007
  -0.14998922  0.09489431  0.01367310       0.007
  -0.13420088  0.08931229  0.01367310       0.007
  -0.11841254  0.08373028  0.01367310       0.007
  -0.10262420  0.07814826  0.01367310       0.007
  -0.08683586  0.07256624  0.01367310       0.007
  -0.07104752  0.06698422  0.01367310       0.007
  -0.05525918  0.06140220  0.01367310       0.007
  -0.03947085  0.05582018  0.01367310       0.003
   0.07104752  0.03349211  0.01367310       0.003
   0.08683586  0.02791009  0.01367310       0.007
   0.10262420  0.02232807  0.01367310       0.007
   0.11841254  0.01674606  0.01367310       0.007
   0.13420088  0.01116404  0.01367310       0.007
  -0.14998922  0.11164037  0.01367310       0.007
  -0.13420088  0.10605835  0.01367310       0.007
  -0.11841254  0.10047633  0.01367310       0.007
  -0.10262420  0.09489431  0.01367310       0.007
  -0.08683586  0.08931229  0.01367310       0.007
  -0.07104752  0.08373028  0.01367310       0.007
  -0.05525918  0.07814826  0.01367310       0.003
   0.08683586  0.04465615  0.01367310       0.003
   0.10262420  0.03907413  0.01367310       0.007
   0.11841254  0.03349211  0.01367310       0.007
   0.13420088  0.02791009  0.01367310       0.007
  -0.14998922  0.12838642  0.01367310       0.007
  -0.13420088  0.12280441  0.01367310       0.007
  -0.11841254  0.11722239  0.01367310       0.007
  -0.10262420  0.11164037  0.01367310       0.007
  -0.08683586  0.10605835  0.01367310       0.007
  -0.07104752  0.10047633  0.01367310       0.003
   0.10262420  0.05582018  0.01367310       0.003
   0.11841254  0.05023817  0.01367310       0.007
   0.13420088  0.04465615  0.01367310       0.007
  -0.14998922  0.14513248  0.01367310       0.007
  -0.13420088  0.13955046  0.01367310       0.007
  -0.11841254  0.13396844  0.01367310       0.007
  -0.10262420  0.12838642  0.01367310       0.007
  -0.08683586  0.12280441  0.01367310       0.003
   0.11841254  0.06698422  0.01367310       0.003
   0.13420088  0.06140220  0.01367310       0.007
  -0.14998922  0.16187853  0.01367310       0.007
  -0.13420088  0.15629652  0.01367310       0.007
  -0.11841254  0.15071450  0.01367310       0.007
  -0.10262420  0.14513248  0.01367310       0.003
   0.13420088  0.07814826  0.01367310       0.003
  -0.14998922  0.17862459  0.01367310       0.007
  -0.13420088  0.17304257  0.01367310       0.007
  -0.11841254  0.16746055  0.01367310       0.003
  -0.14998922  0.19537064  0.01367310       0.003
  -0.13420088  0.18978863  0.01367310       0.003
   0.07894169  0.02232807  0.02734621       0.003
   0.09473003  0.01674606  0.02734621       0.007
   0.11051837  0.01116404  0.02734621       0.007
   0.12630671  0.00558202  0.02734621       0.007
  -0.15788339  0.10605835  0.02734621       0.007
  -0.14209505  0.10047633  0.02734621       0.007
   0.09473003  0.03349211  0.02734621       0.003
   0.11051837  0.02791009  0.02734621       0.007
   0.12630671  0.02232807  0.02734621       0.007
  -0.15788339  0.12280441  0.02734621       0.007
  -0.14209505  0.11722239  0.02734621       0.007
  -0.12630671  0.11164037  0.02734621       0.007
  -0.11051837  0.10605835  0.02734621       0.007
  -0.09473003  0.10047633  0.02734621       0.007
  -0.07894169  0.09489431  0.02734621       0.007
  -0.06315335  0.08931229  0.02734621       0.003
   0.11051837  0.04465615  0.02734621       0.003
   0.12630671  0.03907413  0.02734621       0.007
  -0.15788339  0.13955046  0.02734621       0.007
  -0.14209505  0.13396844  0.02734621       0.007
  -0.12630671  0.12838642  0.02734621       0.007
  -0.11051837  0.12280441  0.02734621       0.007
  -0.09473003  0.11722239  0.02734621       0.007
  -0.07894169  0.11164037  0.02734621       0.003
   0.12630671  0.05582018  0.02734621       0.003
  -0.15788339  0.15629652  0.02734621       0.007
  -0.14209505  0.15071450  0.02734621       0.007
  -0.12630671  0.14513248  0.02734621       0.007
  -0.11051837  0.13955046  0.02734621       0.007
  -0.09473003  0.13396844  0.02734621       0.003
  -0.15788339  0.17304257  0.02734621       0.003
  -0.14209505  0.16746055  0.02734621       0.007
  -0.12630671  0.16187853  0.02734621       0.007
  -0.11051837  0.15629652  0.02734621       0.003
  -0.14209505  0.18420661  0.02734621       0.003
  -0.12630671  0.17862459  0.02734621       0.003
   0.11841254  0.03349211  0.04101931       0.003
  -0.16577755  0.13396844  0.04101931       0.007
  -0.14998922  0.12838642  0.04101931       0.007
  -0.13420088  0.12280441  0.04101931       0.007
  -0.16577755  0.15071450  0.04101931       0.003
  -0.14998922  0.14513248  0.04101931       0.007
  -0.13420088  0.13955046  0.04101931       0.007
  -0.11841254  0.13396844  0.04101931       0.007
  -0.10262420  0.12838642  0.04101931       0.007
  -0.08683586  0.12280441  0.04101931       0.003
  -0.14998922  0.16187853  0.04101931       0.003
  -0.13420088  0.15629652  0.04101931       0.007
  -0.11841254  0.15071450  0.04101931       0.007
  -0.10262420  0.14513248  0.04101931       0.003
  -0.13420088  0.17304257  0.04101931       0.003
  -0.11841254  0.16746055  0.04101931       0.003
  -0.14209505  0.15071450  0.05469242       0.003
  -0.12630671  0.14513248  0.05469242       0.007
  -0.12630671  0.16187853  0.05469242       0.003
  -0.11051837  0.15629652  0.05469242       0.003
 
 k-points in reciprocal lattice and weights: Automatic                               
   0.00000000  0.00000000  0.00000000       0.000
   0.05263158 -0.00000000  0.00000000       0.001
   0.10526316 -0.00000000  0.00000000       0.001
   0.15789474  0.00000000  0.00000000       0.001
   0.21052632  0.00000000  0.00000000       0.001
   0.26315789  0.00000000  0.00000000       0.001
   0.31578947 -0.00000000  0.00000000       0.001
   0.36842105  0.00000000  0.00000000       0.001
   0.42105263  0.00000000  0.00000000       0.001
   0.47368421  0.00000000  0.00000000       0.001
   0.05263158  0.05263158  0.00000000       0.001
   0.10526316  0.05263158  0.00000000       0.003
   0.15789474  0.05263158  0.00000000       0.003
   0.21052632  0.05263158  0.00000000       0.003
   0.26315789  0.05263158  0.00000000       0.003
   0.31578947  0.05263158  0.00000000       0.003
   0.36842105  0.05263158  0.00000000       0.003
   0.42105263  0.05263158  0.00000000       0.003
   0.47368421  0.05263158  0.00000000       0.003
  -0.47368421  0.05263158  0.00000000       0.003
  -0.42105263  0.05263158  0.00000000       0.003
  -0.36842105  0.05263158  0.00000000       0.003
  -0.31578947  0.05263158  0.00000000       0.003
  -0.26315789  0.05263158  0.00000000       0.003
  -0.21052632  0.05263158  0.00000000       0.003
  -0.15789474  0.05263158  0.00000000       0.003
  -0.10526316  0.05263158  0.00000000       0.003
  -0.05263158  0.05263158  0.00000000       0.002
   0.10526316  0.10526316  0.00000000       0.001
   0.15789474  0.10526316  0.00000000       0.003
   0.21052632  0.10526316  0.00000000       0.003
   0.26315789  0.10526316  0.00000000       0.003
   0.31578947  0.10526316  0.00000000       0.003
   0.36842105  0.10526316  0.00000000       0.003
   0.42105263  0.10526316  0.00000000       0.003
   0.47368421  0.10526316  0.00000000       0.003
  -0.47368421  0.10526316  0.00000000       0.003
  -0.42105263  0.10526316  0.00000000       0.003
  -0.36842105  0.10526316  0.00000000       0.003
  -0.31578947  0.10526316  0.00000000       0.003
  -0.26315789  0.10526316  0.00000000       0.003
  -0.21052632  0.10526316  0.00000000       0.003
  -0.15789474  0.10526316  0.00000000       0.003
  -0.10526316  0.10526316  0.00000000       0.002
   0.15789474  0.15789474  0.00000000       0.001
   0.21052632  0.15789474  0.00000000       0.003
   0.26315789  0.15789474  0.00000000       0.003
   0.31578947  0.15789474  0.00000000       0.003
   0.36842105  0.15789474  0.00000000       0.003
   0.42105263  0.15789474  0.00000000       0.003
   0.47368421  0.15789474  0.00000000       0.003
  -0.47368421  0.15789474  0.00000000       0.003
  -0.42105263  0.15789474  0.00000000       0.003
  -0.36842105  0.15789474  0.00000000       0.003
  -0.31578947  0.15789474  0.00000000       0.003
  -0.26315789  0.15789474  0.00000000       0.003
  -0.21052632  0.15789474  0.00000000       0.003
  -0.15789474  0.15789474  0.00000000       0.002
   0.21052632  0.21052632  0.00000000       0.001
   0.26315789  0.21052632  0.00000000       0.003
   0.31578947  0.21052632  0.00000000       0.003
   0.36842105  0.21052632  0.00000000       0.003
   0.42105263  0.21052632  0.00000000       0.003
   0.47368421  0.21052632  0.00000000       0.003
  -0.47368421  0.21052632  0.00000000       0.003
  -0.42105263  0.21052632  0.00000000       0.003
  -0.36842105  0.21052632  0.00000000       0.003
  -0.31578947  0.21052632  0.00000000       0.003
  -0.26315789  0.21052632  0.00000000       0.003
  -0.21052632  0.21052632  0.00000000       0.002
   0.26315789  0.26315789  0.00000000       0.001
   0.31578947  0.26315789  0.00000000       0.003
   0.36842105  0.26315789  0.00000000       0.003
   0.42105263  0.26315789  0.00000000       0.003
   0.47368421  0.26315789  0.00000000       0.003
  -0.47368421  0.26315789  0.00000000       0.003
  -0.42105263  0.26315789  0.00000000       0.003
  -0.36842105  0.26315789  0.00000000       0.003
  -0.31578947  0.26315789  0.00000000       0.003
  -0.26315789  0.26315789  0.00000000       0.002
   0.31578947  0.31578947  0.00000000       0.001
   0.36842105  0.31578947  0.00000000       0.003
   0.42105263  0.31578947  0.00000000       0.003
   0.47368421  0.31578947  0.00000000       0.003
  -0.47368421  0.31578947  0.00000000       0.003
  -0.42105263  0.31578947  0.00000000       0.003
  -0.36842105  0.31578947  0.00000000       0.003
  -0.31578947  0.31578947  0.00000000       0.002
   0.36842105  0.36842105  0.00000000       0.001
   0.42105263  0.36842105  0.00000000       0.003
   0.47368421  0.36842105  0.00000000       0.003
  -0.47368421  0.36842105  0.00000000       0.003
  -0.42105263  0.36842105  0.00000000       0.003
  -0.36842105  0.36842105  0.00000000       0.002
   0.42105263  0.42105263  0.00000000       0.001
   0.47368421  0.42105263  0.00000000       0.003
  -0.47368421  0.42105263  0.00000000       0.003
  -0.42105263  0.42105263  0.00000000       0.002
   0.47368421  0.47368421  0.00000000       0.001
  -0.47368421  0.47368421  0.00000000       0.002
   0.15789474  0.10526316  0.05263158       0.003
   0.21052632  0.10526316  0.05263158       0.007
   0.26315789  0.10526316  0.05263158       0.007
   0.31578947  0.10526316  0.05263158       0.007
   0.36842105  0.10526316  0.05263158       0.007
   0.42105263  0.10526316  0.05263158       0.007
   0.47368421  0.10526316  0.05263158       0.007
  -0.47368421  0.10526316  0.05263158       0.007
   0.21052632  0.15789474  0.05263158       0.003
   0.26315789  0.15789474  0.05263158       0.007
   0.31578947  0.15789474  0.05263158       0.007
   0.36842105  0.15789474  0.05263158       0.007
   0.42105263  0.15789474  0.05263158       0.007
   0.47368421  0.15789474  0.05263158       0.007
  -0.47368421  0.15789474  0.05263158       0.007
  -0.42105263  0.15789474  0.05263158       0.007
  -0.36842105  0.15789474  0.05263158       0.007
  -0.31578947  0.15789474  0.05263158       0.007
  -0.26315789  0.15789474  0.05263158       0.007
  -0.21052632  0.15789474  0.05263158       0.007
  -0.15789474  0.15789474  0.05263158       0.007
  -0.10526316  0.15789474  0.05263158       0.003
   0.26315789  0.21052632  0.05263158       0.003
   0.31578947  0.21052632  0.05263158       0.007
   0.36842105  0.21052632  0.05263158       0.007
   0.42105263  0.21052632  0.05263158       0.007
   0.47368421  0.21052632  0.05263158       0.007
  -0.47368421  0.21052632  0.05263158       0.007
  -0.42105263  0.21052632  0.05263158       0.007
  -0.36842105  0.21052632  0.05263158       0.007
  -0.31578947  0.21052632  0.05263158       0.007
  -0.26315789  0.21052632  0.05263158       0.007
  -0.21052632  0.21052632  0.05263158       0.007
  -0.15789474  0.21052632  0.05263158       0.003
   0.31578947  0.26315789  0.05263158       0.003
   0.36842105  0.26315789  0.05263158       0.007
   0.42105263  0.26315789  0.05263158       0.007
   0.47368421  0.26315789  0.05263158       0.007
  -0.47368421  0.26315789  0.05263158       0.007
  -0.42105263  0.26315789  0.05263158       0.007
  -0.36842105  0.26315789  0.05263158       0.007
  -0.31578947  0.26315789  0.05263158       0.007
  -0.26315789  0.26315789  0.05263158       0.007
  -0.21052632  0.26315789  0.05263158       0.003
   0.36842105  0.31578947  0.05263158       0.003
   0.42105263  0.31578947  0.05263158       0.007
   0.47368421  0.31578947  0.05263158       0.007
  -0.47368421  0.31578947  0.05263158       0.007
  -0.42105263  0.31578947  0.05263158       0.007
  -0.36842105  0.31578947  0.05263158       0.007
  -0.31578947  0.31578947  0.05263158       0.007
  -0.26315789  0.31578947  0.05263158       0.003
   0.42105263  0.36842105  0.05263158       0.003
   0.47368421  0.36842105  0.05263158       0.007
  -0.47368421  0.36842105  0.05263158       0.007
  -0.42105263  0.36842105  0.05263158       0.007
  -0.36842105  0.36842105  0.05263158       0.007
  -0.31578947  0.36842105  0.05263158       0.003
   0.47368421  0.42105263  0.05263158       0.003
  -0.47368421  0.42105263  0.05263158       0.007
  -0.42105263  0.42105263  0.05263158       0.007
  -0.36842105  0.42105263  0.05263158       0.003
  -0.47368421  0.47368421  0.05263158       0.003
  -0.42105263  0.47368421  0.05263158       0.003
   0.31578947  0.21052632  0.10526316       0.003
   0.36842105  0.21052632  0.10526316       0.007
   0.42105263  0.21052632  0.10526316       0.007
   0.47368421  0.21052632  0.10526316       0.007
  -0.47368421  0.21052632  0.10526316       0.007
  -0.42105263  0.21052632  0.10526316       0.007
   0.36842105  0.26315789  0.10526316       0.003
   0.42105263  0.26315789  0.10526316       0.007
   0.47368421  0.26315789  0.10526316       0.007
  -0.47368421  0.26315789  0.10526316       0.007
  -0.42105263  0.26315789  0.10526316       0.007
  -0.36842105  0.26315789  0.10526316       0.007
  -0.31578947  0.26315789  0.10526316       0.007
  -0.26315789  0.26315789  0.10526316       0.007
  -0.21052632  0.26315789  0.10526316       0.007
  -0.15789474  0.26315789  0.10526316       0.003
   0.42105263  0.31578947  0.10526316       0.003
   0.47368421  0.31578947  0.10526316       0.007
  -0.47368421  0.31578947  0.10526316       0.007
  -0.42105263  0.31578947  0.10526316       0.007
  -0.36842105  0.31578947  0.10526316       0.007
  -0.31578947  0.31578947  0.10526316       0.007
  -0.26315789  0.31578947  0.10526316       0.007
  -0.21052632  0.31578947  0.10526316       0.003
   0.47368421  0.36842105  0.10526316       0.003
  -0.47368421  0.36842105  0.10526316       0.007
  -0.42105263  0.36842105  0.10526316       0.007
  -0.36842105  0.36842105  0.10526316       0.007
  -0.31578947  0.36842105  0.10526316       0.007
  -0.26315789  0.36842105  0.10526316       0.003
  -0.47368421  0.42105263  0.10526316       0.003
  -0.42105263  0.42105263  0.10526316       0.007
  -0.36842105  0.42105263  0.10526316       0.007
  -0.31578947  0.42105263  0.10526316       0.003
  -0.42105263  0.47368421  0.10526316       0.003
  -0.36842105  0.47368421  0.10526316       0.003
   0.47368421  0.31578947  0.15789474       0.003
  -0.47368421  0.31578947  0.15789474       0.007
  -0.42105263  0.31578947  0.15789474       0.007
  -0.36842105  0.31578947  0.15789474       0.007
  -0.47368421  0.36842105  0.15789474       0.003
  -0.42105263  0.36842105  0.15789474       0.007
  -0.36842105  0.36842105  0.15789474       0.007
  -0.31578947  0.36842105  0.15789474       0.007
  -0.26315789  0.36842105  0.15789474       0.007
  -0.21052632  0.36842105  0.15789474       0.003
  -0.42105263  0.42105263  0.15789474       0.003
  -0.36842105  0.42105263  0.15789474       0.007
  -0.31578947  0.42105263  0.15789474       0.007
  -0.26315789  0.42105263  0.15789474       0.003
  -0.36842105  0.47368421  0.15789474       0.003
  -0.31578947  0.47368421  0.15789474       0.003
  -0.36842105  0.42105263  0.21052632       0.003
  -0.31578947  0.42105263  0.21052632       0.007
  -0.31578947  0.47368421  0.21052632       0.003
  -0.26315789  0.47368421  0.21052632       0.003
 
 position of ions in fractional coordinates (direct lattice) 
   0.87500000  0.87500000  0.87500000
   0.12500000  0.12500000  0.12500000
 
 position of ions in cartesian coordinates  (Angst):
   3.88916850  2.75005850  6.73623650
   0.55559550  0.39286550  0.96231950
 


--------------------------------------------------------------------------------------------------------


 k-point   1 :   0.0000 0.0000 0.0000  plane waves:     609
 k-point   2 :   0.0526-0.0000 0.0000  plane waves:     600
 k-point   3 :   0.1053-0.0000 0.0000  plane waves:     585
 k-point   4 :   0.1579 0.0000 0.0000  plane waves:     585
 k-point   5 :   0.2105 0.0000 0.0000  plane waves:     589
 k-point   6 :   0.2632 0.0000 0.0000  plane waves:     598
 k-point   7 :   0.3158-0.0000 0.0000  plane waves:     601
 k-point   8 :   0.3684 0.0000 0.0000  plane waves:     598
 k-point   9 :   0.4211 0.0000 0.0000  plane waves:     601
 k-point  10 :   0.4737 0.0000 0.0000  plane waves:     598
 k-point  11 :   0.0526 0.0526 0.0000  plane waves:     601
 k-point  12 :   0.1053 0.0526 0.0000  plane waves:     586
 k-point  13 :   0.1579 0.0526 0.0000  plane waves:     588
 k-point  14 :   0.2105 0.0526 0.0000  plane waves:     587
 k-point  15 :   0.2632 0.0526 0.0000  plane waves:     591
 k-point  16 :   0.3158 0.0526 0.0000  plane waves:     602
 k-point  17 :   0.3684 0.0526 0.0000  plane waves:     604
 k-point  18 :   0.4211 0.0526 0.0000  plane waves:     599
 k-point  19 :   0.4737 0.0526 0.0000  plane waves:     597
 k-point  20 :  -0.4737 0.0526 0.0000  plane waves:     599
 k-point  21 :  -0.4211 0.0526 0.0000  plane waves:     597
 k-point  22 :  -0.3684 0.0526 0.0000  plane waves:     601
 k-point  23 :  -0.3158 0.0526 0.0000  plane waves:     603
 k-point  24 :  -0.2632 0.0526 0.0000  plane waves:     600
 k-point  25 :  -0.2105 0.0526 0.0000  plane waves:     591
 k-point  26 :  -0.1579 0.0526 0.0000  plane waves:     590
 k-point  27 :  -0.1053 0.0526 0.0000  plane waves:     589
 k-point  28 :  -0.0526 0.0526 0.0000  plane waves:     591
 k-point  29 :   0.1053 0.1053 0.0000  plane waves:     593
 k-point  30 :   0.1579 0.1053 0.0000  plane waves:     587
 k-point  31 :   0.2105 0.1053 0.0000  plane waves:     588
 k-point  32 :   0.2632 0.1053 0.0000  plane waves:     594
 k-point  33 :   0.3158 0.1053 0.0000  plane waves:     598
 k-point  34 :   0.3684 0.1053 0.0000  plane waves:     601
 k-point  35 :   0.4211 0.1053 0.0000  plane waves:     599
 k-point  36 :   0.4737 0.1053 0.0000  plane waves:     596
 k-point  37 :  -0.4737 0.1053 0.0000  plane waves:     594
 k-point  38 :  -0.4211 0.1053 0.0000  plane waves:     597
 k-point  39 :  -0.3684 0.1053 0.0000  plane waves:     600
 k-point  40 :  -0.3158 0.1053 0.0000  plane waves:     599
 k-point  41 :  -0.2632 0.1053 0.0000  plane waves:     598
 k-point  42 :  -0.2105 0.1053 0.0000  plane waves:     595
 k-point  43 :  -0.1579 0.1053 0.0000  plane waves:     596
 k-point  44 :  -0.1053 0.1053 0.0000  plane waves:     594
 k-point  45 :   0.1579 0.1579 0.0000  plane waves:     584
 k-point  46 :   0.2105 0.1579 0.0000  plane waves:     588
 k-point  47 :   0.2632 0.1579 0.0000  plane waves:     593
 k-point  48 :   0.3158 0.1579 0.0000  plane waves:     604
 k-point  49 :   0.3684 0.1579 0.0000  plane waves:     604
 k-point  50 :   0.4211 0.1579 0.0000  plane waves:     599
 k-point  51 :   0.4737 0.1579 0.0000  plane waves:     598
 k-point  52 :  -0.4737 0.1579 0.0000  plane waves:     600
 k-point  53 :  -0.4211 0.1579 0.0000  plane waves:     601
 k-point  54 :  -0.3684 0.1579 0.0000  plane waves:     596
 k-point  55 :  -0.3158 0.1579 0.0000  plane waves:     598
 k-point  56 :  -0.2632 0.1579 0.0000  plane waves:     603
 k-point  57 :  -0.2105 0.1579 0.0000  plane waves:     601
 k-point  58 :  -0.1579 0.1579 0.0000  plane waves:     596
 k-point  59 :   0.2105 0.2105 0.0000  plane waves:     584
 k-point  60 :   0.2632 0.2105 0.0000  plane waves:     586
 k-point  61 :   0.3158 0.2105 0.0000  plane waves:     601
 k-point  62 :   0.3684 0.2105 0.0000  plane waves:     604
 k-point  63 :   0.4211 0.2105 0.0000  plane waves:     599
 k-point  64 :   0.4737 0.2105 0.0000  plane waves:     604
 k-point  65 :  -0.4737 0.2105 0.0000  plane waves:     596
 k-point  66 :  -0.4211 0.2105 0.0000  plane waves:     599
 k-point  67 :  -0.3684 0.2105 0.0000  plane waves:     601
 k-point  68 :  -0.3158 0.2105 0.0000  plane waves:     597
 k-point  69 :  -0.2632 0.2105 0.0000  plane waves:     598
 k-point  70 :  -0.2105 0.2105 0.0000  plane waves:     600
 k-point  71 :   0.2632 0.2632 0.0000  plane waves:     592
 k-point  72 :   0.3158 0.2632 0.0000  plane waves:     595
 k-point  73 :   0.3684 0.2632 0.0000  plane waves:     599
 k-point  74 :   0.4211 0.2632 0.0000  plane waves:     606
 k-point  75 :   0.4737 0.2632 0.0000  plane waves:     601
 k-point  76 :  -0.4737 0.2632 0.0000  plane waves:     601
 k-point  77 :  -0.4211 0.2632 0.0000  plane waves:     597
 k-point  78 :  -0.3684 0.2632 0.0000  plane waves:     593
 k-point  79 :  -0.3158 0.2632 0.0000  plane waves:     600
 k-point  80 :  -0.2632 0.2632 0.0000  plane waves:     602
 k-point  81 :   0.3158 0.3158 0.0000  plane waves:     600
 k-point  82 :   0.3684 0.3158 0.0000  plane waves:     599
 k-point  83 :   0.4211 0.3158 0.0000  plane waves:     599
 k-point  84 :   0.4737 0.3158 0.0000  plane waves:     599
 k-point  85 :  -0.4737 0.3158 0.0000  plane waves:     605
 k-point  86 :  -0.4211 0.3158 0.0000  plane waves:     604
 k-point  87 :  -0.3684 0.3158 0.0000  plane waves:     604
 k-point  88 :  -0.3158 0.3158 0.0000  plane waves:     602
 k-point  89 :   0.3684 0.3684 0.0000  plane waves:     608
 k-point  90 :   0.4211 0.3684 0.0000  plane waves:     608
 k-point  91 :   0.4737 0.3684 0.0000  plane waves:     606
 k-point  92 :  -0.4737 0.3684 0.0000  plane waves:     607
 k-point  93 :  -0.4211 0.3684 0.0000  plane waves:     600
 k-point  94 :  -0.3684 0.3684 0.0000  plane waves:     602
 k-point  95 :   0.4211 0.4211 0.0000  plane waves:     612
 k-point  96 :   0.4737 0.4211 0.0000  plane waves:     608
 k-point  97 :  -0.4737 0.4211 0.0000  plane waves:     606
 k-point  98 :  -0.4211 0.4211 0.0000  plane waves:     606
 k-point  99 :   0.4737 0.4737 0.0000  plane waves:     604
 k-point 100 :  -0.4737 0.4737 0.0000  plane waves:     604
 k-point 101 :   0.1579 0.1053 0.0526  plane waves:     591
 k-point 102 :   0.2105 0.1053 0.0526  plane waves:     591
 k-point 103 :   0.2632 0.1053 0.0526  plane waves:     592
 k-point 104 :   0.3158 0.1053 0.0526  plane waves:     595
 k-point 105 :   0.3684 0.1053 0.0526  plane waves:     600
 k-point 106 :   0.4211 0.1053 0.0526  plane waves:     600
 k-point 107 :   0.4737 0.1053 0.0526  plane waves:     598
 k-point 108 :  -0.4737 0.1053 0.0526  plane waves:     600
 k-point 109 :   0.2105 0.1579 0.0526  plane waves:     586
 k-point 110 :   0.2632 0.1579 0.0526  plane waves:     589
 k-point 111 :   0.3158 0.1579 0.0526  plane waves:     597
 k-point 112 :   0.3684 0.1579 0.0526  plane waves:     601
 k-point 113 :   0.4211 0.1579 0.0526  plane waves:     599
 k-point 114 :   0.4737 0.1579 0.0526  plane waves:     598
 k-point 115 :  -0.4737 0.1579 0.0526  plane waves:     600
 k-point 116 :  -0.4211 0.1579 0.0526  plane waves:     594
 k-point 117 :  -0.3684 0.1579 0.0526  plane waves:     598
 k-point 118 :  -0.3158 0.1579 0.0526  plane waves:     596
 k-point 119 :  -0.2632 0.1579 0.0526  plane waves:     599
 k-point 120 :  -0.2105 0.1579 0.0526  plane waves:     598
 k-point 121 :  -0.1579 0.1579 0.0526  plane waves:     598
 k-point 122 :  -0.1053 0.1579 0.0526  plane waves:     589
 k-point 123 :   0.2632 0.2105 0.0526  plane waves:     589
 k-point 124 :   0.3158 0.2105 0.0526  plane waves:     598
 k-point 125 :   0.3684 0.2105 0.0526  plane waves:     600
 k-point 126 :   0.4211 0.2105 0.0526  plane waves:     603
 k-point 127 :   0.4737 0.2105 0.0526  plane waves:     601
 k-point 128 :  -0.4737 0.2105 0.0526  plane waves:     599
 k-point 129 :  -0.4211 0.2105 0.0526  plane waves:     596
 k-point 130 :  -0.3684 0.2105 0.0526  plane waves:     600
 k-point 131 :  -0.3158 0.2105 0.0526  plane waves:     598
 k-point 132 :  -0.2632 0.2105 0.0526  plane waves:     604
 k-point 133 :  -0.2105 0.2105 0.0526  plane waves:     602
 k-point 134 :  -0.1579 0.2105 0.0526  plane waves:     598
 k-point 135 :   0.3158 0.2632 0.0526  plane waves:     595
 k-point 136 :   0.3684 0.2632 0.0526  plane waves:     603
 k-point 137 :   0.4211 0.2632 0.0526  plane waves:     603
 k-point 138 :   0.4737 0.2632 0.0526  plane waves:     605
 k-point 139 :  -0.4737 0.2632 0.0526  plane waves:     603
 k-point 140 :  -0.4211 0.2632 0.0526  plane waves:     596
 k-point 141 :  -0.3684 0.2632 0.0526  plane waves:     596
 k-point 142 :  -0.3158 0.2632 0.0526  plane waves:     601
 k-point 143 :  -0.2632 0.2632 0.0526  plane waves:     603
 k-point 144 :  -0.2105 0.2632 0.0526  plane waves:     603
 k-point 145 :   0.3684 0.3158 0.0526  plane waves:     602
 k-point 146 :   0.4211 0.3158 0.0526  plane waves:     600
 k-point 147 :   0.4737 0.3158 0.0526  plane waves:     600
 k-point 148 :  -0.4737 0.3158 0.0526  plane waves:     602
 k-point 149 :  -0.4211 0.3158 0.0526  plane waves:     604
 k-point 150 :  -0.3684 0.3158 0.0526  plane waves:     600
 k-point 151 :  -0.3158 0.3158 0.0526  plane waves:     596
 k-point 152 :  -0.2632 0.3158 0.0526  plane waves:     600
 k-point 153 :   0.4211 0.3684 0.0526  plane waves:     599
 k-point 154 :   0.4737 0.3684 0.0526  plane waves:     601
 k-point 155 :  -0.4737 0.3684 0.0526  plane waves:     602
 k-point 156 :  -0.4211 0.3684 0.0526  plane waves:     605
 k-point 157 :  -0.3684 0.3684 0.0526  plane waves:     606
 k-point 158 :  -0.3158 0.3684 0.0526  plane waves:     602
 k-point 159 :   0.4737 0.4211 0.0526  plane waves:     610
 k-point 160 :  -0.4737 0.4211 0.0526  plane waves:     603
 k-point 161 :  -0.4211 0.4211 0.0526  plane waves:     606
 k-point 162 :  -0.3684 0.4211 0.0526  plane waves:     607
 k-point 163 :  -0.4737 0.4737 0.0526  plane waves:     608
 k-point 164 :  -0.4211 0.4737 0.0526  plane waves:     610
 k-point 165 :   0.3158 0.2105 0.1053  plane waves:     595
 k-point 166 :   0.3684 0.2105 0.1053  plane waves:     600
 k-point 167 :   0.4211 0.2105 0.1053  plane waves:     602
 k-point 168 :   0.4737 0.2105 0.1053  plane waves:     600
 k-point 169 :  -0.4737 0.2105 0.1053  plane waves:     600
 k-point 170 :  -0.4211 0.2105 0.1053  plane waves:     596
 k-point 171 :   0.3684 0.2632 0.1053  plane waves:     596
 k-point 172 :   0.4211 0.2632 0.1053  plane waves:     600
 k-point 173 :   0.4737 0.2632 0.1053  plane waves:     604
 k-point 174 :  -0.4737 0.2632 0.1053  plane waves:     601
 k-point 175 :  -0.4211 0.2632 0.1053  plane waves:     600
 k-point 176 :  -0.3684 0.2632 0.1053  plane waves:     597
 k-point 177 :  -0.3158 0.2632 0.1053  plane waves:     601
 k-point 178 :  -0.2632 0.2632 0.1053  plane waves:     600
 k-point 179 :  -0.2105 0.2632 0.1053  plane waves:     601
 k-point 180 :  -0.1579 0.2632 0.1053  plane waves:     602
 k-point 181 :   0.4211 0.3158 0.1053  plane waves:     601
 k-point 182 :   0.4737 0.3158 0.1053  plane waves:     603
 k-point 183 :  -0.4737 0.3158 0.1053  plane waves:     601
 k-point 184 :  -0.4211 0.3158 0.1053  plane waves:     601
 k-point 185 :  -0.3684 0.3158 0.1053  plane waves:     605
 k-point 186 :  -0.3158 0.3158 0.1053  plane waves:     601
 k-point 187 :  -0.2632 0.3158 0.1053  plane waves:     601
 k-point 188 :  -0.2105 0.3158 0.1053  plane waves:     602
 k-point 189 :   0.4737 0.3684 0.1053  plane waves:     601
 k-point 190 :  -0.4737 0.3684 0.1053  plane waves:     600
 k-point 191 :  -0.4211 0.3684 0.1053  plane waves:     595
 k-point 192 :  -0.3684 0.3684 0.1053  plane waves:     605
 k-point 193 :  -0.3158 0.3684 0.1053  plane waves:     602
 k-point 194 :  -0.2632 0.3684 0.1053  plane waves:     594
 k-point 195 :  -0.4737 0.4211 0.1053  plane waves:     600
 k-point 196 :  -0.4211 0.4211 0.1053  plane waves:     599
 k-point 197 :  -0.3684 0.4211 0.1053  plane waves:     607
 k-point 198 :  -0.3158 0.4211 0.1053  plane waves:     606
 k-point 199 :  -0.4211 0.4737 0.1053  plane waves:     608
 k-point 200 :  -0.3684 0.4737 0.1053  plane waves:     604
 k-point 201 :   0.4737 0.3158 0.1579  plane waves:     598
 k-point 202 :  -0.4737 0.3158 0.1579  plane waves:     598
 k-point 203 :  -0.4211 0.3158 0.1579  plane waves:     601
 k-point 204 :  -0.3684 0.3158 0.1579  plane waves:     595
 k-point 205 :  -0.4737 0.3684 0.1579  plane waves:     602
 k-point 206 :  -0.4211 0.3684 0.1579  plane waves:     600
 k-point 207 :  -0.3684 0.3684 0.1579  plane waves:     604
 k-point 208 :  -0.3158 0.3684 0.1579  plane waves:     603
 k-point 209 :  -0.2632 0.3684 0.1579  plane waves:     603
 k-point 210 :  -0.2105 0.3684 0.1579  plane waves:     599
 k-point 211 :  -0.4211 0.4211 0.1579  plane waves:     600
 k-point 212 :  -0.3684 0.4211 0.1579  plane waves:     606
 k-point 213 :  -0.3158 0.4211 0.1579  plane waves:     603
 k-point 214 :  -0.2632 0.4211 0.1579  plane waves:     598
 k-point 215 :  -0.3684 0.4737 0.1579  plane waves:     604
 k-point 216 :  -0.3158 0.4737 0.1579  plane waves:     605
 k-point 217 :  -0.3684 0.4211 0.2105  plane waves:     605
 k-point 218 :  -0.3158 0.4211 0.2105  plane waves:     606
 k-point 219 :  -0.3158 0.4737 0.2105  plane waves:     609
 k-point 220 :  -0.2632 0.4737 0.2105  plane waves:     607

 maximum and minimum number of plane-waves per node :       612      584

 maximum number of plane-waves:       612
 maximum index in each direction: 
   IXMAX=    6   IYMAX=    5   IZMAX=    5
   IXMIN=   -6   IYMIN=   -6   IZMIN=   -6


 serial   3D FFT for wavefunctions
 parallel 3D FFT for charge:
    minimum data exchange during FFTs selected (reduces bandwidth)


 total amount of memory used by VASP MPI-rank0    49166. kBytes
=======================================================================

   base      :      30000. kBytes
   nonl-proj :       8636. kBytes
   fftplans  :       4177. kBytes
   grid      :       1926. kBytes
   one-center:          6. kBytes
   wavefun   :       4421. kBytes
 
     INWAV:  cpu time    0.0000: real time    0.0008
 Broyden mixing: mesh for mixing (old mesh)
   NGX = 11   NGY = 11   NGZ = 11
  (NGX  = 48   NGY  = 48   NGZ  = 48)
  gives a total of   1331 points

 initial charge density was supplied:
 charge density of overlapping atoms calculated
 number of electron       8.0000000 magnetization 
 keeping initial charge density in first step


--------------------------------------------------------------------------------------------------------


 Maximum index for augmentation-charges        22271 (set IRDMAX)


--------------------------------------------------------------------------------------------------------


 First call to EWALD:  gamma=   0.517
 Maximum number of real-space cells 3x 3x 3
 Maximum number of reciprocal cells 3x 3x 3

    FEWALD:  cpu time    0.0040: real time    0.0036


--------------------------------------- Iteration      1(   1)  ---------------------------------------


    POTLOK:  cpu time    0.0310: real time    0.0345
    SETDIJ:  cpu time    0.1780: real time    0.1774
     EDDAV:  cpu time    1.7757: real time    1.7783
       DOS:  cpu time    0.0020: real time    0.0034
    --------------------------------------------
      LOOP:  cpu time    1.9877: real time    1.9939

 eigenvalue-minimisations  :  3536
 total energy-change (2. order) : 0.1292426E+01  (-0.2554535E+03)
 number of electron       8.0000000 magnetization 
 augmentation part        8.0000000 magnetization 

 Free energy of the ion-electron system (eV)
  ---------------------------------------------------
  alpha Z        PSCENC =         3.33880741
  Ewald energy   TEWEN  =      -227.98820643
  -Hartree energ DENC   =       -11.11484531
  -exchange      EXHF   =         0.00000000
  -V(xc)+E(xc)   XCENC  =       -18.63153637
  PAW double counting   =       176.24759923     -141.06103558
  entropy T*S    EENTRO =        -0.00032263
  eigenvalues    EBANDS =        14.37071123
  atomic energy  EATOM  =       206.13125414
  Solvation  Ediel_sol  =         0.00000000
  ---------------------------------------------------
  free energy    TOTEN  =         1.29242569 eV

  energy without entropy =        1.29274832  energy(sigma->0) =        1.29258700


--------------------------------------------------------------------------------------------------------




--------------------------------------- Iteration      1(   2)  ---------------------------------------


     EDDAV:  cpu time    2.5826: real time    2.6010
       DOS:  cpu time    0.0020: real time    0.0023
    --------------------------------------------
      LOOP:  cpu time    2.5846: real time    2.6032

 eigenvalue-minimisations  :  5488
 total energy-change (2. order) :-0.1217785E+02  (-0.1175573E+02)
 number of electron       8.0000000 magnetization 
 augmentation part        8.0000000 magnetization 

 Free energy of the ion-electron system (eV)
  ---------------------------------------------------
  alpha Z        PSCENC =         3.33880741
  Ewald energy   TEWEN  =      -227.98820643
  -Hartree energ DENC   =       -11.11484531
  -exchange      EXHF   =         0.00000000
  -V(xc)+E(xc)   XCENC  =       -18.63153637
  PAW double counting   =       176.24759923     -141.06103558
  entropy T*S    EENTRO =        -0.00000000
  eigenvalues    EBANDS =         2.19253802
  atomic energy  EATOM  =       206.13125414
  Solvation  Ediel_sol  =         0.00000000
  ---------------------------------------------------
  free energy    TOTEN  =       -10.88542489 eV

  energy without entropy =      -10.88542489  energy(sigma->0) =      -10.88542489


--------------------------------------------------------------------------------------------------------




--------------------------------------- Iteration      1(   3)  ---------------------------------------


     EDDAV:  cpu time    2.2097: real time    2.2271
       DOS:  cpu time    0.0010: real time    0.0022
    --------------------------------------------
      LOOP:  cpu time    2.2107: real time    2.2294

 eigenvalue-minimisations  :  4560
 total energy-change (2. order) :-0.1355093E+00  (-0.1355093E+00)
 number of electron       8.0000000 magnetization 
 augmentation part        8.0000000 magnetization 

 Free energy of the ion-electron system (eV)
  ---------------------------------------------------
  alpha Z        PSCENC =         3.33880741
  Ewald energy   TEWEN  =      -227.98820643
  -Hartree energ DENC   =       -11.11484531
  -exchange      EXHF   =         0.00000000
  -V(xc)+E(xc)   XCENC  =       -18.63153637
  PAW double counting   =       176.24759923     -141.06103558
  entropy T*S    EENTRO =        -0.00000000
  eigenvalues    EBANDS =         2.05702876
  atomic energy  EATOM  =       206.13125414
  Solvation  Ediel_sol  =         0.00000000
  ---------------------------------------------------
  free energy    TOTEN  =       -11.02093415 eV

  energy without entropy =      -11.02093415  energy(sigma->0) =      -11.02093415


[...]
      8      12.6386      0.00000

 k-point   186 :      -0.3158    0.3158    0.1053
  band No.  band energies     occupation 
      1      -3.1804      2.00000
      2      -0.9846      2.00000
      3       1.6326      2.00000
      4       3.2728      2.00000
      5       8.2254      0.00000
      6       9.8987      0.00000
      7      11.7604      0.00000
      8      12.4292      0.00000

 k-point   187 :      -0.2632    0.3158    0.1053
  band No.  band energies     occupation 
      1      -3.5147      2.00000
      2      -0.5749      2.00000
      3       1.6696      2.00000
      4       3.4669      2.00000
      5       8.4557      0.00000
      6       9.7474      0.00000
      7      10.9205      0.00000
      8      12.4775      0.00000

 k-point   188 :      -0.2105    0.3158    0.1053
  band No.  band energies     occupation 
      1      -3.9025      2.00000
      2      -0.1058      2.00000
      3       1.8680      2.00000
      4       3.7057      2.00000
      5       8.7199      0.00000
      6       9.4285      0.00000
      7      10.3758      0.00000
      8      12.1291      0.00000

 k-point   189 :       0.4737    0.3684    0.1053
  band No.  band energies     occupation 
      1      -3.7825      2.00000
      2      -0.1456      2.00000
      3       2.5188      2.00000
      4       2.9924      2.00000
      5       7.2639      0.00000
      6       8.0498      0.00000
      7      11.6743      0.00000
      8      13.4049      0.00000

 k-point   190 :      -0.4737    0.3684    0.1053
  band No.  band energies     occupation 
      1      -3.3949      2.00000
      2      -0.6137      2.00000
      3       2.1824      2.00000
      4       2.8362      2.00000
      5       7.5257      0.00000
      6       8.4280      0.00000
      7      11.4630      0.00000
      8      13.7198      0.00000

 k-point   191 :      -0.4211    0.3684    0.1053
  band No.  band energies     occupation 
      1      -3.0133      2.00000
      2      -1.0415      2.00000
      3       1.8423      2.00000
      4       2.8029      2.00000
      5       7.6428      0.00000
      6       9.1899      0.00000
      7      11.2562      0.00000
      8      13.7297      0.00000

 k-point   192 :      -0.3684    0.3684    0.1053
  band No.  band energies     occupation 
      1      -2.7567      2.00000
      2      -1.3104      2.00000
      3       1.5730      2.00000
      4       2.8663      2.00000
      5       7.7705      0.00000
      6      10.1024      0.00000
      7      11.0948      0.00000
      8      12.9123      0.00000

 k-point   193 :      -0.3158    0.3684    0.1053
  band No.  band energies     occupation 
      1      -2.8203      2.00000
      2      -1.2361      2.00000
      3       1.4243      2.00000
      4       3.0079      2.00000
      5       7.9494      0.00000
      6      10.7017      0.00000
      7      11.3411      0.00000
      8      11.9214      0.00000

 k-point   194 :      -0.2632    0.3684    0.1053
  band No.  band energies     occupation 
      1      -3.1344      2.00000
      2      -0.9164      2.00000
      3       1.4417      2.00000
      4       3.2136      2.00000
      5       8.1818      0.00000
      6      10.4483      0.00000
      7      11.1383      0.00000
      8      12.4089      0.00000

 k-point   195 :      -0.4737    0.4211    0.1053
  band No.  band energies     occupation 
      1      -3.1401      2.00000
      2      -0.9216      2.00000
      3       2.3920      2.00000
      4       2.6642      2.00000
      5       7.1946      0.00000
      6       7.6510      0.00000
      7      12.5215      0.00000
      8      14.4040      0.00000

 k-point   196 :      -0.4211    0.4211    0.1053
  band No.  band energies     occupation 
      1      -2.7465      2.00000
      2      -1.3225      2.00000
      3       2.0492      2.00000
      4       2.5814      2.00000
      5       7.4272      0.00000
      6       8.1872      0.00000
      7      12.3094      0.00000
      8      14.1445      0.00000

 k-point   197 :      -0.3684    0.4211    0.1053
  band No.  band energies     occupation 
      1      -2.4393      2.00000
      2      -1.6093      2.00000
      3       1.6919      2.00000
      4       2.6475      2.00000
      5       7.5512      0.00000
      6       9.0643      0.00000
      7      12.1024      0.00000
      8      13.0583      0.00000

 k-point   198 :      -0.3158    0.4211    0.1053
  band No.  band energies     occupation 
      1      -2.4996      2.00000
      2      -1.5300      2.00000
      3       1.4591      2.00000
      4       2.7948      2.00000
      5       7.7217      0.00000
      6      10.0602      0.00000
      7      11.7976      0.00000
      8      12.1364      0.00000

 k-point   199 :      -0.4211    0.4737    0.1053
  band No.  band energies     occupation 
      1      -2.4388      2.00000
      2      -1.6932      2.00000
      3       2.3696      2.00000
      4       2.4581      2.00000
      5       7.2302      0.00000
      6       7.3797      0.00000
      7      13.4208      0.00000
      8      14.3422      0.00000

 k-point   200 :      -0.3684    0.4737    0.1053
  band No.  band energies     occupation 
      1      -2.1485      2.00000
      2      -1.9414      2.00000
      3       2.0046      2.00000
      4       2.4958      2.00000
      5       7.3951      0.00000
      6       8.1058      0.00000
      7      13.1534      0.00000
      8      13.2866      0.00000

 k-point   201 :       0.4737    0.3158    0.1579
  band No.  band energies     occupation 
      1      -4.1624      2.00000
      2       0.2774      2.00000
      3       2.2808      2.00000
      4       3.5613      2.00000
      5       8.3607      0.00000
      6       9.3717      0.00000
      7       9.7694      0.00000
      8      12.2703      0.00000

 k-point   202 :      -0.4737    0.3158    0.1579
  band No.  band energies     occupation 
      1      -3.7773      2.00000
      2      -0.2373      2.00000
      3       2.0043      2.00000
      4       3.3341      2.00000
      5       8.6543      0.00000
      6       9.4787      0.00000
      7       9.8348      0.00000
      8      12.6031      0.00000

 k-point   203 :      -0.4211    0.3158    0.1579
  band No.  band energies     occupation 
      1      -3.3968      2.00000
      2      -0.7332      2.00000
      3       1.8501      2.00000
      4       3.1581      2.00000
      5       8.7844      0.00000
      6       9.2661      0.00000
      7      10.5910      0.00000
      8      12.7185      0.00000

 k-point   204 :      -0.3684    0.3158    0.1579
  band No.  band energies     occupation 
      1      -3.1221      2.00000
      2      -1.0745      2.00000
      3       1.7833      2.00000
      4       3.0627      2.00000
      5       8.8930      0.00000
      6       9.0816      0.00000
      7      11.5212      0.00000
      8      12.6332      0.00000

 k-point   205 :      -0.4737    0.3684    0.1579
  band No.  band energies     occupation 
      1      -3.6137      2.00000
      2      -0.3536      2.00000
      3       2.0824      2.00000
      4       2.9844      2.00000
      5       8.2032      0.00000
      6       8.8876      0.00000
      7      10.4540      0.00000
      8      13.3545      0.00000

 k-point   206 :      -0.4211    0.3684    0.1579
  band No.  band energies     occupation 
      1      -3.2236      2.00000
      2      -0.7934      2.00000
      3       1.8391      2.00000
      4       2.7836      2.00000
      5       8.4854      0.00000
      6       9.4033      0.00000
      7      10.2463      0.00000
      8      13.6819      0.00000

 k-point   207 :      -0.3684    0.3684    0.1579
  band No.  band energies     occupation 
      1      -2.8922      2.00000
      2      -1.1573      2.00000
      3       1.6665      2.00000
      4       2.6928      2.00000
      5       8.6182      0.00000
      6       9.8728      0.00000
      7      10.4451      0.00000
      8      12.7065      0.00000

 k-point   208 :      -0.3158    0.3684    0.1579
  band No.  band energies     occupation 
      1      -2.7965      2.00000
      2      -1.2580      2.00000
      3       1.5696      2.00000
      4       2.7203      2.00000
      5       8.7714      0.00000
      6       9.7603      0.00000
      7      11.2995      0.00000
      8      11.7343      0.00000

 k-point   209 :      -0.2632    0.3684    0.1579
  band No.  band energies     occupation 
      1      -3.0232      2.00000
      2      -1.0124      2.00000
      3       1.5713      2.00000
      4       2.8525      2.00000
      5       8.9702      0.00000
      6       9.6039      0.00000
      7      10.6300      0.00000
      8      12.5397      0.00000

 k-point   210 :      -0.2105    0.3684    0.1579
  band No.  band energies     occupation 
      1      -3.3921      2.00000
      2      -0.6214      2.00000
      3       1.7062      2.00000
      4       3.0673      2.00000
      5       9.2103      0.00000
      6       9.2849      0.00000
      7       9.9887      0.00000
      8      13.2803      0.00000

 k-point   211 :      -0.4211    0.4211    0.1579
  band No.  band energies     occupation 
      1      -3.0060      2.00000
      2      -1.0086      2.00000
      3       1.9961      2.00000
      4       2.5239      2.00000
      5       8.1315      0.00000
      6       8.5270      0.00000
      7      11.2285      0.00000
      8      13.9707      0.00000

 k-point   212 :      -0.3684    0.4211    0.1579
  band No.  band energies     occupation 
      1      -2.6361      2.00000
      2      -1.3695      2.00000
      3       1.7742      2.00000
      4       2.3901      2.00000
      5       8.3815      0.00000
      6       9.2096      0.00000
      7      11.0156      0.00000
      8      12.8356      0.00000

 k-point   213 :      -0.3158    0.4211    0.1579
  band No.  band energies     occupation 
      1      -2.4591      2.00000
      2      -1.5329      2.00000
      3       1.5705      2.00000
      4       2.4374      2.00000
      5       8.5327      0.00000
      6      10.1095      0.00000
      7      10.8825      0.00000
      8      11.7500      0.00000

 k-point   214 :      -0.2632    0.4211    0.1579
  band No.  band energies     occupation 
      1      -2.6634      2.00000
      2      -1.3300      2.00000
      3       1.4838      2.00000
      4       2.6029      2.00000
      5       8.7288      0.00000
      6      10.3423      0.00000
      7      10.8571      0.00000
      8      11.4481      0.00000

 k-point   215 :      -0.3684    0.4737    0.1579
  band No.  band energies     occupation 
      1      -2.3554      2.00000
      2      -1.6820      2.00000
      3       2.0334      2.00000
      4       2.2062      2.00000
      5       8.1561      0.00000
      6       8.2853      0.00000
      7      12.0841      0.00000
      8      13.0102      0.00000

 k-point   216 :      -0.3158    0.4737    0.1579
  band No.  band energies     occupation 
      1      -2.1590      2.00000
      2      -1.8406      2.00000
      3       1.7708      2.00000
      4       2.2363      2.00000
      5       8.3468      0.00000
      6       9.1428      0.00000
      7      11.8306      0.00000
      8      11.9425      0.00000

 k-point   217 :      -0.3684    0.4211    0.2105
  band No.  band energies     occupation 
      1      -2.8399      2.00000
      2      -1.1482      2.00000
      3       1.6744      2.00000
      4       2.4988      2.00000
      5       9.2155      0.00000
      6       9.4741      0.00000
      7      10.0849      0.00000
      8      12.6633      0.00000

 k-point   218 :      -0.3158    0.4211    0.2105
  band No.  band energies     occupation 
      1      -2.5301      2.00000
      2      -1.4455      2.00000
      3       1.6054      2.00000
      4       2.3352      2.00000
      5       9.4081      0.00000
      6       9.7162      0.00000
      7      10.4812      0.00000
      8      11.5606      0.00000

 k-point   219 :      -0.3158    0.4737    0.2105
  band No.  band energies     occupation 
      1      -2.2674      2.00000
      2      -1.6978      2.00000
      3       1.7893      2.00000
      4       2.0640      2.00000
      5       9.2296      0.00000
      6       9.3295      0.00000
      7      10.8118      0.00000
      8      11.6930      0.00000

 k-point   220 :      -0.2632    0.4737    0.2105
  band No.  band energies     occupation 
      1      -2.1974      2.00000
      2      -1.7526      2.00000
      3       1.6943      2.00000
      4       2.0756      2.00000
      5       9.4176      0.00000
      6      10.0849      0.00000
      7      10.6960      0.00000
      8      10.7742      0.00000


--------------------------------------------------------------------------------------------------------


 soft charge-density along one line, spin component           1
         0         1         2         3         4         5         6         7         8         9
 total charge-density along one line
 
 pseudopotential strength for first ion, spin component:           1
 18.437  25.722   0.000  -0.000   0.000   0.000  -0.000   0.000
 25.722  35.892   0.000  -0.000   0.000   0.000  -0.000   0.000
  0.000   0.000   4.181  -0.000  -0.000   7.791  -0.000  -0.000
 -0.000  -0.000  -0.000   4.181  -0.000  -0.000   7.791  -0.000
  0.000   0.000  -0.000  -0.000   4.181  -0.000  -0.000   7.791
  0.000   0.000   7.791  -0.000  -0.000  14.528  -0.000  -0.000
 -0.000  -0.000  -0.000   7.791  -0.000  -0.000  14.528  -0.000
  0.000   0.000  -0.000  -0.000   7.791  -0.000  -0.000  14.528
 total augmentation occupancy for first ion, spin component:           1
  5.531  -2.065   0.000   0.000   0.000   0.000   0.000   0.000
 -2.065   0.887   0.000   0.000   0.000  -0.000  -0.000  -0.000
 -0.000   0.000   2.942  -0.000   0.000  -0.663  -0.000  -0.000
  0.000   0.000   0.000   2.942   0.000  -0.000  -0.663  -0.000
  0.000   0.000   0.000   0.000   2.942  -0.000  -0.000  -0.663
 -0.000  -0.000  -0.663   0.000  -0.000   0.158  -0.000   0.000
 -0.000  -0.000  -0.000  -0.663  -0.000   0.000   0.158   0.000
  0.000  -0.000  -0.000   0.000  -0.663   0.000  -0.000   0.158


------------------------ aborting loop because EDIFF is reached ----------------------------------------


    CHARGE:  cpu time    0.1270: real time    0.1269
    FORLOC:  cpu time    0.0010: real time    0.0017
    FORNL :  cpu time    0.1590: real time    0.1596
    STRESS:  cpu time    1.5898: real time    1.5909
    FORCOR:  cpu time    0.0310: real time    0.0313
    FORHAR:  cpu time    0.0060: real time    0.0060
    MIXING:  cpu time    0.0010: real time    0.0012
    OFIELD:  cpu time    0.0010: real time    0.0002

  FORCE on cell =-STRESS in cart. coord.  units (eV):
  Direction    XX          YY          ZZ          XY          YZ          ZX
  --------------------------------------------------------------------------------------
  Alpha Z     3.29543     3.29543     3.29543
  Ewald     -75.66556   -75.66564   -75.66555     0.00001     0.00000     0.00000
  Hartree     5.05399     5.05399     5.05399     0.00000     0.00000     0.00000
  E(xc)     -25.25215   -25.25215   -25.25215    -0.00000    -0.00000    -0.00000
  Local     -29.52422   -29.52421   -29.52420    -0.00000     0.00001     0.00001
  n-local    73.87971    77.20438    81.38117    -0.88609    -0.98161    -0.01404
  augment   -11.64880   -11.64879   -11.64881    -0.00000    -0.00001    -0.00001
  Kinetic    53.02649    55.03373    60.70380     0.86478     1.28454    -0.58852
  Fock        0.00000     0.00000     0.00000     0.00000     0.00000     0.00000
  -------------------------------------------------------------------------------------
  Total       0.00177     0.00177     0.00177     0.00000     0.00000    -0.00000
  in kB       0.06941     0.06941     0.06941     0.00000     0.00000    -0.00000
  external pressure =        0.07 kB  Pullay stress =        0.00 kB


 VOLUME and BASIS-vectors are now :
 -----------------------------------------------------------------------------
  energy-cutoff  :      350.00
  volume of cell :       40.86
      direct lattice vectors                 reciprocal lattice vectors
     3.348134517 -0.000000000  1.933046092     0.298673782 -0.105597087 -0.000000000
     1.116044839  3.156652746  1.933046092    -0.000000000  0.316791260  0.000000000
     0.000000000 -0.000000000  3.866092185    -0.149336891 -0.105597087  0.258659119

  length of vectors
     3.866092593  3.866093615  3.866092185     0.316791371  0.316791260  0.316791401


 FORCES acting on ions
    electron-ion (+dipol)            ewald-force                    non-local-force                 convergence-correction
 -----------------------------------------------------------------------------------------------
   0.525E-05 0.245E-04 0.591E-07   -.892E-05 -.418E-04 -.101E-13   0.936E-16 0.347E-16 0.236E-15   -.458E-07 -.321E-07 -.794E-07
   -.525E-05 -.245E-04 -.591E-07   0.892E-05 0.418E-04 0.996E-14   -.114E-15 0.346E-16 -.222E-15   0.458E-07 0.321E-07 0.794E-07
 -----------------------------------------------------------------------------------------------
   0.490E-13 -.472E-13 0.115E-12   -.324E-15 0.583E-16 -.147E-15   -.208E-16 0.694E-16 0.139E-16   0.687E-15 -.380E-15 -.229E-17
 
 
 POSITION                                       TOTAL-FORCE (eV/Angst)
 -----------------------------------------------------------------------------------
      3.90616      2.76207      6.76566         0.000000     -0.000000      0.000000
      0.55802      0.39458      0.96652        -0.000000      0.000000     -0.000000
 -----------------------------------------------------------------------------------
    total drift:                                0.000000     -0.000000      0.000000


--------------------------------------------------------------------------------------------------------



  FREE ENERGIE OF THE ION-ELECTRON SYSTEM (eV)
  ---------------------------------------------------
  free  energy   TOTEN  =       -10.84766829 eV

  energy  without entropy=      -10.84766829  energy(sigma->0) =      -10.84766829
 
 d Force = 0.0000000E+00[ 0.000E+00, 0.000E+00]  d Energy = 0.8984005E-03-0.898E-03
 d Force = 0.0000000E+00[ 0.000E+00, 0.000E+00]  d Ewald  = 0.6759329E+00-0.676E+00


--------------------------------------------------------------------------------------------------------


    POTLOK:  cpu time    0.2050: real time    0.2129


--------------------------------------------------------------------------------------------------------




--------------------------------------------------------------------------------------------------------


  
 reached required accuracy - stopping structural energy minimisation
     LOOP+:  cpu time   16.1535: real time   16.4677
    4ORBIT:  cpu time    0.0000: real time    0.0000

 total amount of memory used by VASP MPI-rank0    49166. kBytes
=======================================================================

   base      :      30000. kBytes
   nonl-proj :       8636. kBytes
   fftplans  :       4177. kBytes
   grid      :       1926. kBytes
   one-center:          6. kBytes
   wavefun   :       4421. kBytes
 
  
  
 General timing and accounting informations for this job:
 ========================================================
  
                  Total CPU time used (sec):       63.638
                            User time (sec):       62.702
                          System time (sec):        0.936
                         Elapsed time (sec):       65.613
  
                   Maximum memory used (kb):       75112.
                   Average memory used (kb):          N/A
  
                          Minor page faults:        15167
                          Major page faults:            1
                 Voluntary context switches:        34972
