 running on    4 total cores
 distrk:  each k-point on    4 cores,    1 groups
 distr:  one band on    1 cores,    4 groups
 vasp.6.2.0 18Jan21 (build Aug 12 2022 13:00:08) complex                        
  
 POSCAR found type information on POSCAR Si
 POSCAR found :  1 types and       2 ions
 scaLAPACK will be used
 LDA part: xc-table for Pade appr. of Perdew
 POSCAR, INCAR and KPOINTS ok, starting setup
 FFT: planning ...
 WAVECAR not read
 entering main loop
       N       E                     dE             d eps       ncg     rms          rms(c)
DAV:   1     0.129242569070E+01    0.12924E+01   -0.25545E+03  3536   0.576E+02
DAV:   2    -0.108854248913E+02   -0.12178E+02   -0.11756E+02  5488   0.661E+01
DAV:   3    -0.110209341523E+02   -0.13551E+00   -0.13551E+00  4560   0.889E+00
DAV:   4    -0.110214647008E+02   -0.53055E-03   -0.53055E-03  5536   0.584E-01
DAV:   5    -0.110214654044E+02   -0.70362E-06   -0.70362E-06  4744   0.148E-02    0.486E+00
DAV:   6    -0.108999641771E+02    0.12150E+00   -0.80018E-02  4184   0.147E+00    0.297E+00
DAV:   7    -0.108444124651E+02    0.55552E-01   -0.15208E-01  4472   0.216E+00    0.186E-01
DAV:   8    -0.108454737189E+02   -0.10613E-02   -0.38574E-03  4056   0.464E-01    0.738E-02
DAV:   9    -0.108456663167E+02   -0.19260E-03   -0.18948E-04  5296   0.107E-01    0.571E-02
DAV:  10    -0.108456918152E+02   -0.25499E-04   -0.30287E-05  4176   0.410E-02    0.989E-03
DAV:  11    -0.108456914560E+02    0.35921E-06   -0.55615E-07  4840   0.515E-03
   1 F= -.10845691E+02 E0= -.10845691E+02  d E =-.108457E+02
 curvature:   0.00 expect dE= 0.000E+00 dE for cont linesearch  0.000E+00
 trial: gam= 0.00000 g(F)=  0.396E-43 g(S)=  0.675E-02 ort = 0.000E+00 (trialstep = 0.100E+01)
 search vector abs. value=  0.675E-02
 bond charge predicted
       N       E                     dE             d eps       ncg     rms          rms(c)
DAV:   1    -0.108494714868E+02   -0.37797E-02   -0.10417E-01  4400   0.181E+00    0.303E-01
DAV:   2    -0.108477056336E+02    0.17659E-02   -0.14729E-03  4720   0.255E-01    0.183E-01
DAV:   3    -0.108467760765E+02    0.92956E-03   -0.19215E-03  4240   0.221E-01    0.605E-02
DAV:   4    -0.108467759847E+02    0.91786E-07   -0.19297E-05  5000   0.392E-02    0.541E-02
DAV:   5    -0.108467697416E+02    0.62431E-05   -0.50934E-06  4176   0.164E-02    0.131E-02
DAV:   6    -0.108467698848E+02   -0.14322E-06   -0.52775E-08  2376   0.217E-03
   2 F= -.10846770E+02 E0= -.10846770E+02  d E =-.107843E-02
 trial-energy change:   -0.001078  1 .order   -0.001173   -0.006751    0.004406
 step:   0.5929(harm=  0.6051)  dis= 0.00000  next Energy=   -10.847673 (dE=-0.198E-02)
 bond charge predicted
       N       E                     dE             d eps       ncg     rms          rms(c)
DAV:   1    -0.108481040906E+02   -0.13343E-02   -0.17486E-02  4384   0.747E-01    0.126E-01
DAV:   2    -0.108478132130E+02    0.29088E-03   -0.24405E-04  4768   0.104E-01    0.758E-02
DAV:   3    -0.108476660005E+02    0.14721E-03   -0.32005E-04  4184   0.905E-02    0.251E-02
DAV:   4    -0.108476666341E+02   -0.63360E-06   -0.32146E-06  4904   0.161E-02    0.226E-02
DAV:   5    -0.108476683338E+02   -0.16997E-05   -0.82417E-07  3768   0.669E-03    0.592E-03
DAV:   6    -0.108476682853E+02    0.48458E-07   -0.10268E-08  2016   0.947E-04
   3 F= -.10847668E+02 E0= -.10847668E+02  d E =-.197683E-02
 curvature:  -0.30 expect dE=-0.685E-07 dE for cont linesearch -0.685E-07
 trial: gam=-0.00576 g(F)=  0.190E-42 g(S)=  0.227E-06 ort = 0.391E-04 (trialstep = 0.919E+00)
 search vector abs. value=  0.108E-09
 reached required accuracy - stopping structural energy minimisation
