unknown system                          
   1.00000000000000     
     2.828107   -0.000000    0.000000
     0.000000    2.828107    0.000000
     0.000000   -0.000000    2.828107
   Fe
     2
Direct
 -0.000000 -0.000000  0.000000
  0.500000  0.500000  0.500000
 
   36   36   36
 0.19156878113E+03 0.18690004402E+03 0.17353888692E+03 0.15326805254E+03 0.12862952618E+03
 0.10242073157E+03 0.77232028313E+02 0.55087255267E+02 0.37255366680E+02 0.24199812274E+02
 0.15659707756E+02 0.10799814342E+02 0.84642750374E+01 0.73649995655E+01 0.66161260302E+01
 0.60960718930E+01 0.57768540485E+01 0.56112106960E+01 0.55597770080E+01 0.56112106960E+01
 0.57768540485E+01 0.60960718930E+01 0.66161260302E+01 0.73649995655E+01 0.84642750374E+01
 0.10799814342E+02 0.15659707756E+02 0.24199812274E+02 0.37255366680E+02 0.55087255267E+02
 0.77232028313E+02 0.10242073157E+03 0.12862952618E+03 0.15326805254E+03 0.17353888692E+03
 0.18690004402E+03 0.18690004402E+03 0.18236166759E+03 0.16936898818E+03 0.14964226096E+03
 0.12564198426E+03 0.10008434764E+03 0.75497111826E+02 0.53866062490E+02 0.36450073233E+02
 0.23710844661E+02 0.15396598323E+02 0.10683240762E+02 0.84256537732E+01 0.73498190587E+01
 0.66065322338E+01 0.60930076192E+01 0.57772804081E+01 0.56142646864E+01 0.55631092739E+01
 0.56142646864E+01 0.57772804081E+01 0.60930076192E+01 0.66065322338E+01 0.73498190587E+01
 0.84256537732E+01 0.10683240762E+02 0.15396598323E+02 0.23710844661E+02 0.36450073233E+02
 0.53866062490E+02 0.75497111826E+02 0.10008434764E+03 0.12564198426E+03 0.14964226096E+03
 0.16936898818E+03 0.18236166759E+03 0.17353888692E+03 0.16936898818E+03 0.15741766211E+03
 0.13923206641E+03 0.11704314859E+03 0.93341001795E+02 0.70478790485E+02 0.50335218362E+02
 0.34122665452E+02 0.22303800703E+02 0.14646959241E+02 0.10355315905E+02 0.83179501269E+01
 0.73037882160E+01 0.65782225089E+01 0.60835091665E+01 0.57784576508E+01 0.56226318477E+01
 0.55727214346E+01 0.56226318477E+01 0.57784576508E+01 0.60835091665E+01 0.65782225089E+01
 0.73037882160E+01 0.83179501269E+01 0.10355315905E+02 0.14646959241E+02 0.22303800703E+02
 0.34122665452E+02 0.50335218362E+02 0.70478790485E+02 0.93341001795E+02 0.11704314859E+03
 0.13923206641E+03 0.15741766211E+03 0.16936898818E+03 0.15326805254E+03 0.14964226096E+03
 0.13923206641E+03 0.12333758646E+03 0.10386054487E+03 0.82961726330E+02 0.62731021689E+02
 0.44877792853E+02 0.30539657717E+02 0.20159413363E+02 0.13524554361E+02 0.98793348788E+01
 0.81598879509E+01 0.72259910342E+01 0.65317514694E+01 0.60673887558E+01 0.57801054433E+01
 0.56353009706E+01 0.55877386498E+01 0.56353009706E+01 0.57801054433E+01 0.60673887558E+01
 0.65317514694E+01 0.72259910342E+01 0.81598879509E+01 0.98793348788E+01 0.13524554361E+02
 0.20159413363E+02 0.30539657717E+02 0.44877792853E+02 0.62731021689E+02 0.82961726330E+02
 0.10386054487E+03 0.12333758646E+03 0.13923206641E+03 0.14964226096E+03 0.12862952618E+03
 0.12564198426E+03 0.11704314859E+03 0.10386054487E+03 0.87622585844E+02 0.70114996103E+02
 0.53113163477E+02 0.38114380227E+02 0.26131159526E+02 0.17565829241E+02 0.12206554704E+02
 0.93435521381E+01 0.79706636672E+01 0.71141735933E+01 0.64701458886E+01 0.60438160404E+01
 0.57821634210E+01 0.56496125928E+01 0.56068939178E+01 0.56496125928E+01 0.57821634210E+01
 0.60438160404E+01 0.64701458886E+01 0.71141735933E+01 0.79706636672E+01 0.93435521381E+01
 0.12206554704E+02 0.17565829241E+02 0.26131159526E+02 0.38114380227E+02 0.53113163477E+02
 0.70114996103E+02 0.87622585844E+02 0.10386054487E+03 0.11704314859E+03 0.12564198426E+03
 0.10242073157E+03 0.10008434764E+03 0.93341001795E+02 0.82961726330E+02 0.70114996103E+02
 0.56213979869E+02 0.42700040010E+02 0.30827432692E+02 0.21447918418E+02 0.14882676473E+02
 0.10898624210E+02 0.88334631054E+01 0.77553320974E+01 0.69713290411E+01 0.63961124201E+01
 0.60136450510E+01 0.57837760708E+01 0.56639754555E+01 0.56280194569E+01 0.56639754555E+01
 0.57837760708E+01 0.60136450510E+01 0.63961124201E+01 0.69713290411E+01 0.77553320974E+01
 0.88334631054E+01 0.10898624210E+02 0.14882676473E+02 0.21447918418E+02 0.30827432692E+02
 0.42700040010E+02 0.56213979869E+02 0.70114996103E+02 0.82961726330E+02 0.93341001795E+02
 0.10008434764E+03 0.77232028313E+02 0.75497111826E+02 0.70478790485E+02 0.62731021689E+02
 0.53113163477E+02 0.42700040010E+02 0.32616423725E+02 0.23854494082E+02 0.17066506209E+02
 0.12465403293E+02 0.97825588070E+01 0.83890785541E+01 0.75061171562E+01 0.68084949356E+01
 0.63120729266E+01 0.59796951799E+01 0.57825475129E+01 0.56772926072E+01 0.56472264582E+01
 0.56772926072E+01 0.57825475129E+01 0.59796951799E+01 0.63120729266E+01 0.68084949356E+01
 0.75061171562E+01 0.83890785541E+01 0.97825588070E+01 0.12465403293E+02 0.17066506209E+02
 0.23854494082E+02 0.32616423725E+02 0.42700040010E+02 0.53113163477E+02 0.62731021689E+02
 0.70478790485E+02 0.75497111826E+02 0.55087255267E+02 0.53866062490E+02 0.50335218362E+02
 0.44877792853E+02 0.38114380227E+02 0.30827432692E+02 0.23854494082E+02 0.17913655790E+02
 0.13464116172E+02 0.10572945740E+02 0.89437500118E+01 0.79833553246E+01 0.72261140526E+01
 0.66398402151E+01 0.62208255698E+01 0.59451335226E+01 0.57766335910E+01 0.56892816048E+01
 0.56614275285E+01 0.56892816048E+01 0.57766335910E+01 0.59451335226E+01 0.62208255698E+01
 0.66398402151E+01 0.72261140526E+01 0.79833553246E+01 0.89437500118E+01 0.10572945740E+02
 0.13464116172E+02 0.17913655790E+02 0.23854494082E+02 0.30827432692E+02 0.38114380227E+02
 0.44877792853E+02 0.50335218362E+02 0.53866062490E+02 0.37255366680E+02 0.36450073233E+02
 0.34122665452E+02 0.30539657717E+02 0.26131159526E+02 0.21447918418E+02 0.17066506209E+02
 0.13464116172E+02 0.10884641805E+02 0.92835538065E+01 0.83191486792E+01 0.75686910706E+01
 0.69444341476E+01 0.64706555100E+01 0.61322964742E+01 0.59075618713E+01 0.57684421029E+01
 0.56947365006E+01 0.56713653507E+01 0.56947365006E+01 0.57684421029E+01 0.59075618713E+01
 0.61322964742E+01 0.64706555100E+01 0.69444341476E+01 0.75686910706E+01 0.83191486792E+01
 0.92835538065E+01 0.10884641805E+02 0.13464116172E+02 0.17066506209E+02 0.21447918418E+02
 0.26131159526E+02 0.30539657717E+02 0.34122665452E+02 0.36450073233E+02 0.24199812274E+02
 0.23710844661E+02 0.22303800703E+02 0.20159413363E+02 0.17565829241E+02 0.14882676473E+02
 0.12465403293E+02 0.10572945740E+02 0.92835538065E+01 0.84415307673E+01 0.77618758960E+01
 0.71628598177E+01 0.66798841163E+01 0.63115672182E+01 0.60484343601E+01 0.58691631478E+01
 0.57567183646E+01 0.56946344648E+01 0.56754396871E+01 0.56946344648E+01 0.57567183646E+01
 0.58691631478E+01 0.60484343601E+01 0.63115672182E+01 0.66798841163E+01 0.71628598177E+01
 0.77618758960E+01 0.84415307673E+01 0.92835538065E+01 0.10572945740E+02 0.12465403293E+02
 0.14882676473E+02 0.17565829241E+02 0.20159413363E+02 0.22303800703E+02 0.23710844661E+02
 0.15659707756E+02 0.15396598323E+02 0.14646959241E+02 0.13524554361E+02 0.12206554704E+02
 0.10898624210E+02 0.97825588070E+01 0.89437500118E+01 0.83191486792E+01 0.77618758960E+01
 0.72424717602E+01 0.67999196834E+01 0.64424096107E+01 0.61702461567E+01 0.59708646513E+01
 0.58316886090E+01 0.57399001771E+01 0.56883442857E+01 0.56713653507E+01 0.56883442857E+01
 0.57399001771E+01 0.58316886090E+01 0.59708646513E+01 0.61702461567E+01 0.64424096107E+01
 0.67999196834E+01 0.72424717602E+01 0.77618758960E+01 0.83191486792E+01 0.89437500118E+01
 0.97825588070E+01 0.10898624210E+02 0.12206554704E+02 0.13524554361E+02 0.14646959241E+02
 0.15396598323E+02 0.10799814342E+02 0.10683240762E+02 0.10355315905E+02 0.98793348788E+01
 0.93435521381E+01 0.88334631054E+01 0.83890785541E+01 0.79833553246E+01 0.75686910706E+01
 0.71628598177E+01 0.67999196834E+01 0.64905222428E+01 0.62415541176E+01 0.60473253974E+01
 0.59001713741E+01 0.57922336826E+01 0.57187195589E+01 0.56755101839E+01 0.56614275285E+01
 0.56755101839E+01 0.57187195589E+01 0.57922336826E+01 0.59001713741E+01 0.60473253974E+01
 0.62415541176E+01 0.64905222428E+01 0.67999196834E+01 0.71628598177E+01 0.75686910706E+01
 0.79833553246E+01 0.83890785541E+01 0.88334631054E+01 0.93435521381E+01 0.98793348788E+01
 0.10355315905E+02 0.10683240762E+02 0.84642750374E+01 0.84256537732E+01 0.83179501269E+01
 0.81598879509E+01 0.79706636672E+01 0.77553320974E+01 0.75061171562E+01 0.72261140526E+01
 0.69444341476E+01 0.66798841163E+01 0.64424096107E+01 0.62415541176E+01 0.60758312751E+01
 0.59415367299E+01 0.58350917173E+01 0.57537984345E+01 0.56951266695E+01 0.56594042247E+01
 0.56472264582E+01 0.56594042247E+01 0.56951266695E+01 0.57537984345E+01 0.58350917173E+01
 0.59415367299E+01 0.60758312751E+01 0.62415541176E+01 0.64424096107E+01 0.66798841163E+01
 0.69444341476E+01 0.72261140526E+01 0.75061171562E+01 0.77553320974E+01 0.79706636672E+01
 0.81598879509E+01 0.83179501269E+01 0.84256537732E+01 0.73649995655E+01 0.73498190587E+01
 0.73037882160E+01 0.72259910342E+01 0.71141735933E+01 0.69713290411E+01 0.68084949356E+01
 0.66398402151E+01 0.64706555100E+01 0.63115672182E+01 0.61702461567E+01 0.60473253974E+01
 0.59415367299E+01 0.58517694984E+01 0.57770161114E+01 0.57152348825E+01 0.56681626003E+01
 0.56381949504E+01 0.56280194569E+01 0.56381949504E+01 0.56681626003E+01 0.57152348825E+01
 0.57770161114E+01 0.58517694984E+01 0.59415367299E+01 0.60473253974E+01 0.61702461567E+01
 0.63115672182E+01 0.64706555100E+01 0.66398402151E+01 0.68084949356E+01 0.69713290411E+01
 0.71141735933E+01 0.72259910342E+01 0.73037882160E+01 0.73498190587E+01 0.66161260302E+01
 0.66065322338E+01 0.65782225089E+01 0.65317514694E+01 0.64701458886E+01 0.63961124201E+01
 0.63120729266E+01 0.62208255698E+01 0.61322964742E+01 0.60484343601E+01 0.59708646513E+01
 0.59001713741E+01 0.58350917173E+01 0.57770161114E+01 0.57235643061E+01 0.56766499848E+01
 0.56392443736E+01 0.56153147557E+01 0.56068939178E+01 0.56153147557E+01 0.56392443736E+01
 0.56766499848E+01 0.57235643061E+01 0.57770161114E+01 0.58350917173E+01 0.59001713741E+01
 0.59708646513E+01 0.60484343601E+01 0.61322964742E+01 0.62208255698E+01 0.63120729266E+01
 0.63961124201E+01 0.64701458886E+01 0.65317514694E+01 0.65782225089E+01 0.66065322338E+01
 0.60960718930E+01 0.60930076192E+01 0.60835091665E+01 0.60673887558E+01 0.60438160404E+01
 0.60136450510E+01 0.59796951799E+01 0.59451335226E+01 0.59075618713E+01 0.58691631478E+01
 0.58316886090E+01 0.57922336826E+01 0.57537984345E+01 0.57152348825E+01 0.56766499848E+01
 0.56410817483E+01 0.56126077781E+01 0.55940859691E+01 0.55877386498E+01 0.55940859691E+01
 0.56126077781E+01 0.56410817483E+01 0.56766499848E+01 0.57152348825E+01 0.57537984345E+01
 0.57922336826E+01 0.58316886090E+01 0.58691631478E+01 0.59075618713E+01 0.59451335226E+01
 0.59796951799E+01 0.60136450510E+01 0.60438160404E+01 0.60673887558E+01 0.60835091665E+01
 0.60930076192E+01 0.57768540485E+01 0.57772804081E+01 0.57784576508E+01 0.57801054433E+01
 0.57821634210E+01 0.57837760708E+01 0.57825475129E+01 0.57766335910E+01 0.57684421029E+01
 0.57567183646E+01 0.57399001771E+01 0.57187195589E+01 0.56951266695E+01 0.56681626003E+01
 0.56392443736E+01 0.56126077781E+01 0.55912395164E+01 0.55775196371E+01 0.55727214346E+01
 0.55775196371E+01 0.55912395164E+01 0.56126077781E+01 0.56392443736E+01 0.56681626003E+01
 0.56951266695E+01 0.57187195589E+01 0.57399001771E+01 0.57567183646E+01 0.57684421029E+01
 0.57766335910E+01 0.57825475129E+01 0.57837760708E+01 0.57821634210E+01 0.57801054433E+01
 0.57784576508E+01 0.57772804081E+01 0.56112106960E+01 0.56142646864E+01 0.56226318477E+01
 0.56353009706E+01 0.56496125928E+01 0.56639754555E+01 0.56772926072E+01 0.56892816048E+01
 0.56947365006E+01 0.56946344648E+01 0.56883442857E+01 0.56755101839E+01 0.56594042247E+01
 0.56381949504E+01 0.56153147557E+01 0.55940859691E+01 0.55775196371E+01 0.55667265526E+01
 0.55631092739E+01 0.55667265526E+01 0.55775196371E+01 0.55940859691E+01 0.56153147557E+01
 0.56381949504E+01 0.56594042247E+01 0.56755101839E+01 0.56883442857E+01 0.56946344648E+01
 0.56947365006E+01 0.56892816048E+01 0.56772926072E+01 0.56639754555E+01 0.56496125928E+01
 0.56353009706E+01 0.56226318477E+01 0.56142646864E+01 0.55597770080E+01 0.55631092739E+01
 0.55727214346E+01 0.55877386498E+01 0.56068939178E+01 0.56280194569E+01 0.56472264582E+01
 0.56614275285E+01 0.56713653507E+01 0.56754396871E+01 0.56713653507E+01 0.56614275285E+01
 0.56472264582E+01 0.56280194569E+01 0.56068939178E+01 0.55877386498E+01 0.55727214346E+01
 0.55631092739E+01 0.55597770080E+01 0.55631092739E+01 0.55727214346E+01 0.55877386498E+01
 0.56068939178E+01 0.56280194569E+01 0.56472264582E+01 0.56614275285E+01 0.56713653507E+01
 0.56754396871E+01 0.56713653507E+01 0.56614275285E+01 0.56472264582E+01 0.56280194569E+01
 0.56068939178E+01 0.55877386498E+01 0.55727214346E+01 0.55631092739E+01 0.56112106960E+01
 0.56142646864E+01 0.56226318477E+01 0.56353009706E+01 0.56496125928E+01 0.56639754555E+01
 0.56772926072E+01 0.56892816048E+01 0.56947365006E+01 0.56946344648E+01 0.56883442857E+01
 0.56755101839E+01 0.56594042247E+01 0.56381949504E+01 0.56153147557E+01 0.55940859691E+01
 0.55775196371E+01 0.55667265526E+01 0.55631092739E+01 0.55667265526E+01 0.55775196371E+01
 0.55940859691E+01 0.56153147557E+01 0.56381949504E+01 0.56594042247E+01 0.56755101839E+01
 0.56883442857E+01 0.56946344648E+01 0.56947365006E+01 0.56892816048E+01 0.56772926072E+01
 0.56639754555E+01 0.56496125928E+01 0.56353009706E+01 0.56226318477E+01 0.56142646864E+01
 0.57768540485E+01 0.57772804081E+01 0.57784576508E+01 0.57801054433E+01 0.57821634210E+01
 0.57837760708E+01 0.57825475129E+01 0.57766335910E+01 0.57684421029E+01 0.57567183646E+01
 0.57399001771E+01 0.57187195589E+01 0.56951266695E+01 0.56681626003E+01 0.56392443736E+01
 0.56126077781E+01 0.55912395164E+01 0.55775196371E+01 0.55727214346E+01 0.55775196371E+01
 0.55912395164E+01 0.56126077781E+01 0.56392443736E+01 0.56681626003E+01 0.56951266695E+01
 0.57187195589E+01 0.57399001771E+01 0.57567183646E+01 0.57684421029E+01 0.57766335910E+01
 0.57825475129E+01 0.57837760708E+01 0.57821634210E+01 0.57801054433E+01 0.57784576508E+01
 0.57772804081E+01 0.60960718930E+01 0.60930076192E+01 0.60835091665E+01 0.60673887558E+01
 0.60438160404E+01 0.60136450510E+01 0.59796951799E+01 0.59451335226E+01 0.59075618713E+01
 0.58691631478E+01 0.58316886090E+01 0.57922336826E+01 0.57537984345E+01 0.57152348825E+01
 0.56766499848E+01 0.56410817483E+01 0.56126077781E+01 0.55940859691E+01 0.55877386498E+01
 0.55940859691E+01 0.56126077781E+01 0.56410817483E+01 0.56766499848E+01 0.57152348825E+01
 0.57537984345E+01 0.57922336826E+01 0.58316886090E+01 0.58691631478E+01 0.59075618713E+01
 0.59451335226E+01 0.59796951799E+01 0.60136450510E+01 0.60438160404E+01 0.60673887558E+01
 0.60835091665E+01 0.60930076192E+01 0.66161260302E+01 0.66065322338E+01 0.65782225089E+01
 0.65317514694E+01 0.64701458886E+01 0.63961124201E+01 0.63120729266E+01 0.62208255698E+01
 0.61322964742E+01 0.60484343601E+01 0.59708646513E+01 0.59001713741E+01 0.58350917173E+01
 0.57770161114E+01 0.57235643061E+01 0.56766499848E+01 0.56392443736E+01 0.56153147557E+01
 0.56068939178E+01 0.56153147557E+01 0.56392443736E+01 0.56766499848E+01 0.57235643061E+01
 0.57770161114E+01 0.58350917173E+01 0.59001713741E+01 0.59708646513E+01 0.60484343601E+01
 0.61322964742E+01 0.62208255698E+01 0.63120729266E+01 0.63961124201E+01 0.64701458886E+01
 0.65317514694E+01 0.65782225089E+01 0.66065322338E+01 0.73649995655E+01 0.73498190587E+01
 0.73037882160E+01 0.72259910342E+01 0.71141735933E+01 0.69713290411E+01 0.68084949356E+01
 0.66398402151E+01 0.64706555100E+01 0.63115672182E+01 0.61702461567E+01 0.60473253974E+01
 0.59415367299E+01 0.58517694984E+01 0.57770161114E+01 0.57152348825E+01 0.56681626003E+01
 0.56381949504E+01 0.56280194569E+01 0.56381949504E+01 0.56681626003E+01 0.57152348825E+01
 0.57770161114E+01 0.58517694984E+01 0.59415367299E+01 0.60473253974E+01 0.61702461567E+01
 0.63115672182E+01 0.64706555100E+01 0.66398402151E+01 0.68084949356E+01 0.69713290411E+01
 0.71141735933E+01 0.72259910342E+01 0.73037882160E+01 0.73498190587E+01 0.84642750374E+01
 0.84256537732E+01 0.83179501269E+01 0.81598879509E+01 0.79706636672E+01 0.77553320974E+01
 0.75061171562E+01 0.72261140526E+01 0.69444341476E+01 0.66798841163E+01 0.64424096107E+01
 0.62415541176E+01 0.60758312751E+01 0.59415367299E+01 0.58350917173E+01 0.57537984345E+01
 0.56951266695E+01 0.56594042247E+01 0.56472264582E+01 0.56594042247E+01 0.56951266695E+01
 0.57537984345E+01 0.58350917173E+01 0.59415367299E+01 0.60758312751E+01 0.62415541176E+01
 0.64424096107E+01 0.66798841163E+01 0.69444341476E+01 0.72261140526E+01 0.75061171562E+01
 0.77553320974E+01 0.79706636672E+01 0.81598879509E+01 0.83179501269E+01 0.84256537732E+01
 0.10799814342E+02 0.10683240762E+02 0.10355315905E+02 0.98793348788E+01 0.93435521381E+01
 0.88334631054E+01 0.83890785541E+01 0.79833553246E+01 0.75686910706E+01 0.71628598177E+01
 0.67999196834E+01 0.64905222428E+01 0.62415541176E+01 0.60473253974E+01 0.59001713741E+01
 0.57922336826E+01 0.57187195589E+01 0.56755101839E+01 0.56614275285E+01 0.56755101839E+01
 0.57187195589E+01 0.57922336826E+01 0.59001713741E+01 0.60473253974E+01 0.62415541176E+01
 0.64905222428E+01 0.67999196834E+01 0.71628598177E+01 0.75686910706E+01 0.79833553246E+01
 0.83890785541E+01 0.88334631054E+01 0.93435521381E+01 0.98793348788E+01 0.10355315905E+02
 0.10683240762E+02 0.15659707756E+02 0.15396598323E+02 0.14646959241E+02 0.13524554361E+02
 0.12206554704E+02 0.10898624210E+02 0.97825588070E+01 0.89437500118E+01 0.83191486792E+01
 0.77618758960E+01 0.72424717602E+01 0.67999196834E+01 0.64424096107E+01 0.61702461567E+01
 0.59708646513E+01 0.58316886090E+01 0.57399001771E+01 0.56883442857E+01 0.56713653507E+01
 0.56883442857E+01 0.57399001771E+01 0.58316886090E+01 0.59708646513E+01 0.61702461567E+01
 0.64424096107E+01 0.67999196834E+01 0.72424717602E+01 0.77618758960E+01 0.83191486792E+01
 0.89437500118E+01 0.97825588070E+01 0.10898624210E+02 0.12206554704E+02 0.13524554361E+02
 0.14646959241E+02 0.15396598323E+02 0.24199812274E+02 0.23710844661E+02 0.22303800703E+02
 0.20159413363E+02 0.17565829241E+02 0.14882676473E+02 0.12465403293E+02 0.10572945740E+02
 0.92835538065E+01 0.84415307673E+01 0.77618758960E+01 0.71628598177E+01 0.66798841163E+01
 0.63115672182E+01 0.60484343601E+01 0.58691631478E+01 0.57567183646E+01 0.56946344648E+01
 0.56754396871E+01 0.56946344648E+01 0.57567183646E+01 0.58691631478E+01 0.60484343601E+01
 0.63115672182E+01 0.66798841163E+01 0.71628598177E+01 0.77618758960E+01 0.84415307673E+01
 0.92835538065E+01 0.10572945740E+02 0.12465403293E+02 0.14882676473E+02 0.17565829241E+02
 0.20159413363E+02 0.22303800703E+02 0.23710844661E+02 0.37255366680E+02 0.36450073233E+02
 0.34122665452E+02 0.30539657717E+02 0.26131159526E+02 0.21447918418E+02 0.17066506209E+02
 0.13464116172E+02 0.10884641805E+02 0.92835538065E+01 0.83191486792E+01 0.75686910706E+01
 0.69444341476E+01 0.64706555100E+01 0.61322964742E+01 0.59075618713E+01 0.57684421029E+01
 0.56947365006E+01 0.56713653507E+01 0.56947365006E+01 0.57684421029E+01 0.59075618713E+01
 0.61322964742E+01 0.64706555100E+01 0.69444341476E+01 0.75686910706E+01 0.83191486792E+01
 0.92835538065E+01 0.10884641805E+02 0.13464116172E+02 0.17066506209E+02 0.21447918418E+02
 0.26131159526E+02 0.30539657717E+02 0.34122665452E+02 0.36450073233E+02 0.55087255267E+02
 0.53866062490E+02 0.50335218362E+02 0.44877792853E+02 0.38114380227E+02 0.30827432692E+02
 0.23854494082E+02 0.17913655790E+02 0.13464116172E+02 0.10572945740E+02 0.89437500118E+01
 0.79833553246E+01 0.72261140526E+01 0.66398402151E+01 0.62208255698E+01 0.59451335226E+01
 0.57766335910E+01 0.56892816048E+01 0.56614275285E+01 0.56892816048E+01 0.57766335910E+01
 0.59451335226E+01 0.62208255698E+01 0.66398402151E+01 0.72261140526E+01 0.79833553246E+01
 0.89437500118E+01 0.10572945740E+02 0.13464116172E+02 0.17913655790E+02 0.23854494082E+02
 0.30827432692E+02 0.38114380227E+02 0.44877792853E+02 0.50335218362E+02 0.53866062490E+02
 0.77232028313E+02 0.75497111826E+02 0.70478790485E+02 0.62731021689E+02 0.53113163477E+02
 0.42700040010E+02 0.32616423725E+02 0.23854494082E+02 0.17066506209E+02 0.12465403293E+02
 0.97825588070E+01 0.83890785541E+01 0.75061171562E+01 0.68084949356E+01 0.63120729266E+01
 0.59796951799E+01 0.57825475129E+01 0.56772926072E+01 0.56472264582E+01 0.56772926072E+01
 0.57825475129E+01 0.59796951799E+01 0.63120729266E+01 0.68084949356E+01 0.75061171562E+01
 0.83890785541E+01 0.97825588070E+01 0.12465403293E+02 0.17066506209E+02 0.23854494082E+02
 0.32616423725E+02 0.42700040010E+02 0.53113163477E+02 0.62731021689E+02 0.70478790485E+02
 0.75497111826E+02 0.10242073157E+03 0.10008434764E+03 0.93341001795E+02 0.82961726330E+02
 0.70114996103E+02 0.56213979869E+02 0.42700040010E+02 0.30827432692E+02 0.21447918418E+02
 0.14882676473E+02 0.10898624210E+02 0.88334631054E+01 0.77553320974E+01 0.69713290411E+01
 0.63961124201E+01 0.60136450510E+01 0.57837760708E+01 0.56639754555E+01 0.56280194569E+01
 0.56639754555E+01 0.57837760708E+01 0.60136450510E+01 0.63961124201E+01 0.69713290411E+01
 0.77553320974E+01 0.88334631054E+01 0.10898624210E+02 0.14882676473E+02 0.21447918418E+02
 0.30827432692E+02 0.42700040010E+02 0.56213979869E+02 0.70114996103E+02 0.82961726330E+02
 0.93341001795E+02 0.10008434764E+03 0.12862952618E+03 0.12564198426E+03 0.11704314859E+03
 0.10386054487E+03 0.87622585844E+02 0.70114996103E+02 0.53113163477E+02 0.38114380227E+02
 0.26131159526E+02 0.17565829241E+02 0.12206554704E+02 0.93435521381E+01 0.79706636672E+01
 0.71141735933E+01 0.64701458886E+01 0.60438160404E+01 0.57821634210E+01 0.56496125928E+01
 0.56068939178E+01 0.56496125928E+01 0.57821634210E+01 0.60438160404E+01 0.64701458886E+01
 0.71141735933E+01 0.79706636672E+01 0.93435521381E+01 0.12206554704E+02 0.17565829241E+02
 0.26131159526E+02 0.38114380227E+02 0.53113163477E+02 0.70114996103E+02 0.87622585844E+02
 0.10386054487E+03 0.11704314859E+03 0.12564198426E+03 0.15326805254E+03 0.14964226096E+03
 0.13923206641E+03 0.12333758646E+03 0.10386054487E+03 0.82961726330E+02 0.62731021689E+02
 0.44877792853E+02 0.30539657717E+02 0.20159413363E+02 0.13524554361E+02 0.98793348788E+01
 0.81598879509E+01 0.72259910342E+01 0.65317514694E+01 0.60673887558E+01 0.57801054433E+01
 0.56353009706E+01 0.55877386498E+01 0.56353009706E+01 0.57801054433E+01 0.60673887558E+01
 0.65317514694E+01 0.72259910342E+01 0.81598879509E+01 0.98793348788E+01 0.13524554361E+02
 0.20159413363E+02 0.30539657717E+02 0.44877792853E+02 0.62731021689E+02 0.82961726330E+02
 0.10386054487E+03 0.12333758646E+03 0.13923206641E+03 0.14964226096E+03 0.17353888692E+03
 0.16936898818E+03 0.15741766211E+03 0.13923206641E+03 0.11704314859E+03 0.93341001795E+02
 0.70478790485E+02 0.50335218362E+02 0.34122665452E+02 0.22303800703E+02 0.14646959241E+02
 0.10355315905E+02 0.83179501269E+01 0.73037882160E+01 0.65782225089E+01 0.60835091665E+01
 0.57784576508E+01 0.56226318477E+01 0.55727214346E+01 0.56226318477E+01 0.57784576508E+01
 0.60835091665E+01 0.65782225089E+01 0.73037882160E+01 0.83179501269E+01 0.10355315905E+02
 0.14646959241E+02 0.22303800703E+02 0.34122665452E+02 0.50335218362E+02 0.70478790485E+02
 0.93341001795E+02 0.11704314859E+03 0.13923206641E+03 0.15741766211E+03 0.16936898818E+03
 0.18690004402E+03 0.18236166759E+03 0.16936898818E+03 0.14964226096E+03 0.12564198426E+03
 0.10008434764E+03 0.75497111826E+02 0.53866062490E+02 0.36450073233E+02 0.23710844661E+02
 0.15396598323E+02 0.10683240762E+02 0.84256537732E+01 0.73498190587E+01 0.66065322338E+01
 0.60930076192E+01 0.57772804081E+01 0.56142646864E+01 0.55631092739E+01 0.56142646864E+01
 0.57772804081E+01 0.60930076192E+01 0.66065322338E+01 0.73498190587E+01 0.84256537732E+01
 0.10683240762E+02 0.15396598323E+02 0.23710844661E+02 0.36450073233E+02 0.53866062490E+02
 0.75497111826E+02 0.10008434764E+03 0.12564198426E+03 0.14964226096E+03 0.16936898818E+03
 0.18236166759E+03 0.18690004402E+03 0.18236166759E+03 0.16936898818E+03 0.14964226096E+03
 0.12564198426E+03 0.10008434764E+03 0.75497111826E+02 0.53866062490E+02 0.36450073233E+02
 0.23710844661E+02 0.15396598323E+02 0.10683240762E+02 0.84256537732E+01 0.73498190587E+01
 0.66065322338E+01 0.60930076192E+01 0.57772804081E+01 0.56142646864E+01 0.55631092739E+01
 0.56142646864E+01 0.57772804081E+01 0.60930076192E+01 0.66065322338E+01 0.73498190587E+01
 0.84256537732E+01 0.10683240762E+02 0.15396598323E+02 0.23710844661E+02 0.36450073233E+02
 0.53866062490E+02 0.75497111826E+02 0.10008434764E+03 0.12564198426E+03 0.14964226096E+03
 0.16936898818E+03 0.18236166759E+03 0.18236166759E+03 0.17794905992E+03 0.16531204829E+03
 0.14611116281E+03 0.12272871518E+03 0.97802608219E+02 0.73800298750E+02 0.52670942194E+02
 0.35662453029E+02 0.23233588988E+02 0.15141185369E+02 0.10571280960E+02 0.83890254531E+01
 0.73351928032E+01 0.65975820494E+01 0.60904045326E+01 0.57780837780E+01 0.56175829586E+01
 0.55667265526E+01 0.56175829586E+01 0.57780837780E+01 0.60904045326E+01 0.65975820494E+01
 0.73351928032E+01 0.83890254531E+01 0.10571280960E+02 0.15141185369E+02 0.23233588988E+02
 0.35662453029E+02 0.52670942194E+02 0.73800298750E+02 0.97802608219E+02 0.12272871518E+03
 0.14611116281E+03 0.16531204829E+03 0.17794905992E+03 0.16936898818E+03 0.16531204829E+03
 0.15368049460E+03 0.13596945152E+03 0.11434090345E+03 0.91215897210E+02 0.68892628757E+02
 0.49216269738E+02 0.33386836902E+02 0.21861162869E+02 0.14414131219E+02 0.10256508148E+02
 0.82870618665E+01 0.72907168205E+01 0.65708538032E+01 0.60822395163E+01 0.57805930969E+01
 0.56270629370E+01 0.55775196371E+01 0.56270629370E+01 0.57805930969E+01 0.60822395163E+01
 0.65708538032E+01 0.72907168205E+01 0.82870618665E+01 0.10256508148E+02 0.14414131219E+02
 0.21861162869E+02 0.33386836902E+02 0.49216269738E+02 0.68892628757E+02 0.91215897210E+02
 0.11434090345E+03 0.13596945152E+03 0.15368049460E+03 0.16531204829E+03 0.14964226096E+03
 0.14611116281E+03 0.13596945152E+03 0.12047612033E+03 0.10147671442E+03 0.81075561693E+02
 0.61316027998E+02 0.43879275827E+02 0.29886383884E+02 0.19772074675E+02 0.13327231033E+02
 0.98004796601E+01 0.81365100267E+01 0.72150535064E+01 0.65271061398E+01 0.60680396638E+01
 0.57841112633E+01 0.56410810432E+01 0.55940859691E+01 0.56410810432E+01 0.57841112633E+01
 0.60680396638E+01 0.65271061398E+01 0.72150535064E+01 0.81365100267E+01 0.98004796601E+01
 0.13327231033E+02 0.19772074675E+02 0.29886383884E+02 0.43879275827E+02 0.61316027998E+02
 0.81075561693E+02 0.10147671442E+03 0.12047612033E+03 0.13596945152E+03 0.14611116281E+03
 0.12564198426E+03 0.12272871518E+03 0.11434090345E+03 0.10147671442E+03 0.85622531118E+02
 0.68522090763E+02 0.51913721221E+02 0.37270508811E+02 0.25584528007E+02 0.17250337235E+02
 0.12053809250E+02 0.92881369113E+01 0.79546089922E+01 0.71058756806E+01 0.64686939452E+01
 0.60468323437E+01 0.57885673614E+01 0.56572607419E+01 0.56153147557E+01 0.56572607419E+01
 0.57885673614E+01 0.60468323437E+01 0.64686939452E+01 0.71058756806E+01 0.79546089922E+01
 0.92881369113E+01 0.12053809250E+02 0.17250337235E+02 0.25584528007E+02 0.37270508811E+02
 0.51913721221E+02 0.68522090763E+02 0.85622531118E+02 0.10147671442E+03 0.11434090345E+03
 0.12272871518E+03 0.10008434764E+03 0.97802608219E+02 0.91215897210E+02 0.81075561693E+02
 0.68522090763E+02 0.54938875517E+02 0.41740717659E+02 0.30158213621E+02 0.21022963412E+02
 0.14648199919E+02 0.10793776186E+02 0.88003737980E+01 0.77444376220E+01 0.69666890320E+01
 0.63980674879E+01 0.60194526345E+01 0.57923496159E+01 0.56735587395E+01 0.56381949504E+01
 0.56735587395E+01 0.57923496159E+01 0.60194526345E+01 0.63980674879E+01 0.69666890320E+01
 0.77444376220E+01 0.88003737980E+01 0.10793776186E+02 0.14648199919E+02 0.21022963412E+02
 0.30158213621E+02 0.41740717659E+02 0.54938875517E+02 0.68522090763E+02 0.81075561693E+02
 0.91215897210E+02 0.97802608219E+02 0.75497111826E+02 0.73800298750E+02 0.68892628757E+02
 0.61316027998E+02 0.51913721221E+02 0.41740717659E+02 0.31900736795E+02 0.23363079396E+02
 0.16766716177E+02 0.12310959671E+02 0.97220757391E+01 0.83719008861E+01 0.74989624590E+01
 0.68082629738E+01 0.63171035625E+01 0.59885629458E+01 0.57934077021E+01 0.56893210770E+01
 0.56594042247E+01 0.56893210770E+01 0.57934077021E+01 0.59885629458E+01 0.63171035625E+01
 0.68082629738E+01 0.74989624590E+01 0.83719008861E+01 0.97220757391E+01 0.12310959671E+02
 0.16766716177E+02 0.23363079396E+02 0.31900736795E+02 0.41740717659E+02 0.51913721221E+02
 0.61316027998E+02 0.68892628757E+02 0.73800298750E+02 0.53866062490E+02 0.52670942194E+02
 0.49216269738E+02 0.43879275827E+02 0.37270508811E+02 0.30158213621E+02 0.23363079396E+02
 0.17588743318E+02 0.13278506588E+02 0.10487451825E+02 0.89160669465E+01 0.79739998856E+01
 0.72234163731E+01 0.66439330817E+01 0.62294959032E+01 0.59568319276E+01 0.57897731513E+01
 0.57032441943E+01 0.56755101839E+01 0.57032441943E+01 0.57897731513E+01 0.59568319276E+01
 0.62294959032E+01 0.66439330817E+01 0.72234163731E+01 0.79739998856E+01 0.89160669465E+01
 0.10487451825E+02 0.13278506588E+02 0.17588743318E+02 0.23363079396E+02 0.30158213621E+02
 0.37270508811E+02 0.43879275827E+02 0.49216269738E+02 0.52670942194E+02 0.36450073233E+02
 0.35662453029E+02 0.33386836902E+02 0.29886383884E+02 0.25584528007E+02 0.21022963412E+02
 0.16766716177E+02 0.13278506588E+02 0.10789137045E+02 0.92475983159E+01 0.83073838672E+01
 0.75641619598E+01 0.69472348524E+01 0.64787834063E+01 0.61443879694E+01 0.59220940070E+01
 0.57845679241E+01 0.57114419329E+01 0.56883442857E+01 0.57114419329E+01 0.57845679241E+01
 0.59220940070E+01 0.61443879694E+01 0.64787834063E+01 0.69472348524E+01 0.75641619598E+01
 0.83073838672E+01 0.92475983159E+01 0.10789137045E+02 0.13278506588E+02 0.16766716177E+02
 0.21022963412E+02 0.25584528007E+02 0.29886383884E+02 0.33386836902E+02 0.35662453029E+02
 0.23710844661E+02 0.23233588988E+02 0.21861162869E+02 0.19772074675E+02 0.17250337235E+02
 0.14648199919E+02 0.12310959671E+02 0.10487451825E+02 0.92475983159E+01 0.84286159803E+01