 vasp.6.2.0 18Jan21 (build Aug 12 2022 13:00:08) complex                        
  
 executed on             LinuxIFC date 2024.11.04  06:51:39
 running on    4 total cores
 distrk:  each k-point on    4 cores,    1 groups
 distr:  one band on NCORE=   1 cores,    4 groups


--------------------------------------------------------------------------------------------------------


 INCAR:
   ISTART = 0            (Read existing wavefunction, if there)
   ISPIN = 2            (Non-Spin polarised DFT)
   MAGMOM = 5 5          (Set this parameters manually)
   GGA_COMPAT = .FALSE.   (Apply spherical cutoff on gradient field)
   VOSKOWN = 1        (Enhances the magnetic moments and the magnetic energies)
   LMAXMIX = 4        (For d elements increase LMAXMIX to 4, f: LMAXMIX \= 6)
   LREAL = .FALSE.       (Projection operators: automatic)
   ENCUT = 350          (Cut-off energy for plane wave basis set, in eV)
   LORBIT = 11           (Write orbital decomposed charge densities and magnetic moments)
   ADDGRID = .TRUE.        (Increase grid, helps GGA convergence)
   LASPH = .TRUE.        (Give more accurate total energies and band structure calculations)
   PREC = Accurate      (Accurate strictly avoids any aliasing or wrap around errors)
   ISMEAR = 1            (Gaussian smearing, metals:1)
   SIGMA = 0.2          (Smearing value in eV, metals:0.2)
   NELM = 90           (Max electronic SCF steps)
   NELMIN = 6            (Min electronic SCF steps)
   EDIFF = 1E-06        (SCF energy convergence, in eV)
   NSW = 100          (Max ionic steps)
   IBRION = 2            (Algorithm: 0-MD, 1-Quasi-New, 2-CG)
   ISIF = 3            (Stress/relaxation: 2-Ions, 3-Shape/Ions/V, 4-Shape/Ions)
   EDIFFG = -2E-03        (Ionic convergence, eV/AA)
   ISYM = 2              (Symmetry: 0\=none, 2\=GGA, 3\=hybrids)

 POTCAR:    PAW_PBE Fe 06Sep2000                  
 POTCAR:    PAW_PBE Fe 06Sep2000                  
   VRHFIN =Fe:  d7 s1                                                                               
   LEXCH  = PE                                                                                      
   EATOM  =   594.3153 eV,   43.6809 Ry                                                             
                                                                                                    
   TITEL  = PAW_PBE Fe 06Sep2000                                                                    
   LULTRA =        F    use ultrasoft PP ?                                                          
   IUNSCR =        1    unscreen: 0-lin 1-nonlin 2-no                                               
   RPACOR =    2.000    partial core radius                                                         
   POMASS =   55.847; ZVAL   =    8.000    mass and valenz                                          
   RCORE  =    2.300    outmost cutoff radius                                                       
   RWIGS  =    2.460; RWIGS  =    1.302    wigner-seitz radius (au A)                               
   ENMAX  =  267.882; ENMIN  =  200.911 eV                                                          
   RCLOC  =    1.701    cutoff for local pot                                                        
   LCOR   =        T    correct aug charges                                                         
   LPAW   =        T    paw PP                                                                      
   EAUG   =  511.368                                                                                
   DEXC   =    0.000                                                                                
   RMAX   =    2.356    core radius for proj-oper                                                   
   RAUG   =    1.300    factor for augmentation sphere                                              
   RDEP   =    2.442    radius for radial grids                                                     
   RDEPT  =    1.890    core radius for aug-charge                                                  
                                                                                                    
   Atomic configuration                                                                             
    9 entries                                                                                       
     n  l   j            E        occ.                                                              
     1  0  0.50     -6993.8440   2.0000                                                             
     2  0  0.50      -814.6047   2.0000                                                             
     2  1  1.50      -693.3689   6.0000                                                             
     3  0  0.50       -89.4732   2.0000                                                             
     3  1  1.50       -55.6373   6.0000                                                             
     3  2  2.50        -3.8151   7.0000                                                             
     4  0  0.50        -4.2551   1.0000                                                             
     4  1  1.50        -3.4015   0.0000                                                             
     4  3  2.50        -1.3606   0.0000                                                             
   Description                                                                                      
     l       E           TYP  RCUT    TYP  RCUT                                                     
     2     -3.8151135     23  2.300                                                                 
     2     -5.1756961     23  2.300                                                                 
     0     -4.2550963     23  2.300                                                                 
     0      7.2035603     23  2.300                                                                 
     1     -2.7211652     23  2.300                                                                 
     1     18.4316424     23  2.300                                                                 
  local pseudopotential read in
  partial core-charges read in
  partial kinetic energy density read in
  atomic valenz-charges read in
  non local Contribution for L=           2  read in
    real space projection operators read in
  non local Contribution for L=           2  read in
    real space projection operators read in
  non local Contribution for L=           0  read in
    real space projection operators read in
  non local Contribution for L=           0  read in
    real space projection operators read in
  non local Contribution for L=           1  read in
    real space projection operators read in
  non local Contribution for L=           1  read in
    real space projection operators read in
    PAW grid and wavefunctions read in
 
   number of l-projection  operators is LMAX  =           6
   number of lm-projection operators is LMMAX =          18
 
  PAW_PBE Fe 06Sep2000                  :
 energy of atom  1       EATOM= -594.3153
 kinetic energy error for atom=    0.0205 (will be added to EATOM!!)
 
 
 POSCAR: Fe2
  positions in direct lattice
  No initial velocities read in
 exchange correlation table for  LEXCH =        8
   RHO(1)=    0.500       N(1)  =     2000
   RHO(2)=  100.500       N(2)  =     4000
 


--------------------------------------------------------------------------------------------------------


 ion  position               nearest neighbor table
   1  0.000  0.000  0.000-   2 2.48   2 2.48   2 2.48   2 2.48   2 2.48   2 2.48   2 2.48   2 2.48

   2  0.500  0.500  0.500-   1 2.48   1 2.48   1 2.48   1 2.48   1 2.48   1 2.48   1 2.48   1 2.48

 
  LATTYP: Found a simple cubic cell.
 ALAT       =     2.8630354989
  
  Lattice vectors:
  
 A1 = (   2.8630354989,   0.0000000000,   0.0000000000)
 A2 = (   0.0000000000,   2.8630354989,   0.0000000000)
 A3 = (   0.0000000000,   0.0000000000,   2.8630354989)


Analysis of symmetry for initial positions (statically):
=====================================================================
 Subroutine PRICEL returns following result:
 
  LATTYP: Found a body centered cubic cell.
 ALAT       =     2.8630354989
  
  Lattice vectors:
  
 A1 = (   1.4315177495,   1.4315177495,  -1.4315177495)
 A2 = (  -1.4315177495,   1.4315177495,   1.4315177495)
 A3 = (   1.4315177495,  -1.4315177495,   1.4315177495)
 
   2 primitive cells build up your supercell.
 

 Routine SETGRP: Setting up the symmetry group for a 
 simple cubic supercell.


 Subroutine GETGRP returns: Found 48 space group operations
 (whereof 48 operations were pure point group operations)
 out of a pool of 48 trial point group operations.


The static configuration has the point symmetry O_h .


Analysis of symmetry for dynamics (positions and initial velocities):
=====================================================================
 Subroutine PRICEL returns following result:
 
  LATTYP: Found a body centered cubic cell.
 ALAT       =     2.8630354989
  
  Lattice vectors:
  
 A1 = (   1.4315177495,   1.4315177495,  -1.4315177495)
 A2 = (  -1.4315177495,   1.4315177495,   1.4315177495)
 A3 = (   1.4315177495,  -1.4315177495,   1.4315177495)
 
   2 primitive cells build up your supercell.
 

 Routine SETGRP: Setting up the symmetry group for a 
 simple cubic supercell.


 Subroutine GETGRP returns: Found 48 space group operations
 (whereof 48 operations were pure point group operations)
 out of a pool of 48 trial point group operations.


The dynamic configuration has the point symmetry O_h .


Analysis of structural, dynamic, and magnetic symmetry:
=====================================================================
 Subroutine PRICEL returns following result:
 
  LATTYP: Found a body centered cubic cell.
 ALAT       =     2.8630354989
  
  Lattice vectors:
  
 A1 = (   1.4315177495,   1.4315177495,  -1.4315177495)
 A2 = (  -1.4315177495,   1.4315177495,   1.4315177495)
 A3 = (   1.4315177495,  -1.4315177495,   1.4315177495)
 
   2 primitive cells build up your supercell.
 

 Routine SETGRP: Setting up the symmetry group for a 
 simple cubic supercell.


 Subroutine GETGRP returns: Found 48 space group operations
 (whereof 48 operations were pure point group operations)
 out of a pool of 48 trial point group operations.


The overall configuration has the point symmetry O_h .


 Subroutine INISYM returns: Found 48 space group operations
 (whereof 48 operations are pure point group operations),
 and found     2 'primitive' translations


----------------------------------------------------------------------------------------

                                     Primitive cell                                     

  volume of cell :      11.7341

  direct lattice vectors                    reciprocal lattice vectors
     1.431517749  1.431517749 -1.431517749     0.349279637  0.349279637  0.000000000
    -1.431517749  1.431517749  1.431517749     0.000000000  0.349279637  0.349279637
     1.431517749 -1.431517749  1.431517749     0.349279637 -0.000000000  0.349279637

  length of vectors
     2.479461474  2.479461474  2.479461474     0.493956000  0.493956000  0.493956000

  position of ions in fractional coordinates (direct lattice)
     0.000000000  0.000000000  0.000000000

  ion indices of the primitive-cell ions
   primitive index   ion index
                 1           1

----------------------------------------------------------------------------------------

 
 
 KPOINTS: Automatic                               

Automatic generation of k-mesh.
 Grid dimensions read from file:
 generate k-points for:   15   15   15

 Generating k-lattice:

  Cartesian coordinates                     Fractional coordinates (reciprocal lattice)
     0.023285309 -0.000000000  0.000000000     0.066666667  0.000000000  0.000000000
     0.000000000  0.023285309  0.000000000     0.000000000  0.066666667  0.000000000
    -0.000000000 -0.000000000  0.023285309     0.000000000  0.000000000  0.066666667

  Length of vectors
     0.023285309  0.023285309  0.023285309

  Shift w.r.t. Gamma in fractional coordinates (k-lattice)
     0.000000000  0.000000000  0.000000000

 
 Subroutine IBZKPT returns following result:
 ===========================================
 
 Found    120 irreducible k-points:
 
 Following reciprocal coordinates:
            Coordinates               Weight
  0.000000  0.000000  0.000000      1.000000
  0.066667  0.000000  0.000000      6.000000
  0.133333  0.000000  0.000000      6.000000
  0.200000 -0.000000  0.000000      6.000000
  0.266667  0.000000  0.000000      6.000000
  0.333333  0.000000  0.000000      6.000000
  0.400000  0.000000  0.000000      6.000000
  0.466667 -0.000000  0.000000      6.000000
  0.066667  0.066667  0.000000     12.000000
  0.133333  0.066667  0.000000     24.000000
  0.200000  0.066667  0.000000     24.000000
  0.266667  0.066667  0.000000     24.000000
  0.333333  0.066667  0.000000     24.000000
  0.400000  0.066667  0.000000     24.000000
  0.466667  0.066667  0.000000     24.000000
  0.133333  0.133333  0.000000     12.000000
  0.200000  0.133333  0.000000     24.000000
  0.266667  0.133333  0.000000     24.000000
  0.333333  0.133333  0.000000     24.000000
  0.400000  0.133333  0.000000     24.000000
  0.466667  0.133333  0.000000     24.000000
  0.200000  0.200000  0.000000     12.000000
  0.266667  0.200000  0.000000     24.000000
  0.333333  0.200000  0.000000     24.000000
  0.400000  0.200000  0.000000     24.000000
  0.466667  0.200000  0.000000     24.000000
  0.266667  0.266667  0.000000     12.000000
  0.333333  0.266667  0.000000     24.000000
  0.400000  0.266667  0.000000     24.000000
  0.466667  0.266667  0.000000     24.000000
  0.333333  0.333333  0.000000     12.000000
  0.400000  0.333333  0.000000     24.000000
  0.466667  0.333333  0.000000     24.000000
  0.400000  0.400000  0.000000     12.000000
  0.466667  0.400000  0.000000     24.000000
  0.466667  0.466667  0.000000     12.000000
  0.066667  0.066667  0.066667      8.000000
  0.133333  0.066667  0.066667     24.000000
  0.200000  0.066667  0.066667     24.000000
  0.266667  0.066667  0.066667     24.000000
  0.333333  0.066667  0.066667     24.000000
  0.400000  0.066667  0.066667     24.000000
  0.466667  0.066667  0.066667     24.000000
  0.133333  0.133333  0.066667     24.000000
  0.200000  0.133333  0.066667     48.000000
  0.266667  0.133333  0.066667     48.000000
  0.333333  0.133333  0.066667     48.000000
  0.400000  0.133333  0.066667     48.000000
  0.466667  0.133333  0.066667     48.000000
  0.200000  0.200000  0.066667     24.000000
  0.266667  0.200000  0.066667     48.000000
  0.333333  0.200000  0.066667     48.000000
  0.400000  0.200000  0.066667     48.000000
  0.466667  0.200000  0.066667     48.000000
  0.266667  0.266667  0.066667     24.000000
  0.333333  0.266667  0.066667     48.000000
  0.400000  0.266667  0.066667     48.000000
  0.466667  0.266667  0.066667     48.000000
  0.333333  0.333333  0.066667     24.000000
  0.400000  0.333333  0.066667     48.000000
  0.466667  0.333333  0.066667     48.000000
  0.400000  0.400000  0.066667     24.000000
  0.466667  0.400000  0.066667     48.000000
  0.466667  0.466667  0.066667     24.000000
  0.133333  0.133333  0.133333      8.000000
  0.200000  0.133333  0.133333     24.000000
  0.266667  0.133333  0.133333     24.000000
  0.333333  0.133333  0.133333     24.000000
  0.400000  0.133333  0.133333     24.000000
  0.466667  0.133333  0.133333     24.000000
  0.200000  0.200000  0.133333     24.000000
  0.266667  0.200000  0.133333     48.000000
  0.333333  0.200000  0.133333     48.000000
  0.400000  0.200000  0.133333     48.000000
  0.466667  0.200000  0.133333     48.000000
  0.266667  0.266667  0.133333     24.000000
  0.333333  0.266667  0.133333     48.000000
  0.400000  0.266667  0.133333     48.000000
  0.466667  0.266667  0.133333     48.000000
  0.333333  0.333333  0.133333     24.000000
  0.400000  0.333333  0.133333     48.000000
  0.466667  0.333333  0.133333     48.000000
  0.400000  0.400000  0.133333     24.000000
  0.466667  0.400000  0.133333     48.000000
  0.466667  0.466667  0.133333     24.000000
  0.200000  0.200000  0.200000      8.000000
  0.266667  0.200000  0.200000     24.000000
  0.333333  0.200000  0.200000     24.000000
  0.400000  0.200000  0.200000     24.000000
  0.466667  0.200000  0.200000     24.000000
  0.266667  0.266667  0.200000     24.000000
  0.333333  0.266667  0.200000     48.000000
  0.400000  0.266667  0.200000     48.000000
  0.466667  0.266667  0.200000     48.000000
  0.333333  0.333333  0.200000     24.000000
  0.400000  0.333333  0.200000     48.000000
  0.466667  0.333333  0.200000     48.000000
  0.400000  0.400000  0.200000     24.000000
  0.466667  0.400000  0.200000     48.000000
  0.466667  0.466667  0.200000     24.000000
  0.266667  0.266667  0.266667      8.000000
  0.333333  0.266667  0.266667     24.000000
  0.400000  0.266667  0.266667     24.000000
  0.466667  0.266667  0.266667     24.000000
  0.333333  0.333333  0.266667     24.000000
  0.400000  0.333333  0.266667     48.000000
  0.466667  0.333333  0.266667     48.000000
  0.400000  0.400000  0.266667     24.000000
  0.466667  0.400000  0.266667     48.000000
  0.466667  0.466667  0.266667     24.000000
  0.333333  0.333333  0.333333      8.000000
  0.400000  0.333333  0.333333     24.000000
  0.466667  0.333333  0.333333     24.000000
  0.400000  0.400000  0.333333     24.000000
  0.466667  0.400000  0.333333     48.000000
  0.466667  0.466667  0.333333     24.000000
  0.400000  0.400000  0.400000      8.000000
  0.466667  0.400000  0.400000     24.000000
  0.466667  0.466667  0.400000     24.000000
  0.466667  0.466667  0.466667      8.000000
 
 Following cartesian coordinates:
            Coordinates               Weight
  0.000000  0.000000  0.000000      1.000000
  0.023285 -0.000000  0.000000      6.000000
  0.046571 -0.000000  0.000000      6.000000
  0.069856 -0.000000  0.000000      6.000000
  0.093141 -0.000000  0.000000      6.000000
  0.116427 -0.000000  0.000000      6.000000
  0.139712 -0.000000  0.000000      6.000000
  0.162997 -0.000000  0.000000      6.000000
  0.023285  0.023285  0.000000     12.000000
  0.046571  0.023285  0.000000     24.000000
  0.069856  0.023285  0.000000     24.000000
  0.093141  0.023285  0.000000     24.000000
  0.116427  0.023285  0.000000     24.000000
  0.139712  0.023285  0.000000     24.000000
  0.162997  0.023285  0.000000     24.000000
  0.046571  0.046571  0.000000     12.000000
  0.069856  0.046571  0.000000     24.000000
  0.093141  0.046571  0.000000     24.000000
  0.116427  0.046571  0.000000     24.000000
  0.139712  0.046571  0.000000     24.000000
  0.162997  0.046571  0.000000     24.000000
  0.069856  0.069856  0.000000     12.000000
  0.093141  0.069856  0.000000     24.000000
  0.116427  0.069856  0.000000     24.000000
  0.139712  0.069856  0.000000     24.000000
  0.162997  0.069856  0.000000     24.000000
  0.093141  0.093141  0.000000     12.000000
  0.116427  0.093141  0.000000     24.000000
  0.139712  0.093141  0.000000     24.000000
  0.162997  0.093141  0.000000     24.000000
  0.116427  0.116427  0.000000     12.000000
  0.139712  0.116427  0.000000     24.000000
  0.162997  0.116427  0.000000     24.000000
  0.139712  0.139712  0.000000     12.000000
  0.162997  0.139712  0.000000     24.000000
  0.162997  0.162997  0.000000     12.000000
  0.023285  0.023285  0.023285      8.000000
  0.046571  0.023285  0.023285     24.000000
  0.069856  0.023285  0.023285     24.000000
  0.093141  0.023285  0.023285     24.000000
  0.116427  0.023285  0.023285     24.000000
  0.139712  0.023285  0.023285     24.000000
  0.162997  0.023285  0.023285     24.000000
  0.046571  0.046571  0.023285     24.000000
  0.069856  0.046571  0.023285     48.000000
  0.093141  0.046571  0.023285     48.000000
  0.116427  0.046571  0.023285     48.000000
  0.139712  0.046571  0.023285     48.000000
  0.162997  0.046571  0.023285     48.000000
  0.069856  0.069856  0.023285     24.000000
  0.093141  0.069856  0.023285     48.000000
  0.116427  0.069856  0.023285     48.000000
  0.139712  0.069856  0.023285     48.000000
  0.162997  0.069856  0.023285     48.000000
  0.093141  0.093141  0.023285     24.000000
  0.116427  0.093141  0.023285     48.000000
  0.139712  0.093141  0.023285     48.000000
  0.162997  0.093141  0.023285     48.000000
  0.116427  0.116427  0.023285     24.000000
  0.139712  0.116427  0.023285     48.000000
  0.162997  0.116427  0.023285     48.000000
  0.139712  0.139712  0.023285     24.000000
  0.162997  0.139712  0.023285     48.000000
  0.162997  0.162997  0.023285     24.000000
  0.046571  0.046571  0.046571      8.000000
  0.069856  0.046571  0.046571     24.000000
  0.093141  0.046571  0.046571     24.000000
  0.116427  0.046571  0.046571     24.000000
  0.139712  0.046571  0.046571     24.000000
  0.162997  0.046571  0.046571     24.000000
  0.069856  0.069856  0.046571     24.000000
  0.093141  0.069856  0.046571     48.000000
  0.116427  0.069856  0.046571     48.000000
  0.139712  0.069856  0.046571     48.000000
  0.162997  0.069856  0.046571     48.000000
  0.093141  0.093141  0.046571     24.000000
  0.116427  0.093141  0.046571     48.000000
  0.139712  0.093141  0.046571     48.000000
  0.162997  0.093141  0.046571     48.000000
  0.116427  0.116427  0.046571     24.000000
  0.139712  0.116427  0.046571     48.000000
  0.162997  0.116427  0.046571     48.000000
  0.139712  0.139712  0.046571     24.000000
  0.162997  0.139712  0.046571     48.000000
  0.162997  0.162997  0.046571     24.000000
  0.069856  0.069856  0.069856      8.000000
  0.093141  0.069856  0.069856     24.000000
  0.116427  0.069856  0.069856     24.000000
  0.139712  0.069856  0.069856     24.000000
  0.162997  0.069856  0.069856     24.000000
  0.093141  0.093141  0.069856     24.000000
  0.116427  0.093141  0.069856     48.000000
  0.139712  0.093141  0.069856     48.000000
  0.162997  0.093141  0.069856     48.000000
  0.116427  0.116427  0.069856     24.000000
  0.139712  0.116427  0.069856     48.000000
  0.162997  0.116427  0.069856     48.000000
  0.139712  0.139712  0.069856     24.000000
  0.162997  0.139712  0.069856     48.000000
  0.162997  0.162997  0.069856     24.000000
  0.093141  0.093141  0.093141      8.000000
  0.116427  0.093141  0.093141     24.000000
  0.139712  0.093141  0.093141     24.000000
  0.162997  0.093141  0.093141     24.000000
  0.116427  0.116427  0.093141     24.000000
  0.139712  0.116427  0.093141     48.000000
  0.162997  0.116427  0.093141     48.000000
  0.139712  0.139712  0.093141     24.000000
  0.162997  0.139712  0.093141     48.000000
  0.162997  0.162997  0.093141     24.000000
  0.116427  0.116427  0.116427      8.000000
  0.139712  0.116427  0.116427     24.000000
  0.162997  0.116427  0.116427     24.000000
  0.139712  0.139712  0.116427     24.000000
  0.162997  0.139712  0.116427     48.000000
  0.162997  0.162997  0.116427     24.000000
  0.139712  0.139712  0.139712      8.000000
  0.162997  0.139712  0.139712     24.000000
  0.162997  0.162997  0.139712     24.000000
  0.162997  0.162997  0.162997      8.000000
 


--------------------------------------------------------------------------------------------------------




 Dimension of arrays:
   k-points           NKPTS =    120   k-points in BZ     NKDIM =    120   number of bands    NBANDS=     20
   number of dos      NEDOS =    301   number of ions     NIONS =      2
   non local maximal  LDIM  =      6   non local SUM 2l+1 LMDIM =     18
   total plane-waves  NPLWV =   5832
   max r-space proj   IRMAX =      1   max aug-charges    IRDMAX=  71010
   dimension x,y,z NGX =    18 NGY =   18 NGZ =   18
   dimension x,y,z NGXF=    36 NGYF=   36 NGZF=   36
   support grid    NGXF=    72 NGYF=   72 NGZF=   72
   ions per type =               2
   NGX,Y,Z   is equivalent  to a cutoff of  10.45, 10.45, 10.45 a.u.
   NGXF,Y,Z  is equivalent  to a cutoff of  20.90, 20.90, 20.90 a.u.

 SYSTEM =  unknown system                          
 POSCAR =  Fe2                                     

 Startparameter for this run:
   NWRITE =      2    write-flag & timer
   PREC   = accura    normal or accurate (medium, high low for compatibility)
   ISTART =      0    job   : 0-new  1-cont  2-samecut
   ICHARG =      2    charge: 1-file 2-atom 10-const
   ISPIN  =      2    spin polarized calculation?
   LNONCOLLINEAR =      F non collinear calculations
   LSORBIT =      F    spin-orbit coupling
   INIWAV =      1    electr: 0-lowe 1-rand  2-diag
   LASPH  =      T    aspherical Exc in radial PAW
   METAGGA=      F    non-selfconsistent MetaGGA calc.

 Electronic Relaxation 1
   ENCUT  =  350.0 eV  25.72 Ry    5.07 a.u.   4.37  4.37  4.37*2*pi/ulx,y,z
   ENINI  =  350.0     initial cutoff
   ENAUG  =  511.4 eV  augmentation charge cutoff
   NELM   =     90;   NELMIN=  6; NELMDL= -5     # of ELM steps 
   EDIFF  = 0.1E-05   stopping-criterion for ELM
   LREAL  =      F    real-space projection
   NLSPLINE    = F    spline interpolate recip. space projectors
   LCOMPAT=      F    compatible to vasp.4.4
   GGA_COMPAT  = F    GGA compatible to vasp.4.4-vasp.4.6
   LMAXPAW     = -100 max onsite density
   LMAXMIX     =    4 max onsite mixed and CHGCAR
   VOSKOWN=      1    Vosko Wilk Nusair interpolation
   ROPT   =    0.00000
 Ionic relaxation
   EDIFFG = -.2E-02   stopping-criterion for IOM
   NSW    =    100    number of steps for IOM
   NBLOCK =      1;   KBLOCK =    100    inner block; outer block 
   IBRION =      2    ionic relax: 0-MD 1-quasi-New 2-CG
   NFREE  =      1    steps in history (QN), initial steepest desc. (CG)
   ISIF   =      3    stress and relaxation
   IWAVPR =     11    prediction:  0-non 1-charg 2-wave 3-comb
   ISYM   =      2    0-nonsym 1-usesym 2-fastsym
   LCORR  =      T    Harris-Foulkes like correction to forces

   POTIM  = 0.5000    time-step for ionic-motion
   TEIN   =    0.0    initial temperature
   TEBEG  =    0.0;   TEEND  =   0.0 temperature during run
   SMASS  =  -3.00    Nose mass-parameter (am)
   estimated Nose-frequenzy (Omega)   =  0.10E-29 period in steps = 0.13E+47 mass=  -0.187E-27a.u.
   SCALEE = 1.0000    scale energy and forces
   NPACO  =    256;   APACO  = 16.0  distance and # of slots for P.C.
   PSTRESS=    0.0 pullay stress

  Mass of Ions in am
   POMASS =  55.85
  Ionic Valenz
   ZVAL   =   8.00
  Atomic Wigner-Seitz radii
   RWIGS  =  -1.00
  virtual crystal weights 
   VCA    =   1.00
   NELECT =      16.0000    total number of electrons
   NUPDOWN=      -1.0000    fix difference up-down

 DOS related values:
   EMIN   =  10.00;   EMAX   =-10.00  energy-range for DOS
   EFERMI =   0.00
   ISMEAR =     1;   SIGMA  =   0.20  broadening in eV -4-tet -1-fermi 0-gaus

 Electronic relaxation 2 (details)
   IALGO  =     38    algorithm
   LDIAG  =      T    sub-space diagonalisation (order eigenvalues)
   LSUBROT=      F    optimize rotation matrix (better conditioning)
   TURBO    =      0    0=normal 1=particle mesh
   IRESTART =      0    0=no restart 2=restart with 2 vectors
   NREBOOT  =      0    no. of reboots
   NMIN     =      0    reboot dimension
   EREF     =   0.00    reference energy to select bands
   IMIX   =      4    mixing-type and parameters
     AMIX     =   0.40;   BMIX     =  1.00
     AMIX_MAG =   1.60;   BMIX_MAG =  1.00
     AMIN     =   0.10
     WC   =   100.;   INIMIX=   1;  MIXPRE=   1;  MAXMIX= -45

 Intra band minimization:
   WEIMIN = 0.0010     energy-eigenvalue tresh-hold
   EBREAK =  0.12E-07  absolut break condition
   DEPER  =   0.30     relativ break condition  

   TIME   =   0.40     timestep for ELM

  volume/ion in A,a.u.               =      11.73        79.19
  Fermi-wavevector in a.u.,A,eV,Ry     =   1.440859  2.722828 28.246703  2.076074
  Thomas-Fermi vector in A             =   2.559556
 
 Write flags
   LWAVE        =      T    write WAVECAR
   LDOWNSAMPLE  =      F    k-point downsampling of WAVECAR
   LCHARG       =      T    write CHGCAR
   LVTOT        =      F    write LOCPOT, total local potential
   LVHAR        =      F    write LOCPOT, Hartree potential only
   LELF         =      F    write electronic localiz. function (ELF)
   LORBIT       =     11    0 simple, 1 ext, 2 COOP (PROOUT), +10 PAW based schemes


 Dipole corrections
   LMONO  =      F    monopole corrections only (constant potential shift)
   LDIPOL =      F    correct potential (dipole corrections)
   IDIPOL =      0    1-x, 2-y, 3-z, 4-all directions 
   EPSILON=  1.0000000 bulk dielectric constant

 Exchange correlation treatment:
   GGA     =    --    GGA type
   LEXCH   =     8    internal setting for exchange type
   VOSKOWN=      1    Vosko Wilk Nusair interpolation
   LHFCALC =     F    Hartree Fock is set to
   LHFONE  =     F    Hartree Fock one center treatment
   AEXX    =    0.0000 exact exchange contribution

 Linear response parameters
   LEPSILON=     F    determine dielectric tensor
   LRPA    =     F    only Hartree local field effects (RPA)
   LNABLA  =     F    use nabla operator in PAW spheres
   LVEL    =     F    velocity operator in full k-point grid
   LINTERFAST=   F  fast interpolation
   KINTER  =     0    interpolate to denser k-point grid
   CSHIFT  =0.1000    complex shift for real part using Kramers Kronig
   OMEGAMAX=  -1.0    maximum frequency
   DEG_THRESHOLD= 0.2000000E-02 threshold for treating states as degnerate
   RTIME   =   -0.100 relaxation time in fs
  (WPLASMAI=    0.000 imaginary part of plasma frequency in eV, 0.658/RTIME)
   DFIELD  = 0.0000000 0.0000000 0.0000000 field for delta impulse in time
 
 Orbital magnetization related:
   ORBITALMAG=     F  switch on orbital magnetization
   LCHIMAG   =     F  perturbation theory with respect to B field
   DQ        =  0.001000  dq finite difference perturbation B field
   LLRAUG    =     F  two centre corrections for induced B field



--------------------------------------------------------------------------------------------------------


 conjugate gradient relaxation of ions
 charge density and potential will be updated during run
 spin polarized calculation
 Variant of blocked Davidson
 Davidson routine will perform the subspace rotation
 perform sub-space diagonalisation
    after iterative eigenvector-optimisation
 modified Broyden-mixing scheme, WC =      100.0
 initial mixing is a Kerker type mixing with AMIX =  0.4000 and BMIX =      1.0000
 Hartree-type preconditioning will be used
 using additional bands           12
 reciprocal scheme for non local part
 use partial core corrections
 calculate Harris-corrections to forces 
   (improved forces if not selfconsistent)
 use gradient corrections 
 use of overlap-Matrix (Vanderbilt PP)
 Methfessel and Paxton  Order N= 1 SIGMA  =   0.20


--------------------------------------------------------------------------------------------------------


  energy-cutoff  :      350.00
  volume of cell :       23.47
      direct lattice vectors                 reciprocal lattice vectors
     2.863035499  0.000000000  0.000000000     0.349279637 -0.000000000  0.000000000
     0.000000000  2.863035499  0.000000000     0.000000000  0.349279637  0.000000000
     0.000000000  0.000000000  2.863035499    -0.000000000 -0.000000000  0.349279637

  length of vectors
     2.863035499  2.863035499  2.863035499     0.349279637  0.349279637  0.349279637


 
 k-points in units of 2pi/SCALE and weight: Automatic                               
   0.00000000  0.00000000  0.00000000       0.000
   0.02328531 -0.00000000  0.00000000       0.002
   0.04657062 -0.00000000  0.00000000       0.002
   0.06985593 -0.00000000  0.00000000       0.002
   0.09314124 -0.00000000  0.00000000       0.002
   0.11642655 -0.00000000  0.00000000       0.002
   0.13971185 -0.00000000  0.00000000       0.002
   0.16299716 -0.00000000  0.00000000       0.002
   0.02328531  0.02328531  0.00000000       0.004
   0.04657062  0.02328531  0.00000000       0.007
   0.06985593  0.02328531  0.00000000       0.007
   0.09314124  0.02328531  0.00000000       0.007
   0.11642655  0.02328531  0.00000000       0.007
   0.13971185  0.02328531  0.00000000       0.007
   0.16299716  0.02328531  0.00000000       0.007
   0.04657062  0.04657062  0.00000000       0.004
   0.06985593  0.04657062  0.00000000       0.007
   0.09314124  0.04657062  0.00000000       0.007
   0.11642655  0.04657062  0.00000000       0.007
   0.13971185  0.04657062  0.00000000       0.007
   0.16299716  0.04657062  0.00000000       0.007
   0.06985593  0.06985593  0.00000000       0.004
   0.09314124  0.06985593  0.00000000       0.007
   0.11642655  0.06985593  0.00000000       0.007
   0.13971185  0.06985593  0.00000000       0.007
   0.16299716  0.06985593  0.00000000       0.007
   0.09314124  0.09314124  0.00000000       0.004
   0.11642655  0.09314124  0.00000000       0.007
   0.13971185  0.09314124  0.00000000       0.007
   0.16299716  0.09314124  0.00000000       0.007
   0.11642655  0.11642655  0.00000000       0.004
   0.13971185  0.11642655  0.00000000       0.007
   0.16299716  0.11642655  0.00000000       0.007
   0.13971185  0.13971185  0.00000000       0.004
   0.16299716  0.13971185  0.00000000       0.007
   0.16299716  0.16299716  0.00000000       0.004
   0.02328531  0.02328531  0.02328531       0.002
   0.04657062  0.02328531  0.02328531       0.007
   0.06985593  0.02328531  0.02328531       0.007
   0.09314124  0.02328531  0.02328531       0.007
   0.11642655  0.02328531  0.02328531       0.007
   0.13971185  0.02328531  0.02328531       0.007
   0.16299716  0.02328531  0.02328531       0.007
   0.04657062  0.04657062  0.02328531       0.007
   0.06985593  0.04657062  0.02328531       0.014
   0.09314124  0.04657062  0.02328531       0.014
   0.11642655  0.04657062  0.02328531       0.014
   0.13971185  0.04657062  0.02328531       0.014
   0.16299716  0.04657062  0.02328531       0.014
   0.06985593  0.06985593  0.02328531       0.007
   0.09314124  0.06985593  0.02328531       0.014
   0.11642655  0.06985593  0.02328531       0.014
   0.13971185  0.06985593  0.02328531       0.014
   0.16299716  0.06985593  0.02328531       0.014
   0.09314124  0.09314124  0.02328531       0.007
   0.11642655  0.09314124  0.02328531       0.014
   0.13971185  0.09314124  0.02328531       0.014
   0.16299716  0.09314124  0.02328531       0.014
   0.11642655  0.11642655  0.02328531       0.007
   0.13971185  0.11642655  0.02328531       0.014
   0.16299716  0.11642655  0.02328531       0.014
   0.13971185  0.13971185  0.02328531       0.007
   0.16299716  0.13971185  0.02328531       0.014
   0.16299716  0.16299716  0.02328531       0.007
   0.04657062  0.04657062  0.04657062       0.002
   0.06985593  0.04657062  0.04657062       0.007
   0.09314124  0.04657062  0.04657062       0.007
   0.11642655  0.04657062  0.04657062       0.007
   0.13971185  0.04657062  0.04657062       0.007
   0.16299716  0.04657062  0.04657062       0.007
   0.06985593  0.06985593  0.04657062       0.007
   0.09314124  0.06985593  0.04657062       0.014
   0.11642655  0.06985593  0.04657062       0.014
   0.13971185  0.06985593  0.04657062       0.014
   0.16299716  0.06985593  0.04657062       0.014
   0.09314124  0.09314124  0.04657062       0.007
   0.11642655  0.09314124  0.04657062       0.014
   0.13971185  0.09314124  0.04657062       0.014
   0.16299716  0.09314124  0.04657062       0.014
   0.11642655  0.11642655  0.04657062       0.007
   0.13971185  0.11642655  0.04657062       0.014
   0.16299716  0.11642655  0.04657062       0.014
   0.13971185  0.13971185  0.04657062       0.007
   0.16299716  0.13971185  0.04657062       0.014
   0.16299716  0.16299716  0.04657062       0.007
   0.06985593  0.06985593  0.06985593       0.002
   0.09314124  0.06985593  0.06985593       0.007
   0.11642655  0.06985593  0.06985593       0.007
   0.13971185  0.06985593  0.06985593       0.007
   0.16299716  0.06985593  0.06985593       0.007
   0.09314124  0.09314124  0.06985593       0.007
   0.11642655  0.09314124  0.06985593       0.014
   0.13971185  0.09314124  0.06985593       0.014
   0.16299716  0.09314124  0.06985593       0.014
   0.11642655  0.11642655  0.06985593       0.007
   0.13971185  0.11642655  0.06985593       0.014
   0.16299716  0.11642655  0.06985593       0.014
   0.13971185  0.13971185  0.06985593       0.007
   0.16299716  0.13971185  0.06985593       0.014
   0.16299716  0.16299716  0.06985593       0.007
   0.09314124  0.09314124  0.09314124       0.002
   0.11642655  0.09314124  0.09314124       0.007
   0.13971185  0.09314124  0.09314124       0.007
   0.16299716  0.09314124  0.09314124       0.007
   0.11642655  0.11642655  0.09314124       0.007
   0.13971185  0.11642655  0.09314124       0.014
   0.16299716  0.11642655  0.09314124       0.014
   0.13971185  0.13971185  0.09314124       0.007
   0.16299716  0.13971185  0.09314124       0.014
   0.16299716  0.16299716  0.09314124       0.007
   0.11642655  0.11642655  0.11642655       0.002
   0.13971185  0.11642655  0.11642655       0.007
   0.16299716  0.11642655  0.11642655       0.007
   0.13971185  0.13971185  0.11642655       0.007
   0.16299716  0.13971185  0.11642655       0.014
   0.16299716  0.16299716  0.11642655       0.007
   0.13971185  0.13971185  0.13971185       0.002
   0.16299716  0.13971185  0.13971185       0.007
   0.16299716  0.16299716  0.13971185       0.007
   0.16299716  0.16299716  0.16299716       0.002
 
 k-points in reciprocal lattice and weights: Automatic                               
   0.00000000  0.00000000  0.00000000       0.000
   0.06666667  0.00000000  0.00000000       0.002
   0.13333333  0.00000000  0.00000000       0.002
   0.20000000 -0.00000000  0.00000000       0.002
   0.26666667  0.00000000  0.00000000       0.002
   0.33333333  0.00000000  0.00000000       0.002
   0.40000000  0.00000000  0.00000000       0.002
   0.46666667 -0.00000000  0.00000000       0.002
   0.06666667  0.06666667  0.00000000       0.004
   0.13333333  0.06666667  0.00000000       0.007
   0.20000000  0.06666667  0.00000000       0.007
   0.26666667  0.06666667  0.00000000       0.007
   0.33333333  0.06666667  0.00000000       0.007
   0.40000000  0.06666667  0.00000000       0.007
   0.46666667  0.06666667  0.00000000       0.007
   0.13333333  0.13333333  0.00000000       0.004
   0.20000000  0.13333333  0.00000000       0.007
   0.26666667  0.13333333  0.00000000       0.007
   0.33333333  0.13333333  0.00000000       0.007
   0.40000000  0.13333333  0.00000000       0.007
   0.46666667  0.13333333  0.00000000       0.007
   0.20000000  0.20000000  0.00000000       0.004
   0.26666667  0.20000000  0.00000000       0.007
   0.33333333  0.20000000  0.00000000       0.007
   0.40000000  0.20000000  0.00000000       0.007
   0.46666667  0.20000000  0.00000000       0.007
   0.26666667  0.26666667  0.00000000       0.004
   0.33333333  0.26666667  0.00000000       0.007
   0.40000000  0.26666667  0.00000000       0.007
   0.46666667  0.26666667  0.00000000       0.007
   0.33333333  0.33333333  0.00000000       0.004
   0.40000000  0.33333333  0.00000000       0.007
   0.46666667  0.33333333  0.00000000       0.007
   0.40000000  0.40000000  0.00000000       0.004
   0.46666667  0.40000000  0.00000000       0.007
   0.46666667  0.46666667  0.00000000       0.004
   0.06666667  0.06666667  0.06666667       0.002
   0.13333333  0.06666667  0.06666667       0.007
   0.20000000  0.06666667  0.06666667       0.007
   0.26666667  0.06666667  0.06666667       0.007
   0.33333333  0.06666667  0.06666667       0.007
   0.40000000  0.06666667  0.06666667       0.007
   0.46666667  0.06666667  0.06666667       0.007
   0.13333333  0.13333333  0.06666667       0.007
   0.20000000  0.13333333  0.06666667       0.014
   0.26666667  0.13333333  0.06666667       0.014
   0.33333333  0.13333333  0.06666667       0.014
   0.40000000  0.13333333  0.06666667       0.014
   0.46666667  0.13333333  0.06666667       0.014
   0.20000000  0.20000000  0.06666667       0.007
   0.26666667  0.20000000  0.06666667       0.014
   0.33333333  0.20000000  0.06666667       0.014
   0.40000000  0.20000000  0.06666667       0.014
   0.46666667  0.20000000  0.06666667       0.014
   0.26666667  0.26666667  0.06666667       0.007
   0.33333333  0.26666667  0.06666667       0.014
   0.40000000  0.26666667  0.06666667       0.014
   0.46666667  0.26666667  0.06666667       0.014
   0.33333333  0.33333333  0.06666667       0.007
   0.40000000  0.33333333  0.06666667       0.014
   0.46666667  0.33333333  0.06666667       0.014
   0.40000000  0.40000000  0.06666667       0.007
   0.46666667  0.40000000  0.06666667       0.014
   0.46666667  0.46666667  0.06666667       0.007
   0.13333333  0.13333333  0.13333333       0.002
   0.20000000  0.13333333  0.13333333       0.007
   0.26666667  0.13333333  0.13333333       0.007
   0.33333333  0.13333333  0.13333333       0.007
   0.40000000  0.13333333  0.13333333       0.007
   0.46666667  0.13333333  0.13333333       0.007
   0.20000000  0.20000000  0.13333333       0.007
   0.26666667  0.20000000  0.13333333       0.014
   0.33333333  0.20000000  0.13333333       0.014
   0.40000000  0.20000000  0.13333333       0.014
   0.46666667  0.20000000  0.13333333       0.014
   0.26666667  0.26666667  0.13333333       0.007
   0.33333333  0.26666667  0.13333333       0.014
   0.40000000  0.26666667  0.13333333       0.014
   0.46666667  0.26666667  0.13333333       0.014
   0.33333333  0.33333333  0.13333333       0.007
   0.40000000  0.33333333  0.13333333       0.014
   0.46666667  0.33333333  0.13333333       0.014
   0.40000000  0.40000000  0.13333333       0.007
   0.46666667  0.40000000  0.13333333       0.014
   0.46666667  0.46666667  0.13333333       0.007
   0.20000000  0.20000000  0.20000000       0.002
   0.26666667  0.20000000  0.20000000       0.007
   0.33333333  0.20000000  0.20000000       0.007
   0.40000000  0.20000000  0.20000000       0.007
   0.46666667  0.20000000  0.20000000       0.007
   0.26666667  0.26666667  0.20000000       0.007
   0.33333333  0.26666667  0.20000000       0.014
   0.40000000  0.26666667  0.20000000       0.014
   0.46666667  0.26666667  0.20000000       0.014
   0.33333333  0.33333333  0.20000000       0.007
   0.40000000  0.33333333  0.20000000       0.014
   0.46666667  0.33333333  0.20000000       0.014
   0.40000000  0.40000000  0.20000000       0.007
   0.46666667  0.40000000  0.20000000       0.014
   0.46666667  0.46666667  0.20000000       0.007
   0.26666667  0.26666667  0.26666667       0.002
   0.33333333  0.26666667  0.26666667       0.007
   0.40000000  0.26666667  0.26666667       0.007
   0.46666667  0.26666667  0.26666667       0.007
   0.33333333  0.33333333  0.26666667       0.007
   0.40000000  0.33333333  0.26666667       0.014
   0.46666667  0.33333333  0.26666667       0.014
   0.40000000  0.40000000  0.26666667       0.007
   0.46666667  0.40000000  0.26666667       0.014
   0.46666667  0.46666667  0.26666667       0.007
   0.33333333  0.33333333  0.33333333       0.002
   0.40000000  0.33333333  0.33333333       0.007
   0.46666667  0.33333333  0.33333333       0.007
   0.40000000  0.40000000  0.33333333       0.007
   0.46666667  0.40000000  0.33333333       0.014
   0.46666667  0.46666667  0.33333333       0.007
   0.40000000  0.40000000  0.40000000       0.002
   0.46666667  0.40000000  0.40000000       0.007
   0.46666667  0.46666667  0.40000000       0.007
   0.46666667  0.46666667  0.46666667       0.002
 
 position of ions in fractional coordinates (direct lattice) 
   0.00000000  0.00000000  0.00000000
   0.50000000  0.50000000  0.50000000
 
 position of ions in cartesian coordinates  (Angst):
   0.00000000  0.00000000  0.00000000
   1.43151775  1.43151775  1.43151775
 


--------------------------------------------------------------------------------------------------------


 k-point   1 :   0.0000 0.0000 0.0000  plane waves:     365
 k-point   2 :   0.0667 0.0000 0.0000  plane waves:     353
 k-point   3 :   0.1333 0.0000 0.0000  plane waves:     353
 k-point   4 :   0.2000-0.0000 0.0000  plane waves:     349
 k-point   5 :   0.2667 0.0000 0.0000  plane waves:     357
 k-point   6 :   0.3333 0.0000 0.0000  plane waves:     353
 k-point   7 :   0.4000 0.0000 0.0000  plane waves:     352
 k-point   8 :   0.4667-0.0000 0.0000  plane waves:     336
 k-point   9 :   0.0667 0.0667 0.0000  plane waves:     355
 k-point  10 :   0.1333 0.0667 0.0000  plane waves:     354
 k-point  11 :   0.2000 0.0667 0.0000  plane waves:     353
 k-point  12 :   0.2667 0.0667 0.0000  plane waves:     350
 k-point  13 :   0.3333 0.0667 0.0000  plane waves:     352
 k-point  14 :   0.4000 0.0667 0.0000  plane waves:     347
 k-point  15 :   0.4667 0.0667 0.0000  plane waves:     348
 k-point  16 :   0.1333 0.1333 0.0000  plane waves:     356
 k-point  17 :   0.2000 0.1333 0.0000  plane waves:     353
 k-point  18 :   0.2667 0.1333 0.0000  plane waves:     354
 k-point  19 :   0.3333 0.1333 0.0000  plane waves:     354
 k-point  20 :   0.4000 0.1333 0.0000  plane waves:     347
 k-point  21 :   0.4667 0.1333 0.0000  plane waves:     346
 k-point  22 :   0.2000 0.2000 0.0000  plane waves:     342
 k-point  23 :   0.2667 0.2000 0.0000  plane waves:     349
 k-point  24 :   0.3333 0.2000 0.0000  plane waves:     348
 k-point  25 :   0.4000 0.2000 0.0000  plane waves:     352
 k-point  26 :   0.4667 0.2000 0.0000  plane waves:     352
 k-point  27 :   0.2667 0.2667 0.0000  plane waves:     340
 k-point  28 :   0.3333 0.2667 0.0000  plane waves:     346
 k-point  29 :   0.4000 0.2667 0.0000  plane waves:     349
 k-point  30 :   0.4667 0.2667 0.0000  plane waves:     352
 k-point  31 :   0.3333 0.3333 0.0000  plane waves:     348
 k-point  32 :   0.4000 0.3333 0.0000  plane waves:     352
 k-point  33 :   0.4667 0.3333 0.0000  plane waves:     356
 k-point  34 :   0.4000 0.4000 0.0000  plane waves:     354
 k-point  35 :   0.4667 0.4000 0.0000  plane waves:     356
 k-point  36 :   0.4667 0.4667 0.0000  plane waves:     356
 k-point  37 :   0.0667 0.0667 0.0667  plane waves:     353
 k-point  38 :   0.1333 0.0667 0.0667  plane waves:     352
 k-point  39 :   0.2000 0.0667 0.0667  plane waves:     353
 k-point  40 :   0.2667 0.0667 0.0667  plane waves:     348
 k-point  41 :   0.3333 0.0667 0.0667  plane waves:     346
 k-point  42 :   0.4000 0.0667 0.0667  plane waves:     346
 k-point  43 :   0.4667 0.0667 0.0667  plane waves:     349
 k-point  44 :   0.1333 0.1333 0.0667  plane waves:     351
 k-point  45 :   0.2000 0.1333 0.0667  plane waves:     356
 k-point  46 :   0.2667 0.1333 0.0667  plane waves:     350
 k-point  47 :   0.3333 0.1333 0.0667  plane waves:     352
 k-point  48 :   0.4000 0.1333 0.0667  plane waves:     350
 k-point  49 :   0.4667 0.1333 0.0667  plane waves:     349
 k-point  50 :   0.2000 0.2000 0.0667  plane waves:     350
 k-point  51 :   0.2667 0.2000 0.0667  plane waves:     349
 k-point  52 :   0.3333 0.2000 0.0667  plane waves:     351
 k-point  53 :   0.4000 0.2000 0.0667  plane waves:     353
 k-point  54 :   0.4667 0.2000 0.0667  plane waves:     355
 k-point  55 :   0.2667 0.2667 0.0667  plane waves:     347
 k-point  56 :   0.3333 0.2667 0.0667  plane waves:     350
 k-point  57 :   0.4000 0.2667 0.0667  plane waves:     351
 k-point  58 :   0.4667 0.2667 0.0667  plane waves:     350
 k-point  59 :   0.3333 0.3333 0.0667  plane waves:     349
 k-point  60 :   0.4000 0.3333 0.0667  plane waves:     349
 k-point  61 :   0.4667 0.3333 0.0667  plane waves:     353
 k-point  62 :   0.4000 0.4000 0.0667  plane waves:     348
 k-point  63 :   0.4667 0.4000 0.0667  plane waves:     353
 k-point  64 :   0.4667 0.4667 0.0667  plane waves:     352
 k-point  65 :   0.1333 0.1333 0.1333  plane waves:     347
 k-point  66 :   0.2000 0.1333 0.1333  plane waves:     351
 k-point  67 :   0.2667 0.1333 0.1333  plane waves:     353
 k-point  68 :   0.3333 0.1333 0.1333  plane waves:     353
 k-point  69 :   0.4000 0.1333 0.1333  plane waves:     355
 k-point  70 :   0.4667 0.1333 0.1333  plane waves:     351
 k-point  71 :   0.2000 0.2000 0.1333  plane waves:     350
 k-point  72 :   0.2667 0.2000 0.1333  plane waves:     356
 k-point  73 :   0.3333 0.2000 0.1333  plane waves:     352
 k-point  74 :   0.4000 0.2000 0.1333  plane waves:     349
 k-point  75 :   0.4667 0.2000 0.1333  plane waves:     349
 k-point  76 :   0.2667 0.2667 0.1333  plane waves:     353
 k-point  77 :   0.3333 0.2667 0.1333  plane waves:     350
 k-point  78 :   0.4000 0.2667 0.1333  plane waves:     347
 k-point  79 :   0.4667 0.2667 0.1333  plane waves:     349
 k-point  80 :   0.3333 0.3333 0.1333  plane waves:     349
 k-point  81 :   0.4000 0.3333 0.1333  plane waves:     345
 k-point  82 :   0.4667 0.3333 0.1333  plane waves:     345
 k-point  83 :   0.4000 0.4000 0.1333  plane waves:     347
 k-point  84 :   0.4667 0.4000 0.1333  plane waves:     349
 k-point  85 :   0.4667 0.4667 0.1333  plane waves:     346
 k-point  86 :   0.2000 0.2000 0.2000  plane waves:     347
 k-point  87 :   0.2667 0.2000 0.2000  plane waves:     350
 k-point  88 :   0.3333 0.2000 0.2000  plane waves:     350
 k-point  89 :   0.4000 0.2000 0.2000  plane waves:     345
 k-point  90 :   0.4667 0.2000 0.2000  plane waves:     348
 k-point  91 :   0.2667 0.2667 0.2000  plane waves:     353
 k-point  92 :   0.3333 0.2667 0.2000  plane waves:     349
 k-point  93 :   0.4000 0.2667 0.2000  plane waves:     348
 k-point  94 :   0.4667 0.2667 0.2000  plane waves:     350
 k-point  95 :   0.3333 0.3333 0.2000  plane waves:     350
 k-point  96 :   0.4000 0.3333 0.2000  plane waves:     346
 k-point  97 :   0.4667 0.3333 0.2000  plane waves:     345
 k-point  98 :   0.4000 0.4000 0.2000  plane waves:     349
 k-point  99 :   0.4667 0.4000 0.2000  plane waves:     343
 k-point 100 :   0.4667 0.4667 0.2000  plane waves:     347
 k-point 101 :   0.2667 0.2667 0.2667  plane waves:     350
 k-point 102 :   0.3333 0.2667 0.2667  plane waves:     344
 k-point 103 :   0.4000 0.2667 0.2667  plane waves:     346
 k-point 104 :   0.4667 0.2667 0.2667  plane waves:     348
 k-point 105 :   0.3333 0.3333 0.2667  plane waves:     350
 k-point 106 :   0.4000 0.3333 0.2667  plane waves:     348
 k-point 107 :   0.4667 0.3333 0.2667  plane waves:     349
 k-point 108 :   0.4000 0.4000 0.2667  plane waves:     347
 k-point 109 :   0.4667 0.4000 0.2667  plane waves:     343
 k-point 110 :   0.4667 0.4667 0.2667  plane waves:     342
 k-point 111 :   0.3333 0.3333 0.3333  plane waves:     347
 k-point 112 :   0.4000 0.3333 0.3333  plane waves:     344
 k-point 113 :   0.4667 0.3333 0.3333  plane waves:     340
 k-point 114 :   0.4000 0.4000 0.3333  plane waves:     343
 k-point 115 :   0.4667 0.4000 0.3333  plane waves:     337
 k-point 116 :   0.4667 0.4667 0.3333  plane waves:     338
 k-point 117 :   0.4000 0.4000 0.4000  plane waves:     338
 k-point 118 :   0.4667 0.4000 0.4000  plane waves:     340
 k-point 119 :   0.4667 0.4667 0.4000  plane waves:     343
 k-point 120 :   0.4667 0.4667 0.4667  plane waves:     347

 maximum and minimum number of plane-waves per node :       365      336

 maximum number of plane-waves:       365
 maximum index in each direction: 
   IXMAX=    4   IYMAX=    4   IZMAX=    4
   IXMIN=   -4   IYMIN=   -4   IZMIN=   -4


 serial   3D FFT for wavefunctions
 parallel 3D FFT for charge:
    minimum data exchange during FFTs selected (reduces bandwidth)


 total amount of memory used by VASP MPI-rank0    47316. kBytes
=======================================================================

   base      :      30000. kBytes
   nonl-proj :       6370. kBytes
   fftplans  :       1775. kBytes
   grid      :       1353. kBytes
   one-center:         62. kBytes
   wavefun   :       7756. kBytes
 
     INWAV:  cpu time    0.0000: real time    0.0007
 Broyden mixing: mesh for mixing (old mesh)
   NGX =  9   NGY =  9   NGZ =  9
  (NGX  = 36   NGY  = 36   NGZ  = 36)
  gives a total of    729 points

 initial charge density was supplied:
 charge density of overlapping atoms calculated
 number of electron      16.0000000 magnetization      10.0000000
 keeping initial charge density in first step


--------------------------------------------------------------------------------------------------------


 Maximum index for augmentation-charges        17277 (set IRDMAX)


--------------------------------------------------------------------------------------------------------


 First call to EWALD:  gamma=   0.619
 Maximum number of real-space cells 3x 3x 3
 Maximum number of reciprocal cells 3x 3x 3

    FEWALD:  cpu time    0.0030: real time    0.0035


--------------------------------------- Iteration      1(   1)  ---------------------------------------


    POTLOK:  cpu time    0.0350: real time    0.0384
    SETDIJ:  cpu time    1.5498: real time    1.5502
     EDDAV:  cpu time    3.8254: real time    3.8291
       DOS:  cpu time    0.0090: real time    0.0100
    --------------------------------------------
      LOOP:  cpu time    5.4202: real time    5.4280

 eigenvalue-minimisations  : 10704
 total energy-change (2. order) : 0.6344179E+02  (-0.6088348E+03)
 number of electron      16.0000000 magnetization      10.0000000
 augmentation part       16.0000000 magnetization      10.0000000

 Free energy of the ion-electron system (eV)
  ---------------------------------------------------
  alpha Z        PSCENC =       117.79976220
  Ewald energy   TEWEN  =     -1171.43779597
  -Hartree energ DENC   =      -228.04061711
  -exchange      EXHF   =         0.00000000
  -V(xc)+E(xc)   XCENC  =        14.27160946
  PAW double counting   =      1103.49540010    -1119.11610375
  entropy T*S    EENTRO =        -0.00021838
  eigenvalues    EBANDS =       157.88009929
  atomic energy  EATOM  =      1188.58965621
  Solvation  Ediel_sol  =         0.00000000
  ---------------------------------------------------
  free energy    TOTEN  =        63.44179205 eV

  energy without entropy =       63.44201043  energy(sigma->0) =       63.44186484


--------------------------------------------------------------------------------------------------------




--------------------------------------- Iteration      1(   2)  ---------------------------------------


     EDDAV:  cpu time    3.5715: real time    3.5911
       DOS:  cpu time    0.0100: real time    0.0105
    --------------------------------------------
      LOOP:  cpu time    3.5815: real time    3.6016

 eigenvalue-minimisations  :  9796
 total energy-change (2. order) :-0.7684743E+02  (-0.6871905E+02)
 number of electron      16.0000000 magnetization      10.0000000
 augmentation part       16.0000000 magnetization      10.0000000

 Free energy of the ion-electron system (eV)
  ---------------------------------------------------
  alpha Z        PSCENC =       117.79976220
  Ewald energy   TEWEN  =     -1171.43779597
  -Hartree energ DENC   =      -228.04061711
  -exchange      EXHF   =         0.00000000
  -V(xc)+E(xc)   XCENC  =        14.27160946
  PAW double counting   =      1103.49540010    -1119.11610375
  entropy T*S    EENTRO =         0.00118969
  eigenvalues    EBANDS =        81.03126380
  atomic energy  EATOM  =      1188.58965621
  Solvation  Ediel_sol  =         0.00000000
  ---------------------------------------------------
  free energy    TOTEN  =       -13.40563537 eV

  energy without entropy =      -13.40682506  energy(sigma->0) =      -13.40603194


--------------------------------------------------------------------------------------------------------




--------------------------------------- Iteration      1(   3)  ---------------------------------------


     EDDAV:  cpu time    3.8514: real time    3.8672
       DOS:  cpu time    0.0100: real time    0.0109
    --------------------------------------------
      LOOP:  cpu time    3.8614: real time    3.8782

 eigenvalue-minimisations  : 10904
 total energy-change (2. order) :-0.2660938E+01  (-0.2610432E+01)
 number of electron      16.0000000 magnetization      10.0000000
 augmentation part       16.0000000 magnetization      10.0000000

 Free energy of the ion-electron system (eV)
  ---------------------------------------------------
  alpha Z        PSCENC =       117.79976220
  Ewald energy   TEWEN  =     -1171.43779597
  -Hartree energ DENC   =      -228.04061711
  -exchange      EXHF   =         0.00000000
  -V(xc)+E(xc)   XCENC  =        14.27160946
  PAW double counting   =      1103.49540010    -1119.11610375
  entropy T*S    EENTRO =         0.00135231
  eigenvalues    EBANDS =        78.37016297
  atomic energy  EATOM  =      1188.58965621
  Solvation  Ediel_sol  =         0.00000000
  ---------------------------------------------------
  free energy    TOTEN  =       -16.06657359 eV

  energy without entropy =      -16.06792589  energy(sigma->0) =      -16.06702436


--------------------------------------------------------------------------------------------------------




--------------------------------------- Iteration      1(   4)  ---------------------------------------


     EDDAV:  cpu time    3.7194: real time    3.7384
       DOS:  cpu time    0.0100: real time    0.0109
    --------------------------------------------
      LOOP:  cpu time    3.7294: real time    3.7493

 eigenvalue-minimisations  : 10444
 total energy-change (2. order) :-0.1999702E-01  (-0.1999221E-01)
 number of electron      16.0000000 magnetization      10.0000000
 augmentation part       16.0000000 magnetization      10.0000000

 Free energy of the ion-electron system (eV)
  ---------------------------------------------------
  alpha Z        PSCENC =       117.79976220
  Ewald energy   TEWEN  =     -1171.43779597
  -Hartree energ DENC   =      -228.04061711
  -exchange      EXHF   =         0.00000000
  -V(xc)+E(xc)   XCENC  =        14.27160946
  PAW double counting   =      1103.49540010    -1119.11610375
  entropy T*S    EENTRO =         0.00134690
  eigenvalues    EBANDS =        78.35017135
  atomic energy  EATOM  =      1188.58965621
  Solvation  Ediel_sol  =         0.00000000
  ---------------------------------------------------
  free energy    TOTEN  =       -16.08657061 eV

  energy without entropy =      -16.08791751  energy(sigma->0) =      -16.08701957


--------------------------------------------------------------------------------------------------------




--------------------------------------- Iteration      1(   5)  ---------------------------------------


     EDDAV:  cpu time    3.8074: real time    3.8272
       DOS:  cpu time    0.0110: real time    0.0111
    CHARGE:  cpu time    0.2230: real time    0.2231
    MIXING:  cpu time    0.0010: real time    0.0011
    --------------------------------------------
      LOOP:  cpu time    4.0414: real time    4.0625

 eigenvalue-minimisations  : 10792
 total energy-change (2. order) :-0.2475335E-03  (-0.2475318E-03)
 number of electron      16.0000001 magnetization       4.3736119
 augmentation part        7.3780067 magnetization       2.7075100

 Broyden mixing:
  rms(total) = 0.19581E+01    rms(broyden)= 0.19580E+01
  rms(prec ) = 0.35374E+01
  weight for this iteration     100.00

 Free energy of the ion-electron system (eV)
  ---------------------------------------------------
  alpha Z        PSCENC =       117.79976220
  Ewald energy   TEWEN  =     -1171.43779597
  -Hartree energ DENC   =      -228.04061711
  -exchange      EXHF   =         0.00000000
  -V(xc)+E(xc)   XCENC  =        14.27160946
  PAW double counting   =      1103.49540010    -1119.11610375
  entropy T*S    EENTRO =         0.00134674
  eigenvalues    EBANDS =        78.34992397
  atomic energy  EATOM  =      1188.58965621
  Solvation  Ediel_sol  =         0.00000000
  ---------------------------------------------------
  free energy    TOTEN  =       -16.08681814 eV

  energy without entropy =      -16.08816489  energy(sigma->0) =      -16.08726706


--------------------------------------------------------------------------------------------------------




--------------------------------------- Iteration      1(   6)  ---------------------------------------


    POTLOK:  cpu time    0.0350: real time    0.0512
    SETDIJ:  cpu time    1.5518: real time    1.5524
     EDDAV:  cpu time    3.7654: real time    3.7691
       DOS:  cpu time    0.0110: real time    0.0111
    CHARGE:  cpu time    0.2050: real time    0.2063
    MIXING:  cpu time    0.0020: real time    0.0012
    --------------------------------------------
      LOOP:  cpu time    5.5702: real time    5.5914

 eigenvalue-minimisations  : 10616
 total energy-change (2. order) :-0.4801722E+00  (-0.5150529E+00)
 number of electron      16.0000001 magnetization       4.6264131
 augmentation part        8.4919384 magnetization       3.7977723

 Broyden mixing:
  rms(total) = 0.61614E+00    rms(broyden)= 0.61535E+00
  rms(prec ) = 0.69431E+00
  weight for this iteration     100.00

 eigenvalues of (default mixing * dielectric matrix)
  average eigenvalue GAMMA=   0.8804
  0.8804

 Free energy of the ion-electron system (eV)
  ---------------------------------------------------
  alpha Z        PSCENC =       117.79976220
  Ewald energy   TEWEN  =     -1171.43779597
  -Hartree energ DENC   =      -196.94331401
  -exchange      EXHF   =         0.00000000
  -V(xc)+E(xc)   XCENC  =         8.23495424
  PAW double counting   =      1215.38545999    -1227.61853234
  entropy T*S    EENTRO =        -0.00029374
  eigenvalues    EBANDS =        49.42311309
  atomic energy  EATOM  =      1188.58965621
  Solvation  Ediel_sol  =         0.00000000
  ---------------------------------------------------
  free energy    TOTEN  =       -16.56699034 eV

  energy without entropy =      -16.56669659  energy(sigma->0) =      -16.56689242


--------------------------------------------------------------------------------------------------------




--------------------------------------- Iteration      1(   7)  ---------------------------------------


    POTLOK:  cpu time    0.0350: real time    0.0511
    SETDIJ:  cpu time    1.5528: real time    1.5539
     EDDAV:  cpu time    3.9874: real time    3.9903
       DOS:  cpu time    0.0100: real time    0.0114
    CHARGE:  cpu time    0.2070: real time    0.2067
    MIXING:  cpu time    0.0010: real time    0.0011
    --------------------------------------------
      LOOP:  cpu time    5.7931: real time    5.8145

 eigenvalue-minimisations  : 11352
 total energy-change (2. order) : 0.6094691E-01  (-0.3787422E-01)
 number of electron      16.0000001 magnetization       4.4913293
 augmentation part        8.2505885 magnetization       3.7100079

 Broyden mixing:
  rms(total) = 0.44091E+00    rms(broyden)= 0.44078E+00
  rms(prec ) = 0.52665E+00
  weight for this iteration     100.00

 eigenvalues of (default mixing * dielectric matrix)
  average eigenvalue GAMMA=   0.7726
  1.0306  0.5146

 Free energy of the ion-electron system (eV)
  ---------------------------------------------------
  alpha Z        PSCENC =       117.79976220
  Ewald energy   TEWEN  =     -1171.43779597
  -Hartree energ DENC   =      -199.54471676
  -exchange      EXHF   =         0.00000000
  -V(xc)+E(xc)   XCENC  =         8.87189427
  PAW double counting   =      1292.64191150    -1307.93881326
  entropy T*S    EENTRO =        -0.00215855
  eigenvalues    EBANDS =        54.51421695
  atomic energy  EATOM  =      1188.58965621
  Solvation  Ediel_sol  =         0.00000000
  ---------------------------------------------------
  free energy    TOTEN  =       -16.50604342 eV

  energy without entropy =      -16.50388487  energy(sigma->0) =      -16.50532390


--------------------------------------------------------------------------------------------------------




--------------------------------------- Iteration      1(   8)  ---------------------------------------


    POTLOK:  cpu time    0.0350: real time    0.0516
    SETDIJ:  cpu time    1.5538: real time    1.5541
     EDDAV:  cpu time    4.2873: real time    4.2913
       DOS:  cpu time    0.0100: real time    0.0116
    CHARGE:  cpu time    0.2070: real time    0.2066
    MIXING:  cpu time    0.0010: real time    0.0011
    --------------------------------------------
      LOOP:  cpu time    6.0941: real time    6.1164

 eigenvalue-minimisations  : 12448
 total energy-change (2. order) : 0.1703703E-01  (-0.1054020E-02)
 number of electron      16.0000001 magnetization       4.4134378
 augmentation part        8.2801076 magnetization       3.6330839

 Broyden mixing:
  rms(total) = 0.16163E+00    rms(broyden)= 0.16160E+00
  rms(prec ) = 0.23218E+00
  weight for this iteration     100.00

 eigenvalues of (default mixing * dielectric matrix)
  average eigenvalue GAMMA=   1.1088
  1.8773  0.8753  0.5736

 Free energy of the ion-electron system (eV)
  ---------------------------------------------------
  alpha Z        PSCENC =       117.79976220
  Ewald energy   TEWEN  =     -1171.43779597
  -Hartree energ DENC   =      -197.74992010
  -exchange      EXHF   =         0.00000000
  -V(xc)+E(xc)   XCENC  =         8.63149722
  PAW double counting   =      1331.25227276    -1347.37873896
  entropy T*S    EENTRO =        -0.00248145
  eigenvalues    EBANDS =        53.80674169
  atomic energy  EATOM  =      1188.58965621
  Solvation  Ediel_sol  =         0.00000000
  ---------------------------------------------------
  free energy    TOTEN  =       -16.48900640 eV

  energy without entropy =      -16.48652495  energy(sigma->0) =      -16.48817925


--------------------------------------------------------------------------------------------------------




--------------------------------------- Iteration      1(   9)  ---------------------------------------


    POTLOK:  cpu time    0.0360: real time    0.0514
    SETDIJ:  cpu time    1.5508: real time    1.5517
     EDDAV:  cpu time    4.7753: real time    4.7797
       DOS:  cpu time    0.0100: real time    0.0115
    CHARGE:  cpu time    0.2070: real time    0.2065
    MIXING:  cpu time    0.0010: real time    0.0012
    --------------------------------------------
      LOOP:  cpu time    6.5800: real time    6.6020

 eigenvalue-minimisations  : 14108
 total energy-change (2. order) : 0.1130354E-01  (-0.3205996E-03)
 number of electron      16.0000001 magnetization       4.4587119
 augmentation part        8.3213960 magnetization       3.6773861

 Broyden mixing:
  rms(total) = 0.43278E-01    rms(broyden)= 0.43251E-01
  rms(prec ) = 0.51110E-01
  weight for this iteration     100.00

 eigenvalues of (default mixing * dielectric matrix)
  average eigenvalue GAMMA=   1.1879
  2.3388  1.0610  0.6759  0.6759

 Free energy of the ion-electron system (eV)
  ---------------------------------------------------
  alpha Z        PSCENC =       117.79976220
  Ewald energy   TEWEN  =     -1171.43779597
  -Hartree energ DENC   =      -195.28641222
  -exchange      EXHF   =         0.00000000
  -V(xc)+E(xc)   XCENC  =         8.48024398
  PAW double counting   =      1391.77159815    -1409.27248331
  entropy T*S    EENTRO =        -0.00285241
  eigenvalues    EBANDS =        52.88058053
  atomic energy  EATOM  =      1188.58965621
  Solvation  Ediel_sol  =         0.00000000
  ---------------------------------------------------
  free energy    TOTEN  =       -16.47770286 eV

  energy without entropy =      -16.47485045  energy(sigma->0) =      -16.47675205


--------------------------------------------------------------------------------------------------------




--------------------------------------- Iteration      1(  10)  ---------------------------------------


    POTLOK:  cpu time    0.0350: real time    0.0512
    SETDIJ:  cpu time    1.5508: real time    1.5508
     EDDAV:  cpu time    3.9984: real time    4.0033
       DOS:  cpu time    0.0120: real time    0.0117
    CHARGE:  cpu time    0.2070: real time    0.2064
    MIXING:  cpu time    0.0000: real time    0.0012
    --------------------------------------------
      LOOP:  cpu time    5.8041: real time    5.8246

 eigenvalue-minimisations  : 11424
 total energy-change (2. order) : 0.4152841E-03  (-0.1806182E-03)
 number of electron      16.0000001 magnetization       4.4717646
 augmentation part        8.3075353 magnetization       3.6847277

 Broyden mixing:
  rms(total) = 0.64746E-02    rms(broyden)= 0.64687E-02
  rms(prec ) = 0.88582E-02
  weight for this iteration     100.00

 eigenvalues of (default mixing * dielectric matrix)
  average eigenvalue GAMMA=   1.1459
  2.4121  1.1316  0.6333  0.7763  0.7763

 Free energy of the ion-electron system (eV)
  ---------------------------------------------------
  alpha Z        PSCENC =       117.79976220
  Ewald energy   TEWEN  =     -1171.43779597
  -Hartree energ DENC   =      -195.16352528
  -exchange      EXHF   =         0.00000000
  -V(xc)+E(xc)   XCENC  =         8.52158056
  PAW double counting   =      1409.52498551    -1427.51916963
  entropy T*S    EENTRO =        -0.00276443
  eigenvalues    EBANDS =        53.20998325
  atomic energy  EATOM  =      1188.58965621
  Solvation  Ediel_sol  =         0.00000000
  ---------------------------------------------------
  free energy    TOTEN  =       -16.47728757 eV

  energy without entropy =      -16.47452314  energy(sigma->0) =      -16.47636610


--------------------------------------------------------------------------------------------------------




--------------------------------------- Iteration      1(  11)  ---------------------------------------


    POTLOK:  cpu time    0.0360: real time    0.0510
    SETDIJ:  cpu time    1.5418: real time    1.5436
     EDDAV:  cpu time    4.0264: real time    4.0299
       DOS:  cpu time    0.0120: real time    0.0116
    CHARGE:  cpu time    0.2060: real time    0.2067
    MIXING:  cpu time    0.0010: real time    0.0013
    --------------------------------------------
      LOOP:  cpu time    5.8231: real time    5.8441

 eigenvalue-minimisations  : 11536
 total energy-change (2. order) :-0.3516953E-04  (-0.7707441E-05)
 number of electron      16.0000001 magnetization       4.4693989
 augmentation part        8.3092027 magnetization       3.6825006

 Broyden mixing:
  rms(total) = 0.46774E-02    rms(broyden)= 0.46771E-02
  rms(prec ) = 0.50919E-02
  weight for this iteration     100.00

 eigenvalues of (default mixing * dielectric matrix)
  average eigenvalue GAMMA=   1.1196
  2.4073  1.2760  1.0087  0.6987  0.6987  0.6284

 Free energy of the ion-electron system (eV)
  ---------------------------------------------------
  alpha Z        PSCENC =       117.79976220
  Ewald energy   TEWEN  =     -1171.43779597
  -Hartree energ DENC   =      -195.11789341
  -exchange      EXHF   =         0.00000000
  -V(xc)+E(xc)   XCENC  =         8.53569295
  PAW double counting   =      1411.57590413    -1429.59015277
  entropy T*S    EENTRO =        -0.00276509
  eigenvalues    EBANDS =        53.17026900
  atomic energy  EATOM  =      1188.58965621
  Solvation  Ediel_sol  =         0.00000000
  ---------------------------------------------------
  free energy    TOTEN  =       -16.47732274 eV

  energy without entropy =      -16.47455765  energy(sigma->0) =      -16.47640105


--------------------------------------------------------------------------------------------------------




--------------------------------------- Iteration      1(  12)  ---------------------------------------


    POTLOK:  cpu time    0.0360: real time    0.0511
    SETDIJ:  cpu time    1.5418: real time    1.5433
     EDDAV:  cpu time    3.6674: real time    3.6710
       DOS:  cpu time    0.0120: real time    0.0116
    CHARGE:  cpu time    0.2070: real time    0.2068
    MIXING:  cpu time    0.0000: real time    0.0013
    --------------------------------------------
      LOOP:  cpu time    5.4642: real time    5.4851

 eigenvalue-minimisations  :  9988
 total energy-change (2. order) : 0.1022566E-04  (-0.2576417E-06)
 number of electron      16.0000001 magnetization       4.4681075
 augmentation part        8.3094069 magnetization       3.6812775

 Broyden mixing:
  rms(total) = 0.18870E-02    rms(broyden)= 0.18869E-02
  rms(prec ) = 0.22794E-02
  weight for this iteration     100.00

 eigenvalues of (default mixing * dielectric matrix)
  average eigenvalue GAMMA=   1.2378
  2.4570  2.2603  1.0934  0.8413  0.6634  0.6634  0.6860

 Free energy of the ion-electron system (eV)
  ---------------------------------------------------
  alpha Z        PSCENC =       117.79976220
  Ewald energy   TEWEN  =     -1171.43779597
  -Hartree energ DENC   =      -195.12864940
  -exchange      EXHF   =         0.00000000
  -V(xc)+E(xc)   XCENC  =         8.53380205
  PAW double counting   =      1411.74382299    -1429.73854059
  entropy T*S    EENTRO =        -0.00276040
  eigenvalues    EBANDS =        53.16339039
  atomic energy  EATOM  =      1188.58965621
  Solvation  Ediel_sol  =         0.00000000
  ---------------------------------------------------
  free energy    TOTEN  =       -16.47731252 eV

  energy without entropy =      -16.47455211  energy(sigma->0) =      -16.47639238


--------------------------------------------------------------------------------------------------------




--------------------------------------- Iteration      1(  13)  ---------------------------------------


    POTLOK:  cpu time    0.0350: real time    0.0506
    SETDIJ:  cpu time    1.5438: real time    1.5434
     EDDAV:  cpu time    3.0825: real time    3.1008
       DOS:  cpu time    0.0100: real time    0.0109
    CHARGE:  cpu time    0.2070: real time    0.2065
    MIXING:  cpu time    0.0010: real time    0.0013
    --------------------------------------------
      LOOP:  cpu time    4.8793: real time    4.9137

 eigenvalue-minimisations  :  7828
 total energy-change (2. order) :-0.1203922E-05  (-0.1130866E-06)
 number of electron      16.0000001 magnetization       4.4673545
 augmentation part        8.3096896 magnetization       3.6805780

 Broyden mixing:
  rms(total) = 0.10182E-02    rms(broyden)= 0.10181E-02
  rms(prec ) = 0.12046E-02
  weight for this iteration     100.00

 eigenvalues of (default mixing * dielectric matrix)
  average eigenvalue GAMMA=   1.2439
  2.6462  2.3694  1.1742  1.0654  0.7844  0.6667  0.6667  0.5781

 Free energy of the ion-electron system (eV)
  ---------------------------------------------------
  alpha Z        PSCENC =       117.79976220
  Ewald energy   TEWEN  =     -1171.43779597
  -Hartree energ DENC   =      -195.13493098
  -exchange      EXHF   =         0.00000000
  -V(xc)+E(xc)   XCENC  =         8.53414872
  PAW double counting   =      1412.30745743    -1430.28902739
  entropy T*S    EENTRO =        -0.00276373
  eigenvalues    EBANDS =        53.15617979
  atomic energy  EATOM  =      1188.58965621
  Solvation  Ediel_sol  =         0.00000000
  ---------------------------------------------------
  free energy    TOTEN  =       -16.47731372 eV

  energy without entropy =      -16.47454999  energy(sigma->0) =      -16.47639248


--------------------------------------------------------------------------------------------------------




--------------------------------------- Iteration      1(  14)  ---------------------------------------


    POTLOK:  cpu time    0.0350: real time    0.0520
    SETDIJ:  cpu time    1.5448: real time    1.5450
     EDDAV:  cpu time    2.4526: real time    2.4560
       DOS:  cpu time    0.0120: real time    0.0115
    --------------------------------------------
      LOOP:  cpu time    4.0434: real time    4.0644

 eigenvalue-minimisations  :  5184
 total energy-change (2. order) : 0.7686474E-06  (-0.2971395E-07)
 number of electron      16.0000001 magnetization       4.4673545
 augmentation part        8.3096896 magnetization       3.6805780

 Free energy of the ion-electron system (eV)
  ---------------------------------------------------
  alpha Z        PSCENC =       117.79976220
  Ewald energy   TEWEN  =     -1171.43779597
  -Hartree energ DENC   =      -195.13946803
  -exchange      EXHF   =         0.00000000
  -V(xc)+E(xc)   XCENC  =         8.53293512
  PAW double counting   =      1412.30329516    -1430.28369784
  entropy T*S    EENTRO =        -0.00276413
  eigenvalues    EBANDS =        53.16076433
  atomic energy  EATOM  =      1188.58965621
  Solvation  Ediel_sol  =         0.00000000
  ---------------------------------------------------
  free energy    TOTEN  =       -16.47731295 eV

  energy without entropy =      -16.47454882  energy(sigma->0) =      -16.47639157


--------------------------------------------------------------------------------------------------------




 average (electrostatic) potential at core
  the test charge radii are     1.0103
  (the norm of the test charge is              1.0000)
       1 -43.6059       2 -43.6059
 
 
 
 E-fermi :   5.4743     XC(G=0): -12.9359     alpha+bet :-13.2097

 Fermi energy:         5.4743365299

 spin component 1

 k-point     1 :       0.0000    0.0000    0.0000
  band No.  band energies     occupation 
      1      -2.7438      1.00000
      2       0.8386      1.00000
      3       0.8386      1.00000
      4       3.2547      1.00000
      5       3.2547      1.00000
      6       3.2547      1.00000
      7       4.4047      1.00000
      8       4.4047      1.00000
      9       5.5575      0.17964
     10       5.5575      0.17964
     11       5.5575      0.17964
     12      15.2072      0.00000
     13      15.2072      0.00000
     14      15.2072      0.00000
     15      20.8202      0.00000
     16      20.8202      0.00000
     17      25.5391      0.00000
     18      30.2067      0.00000
     19      30.2067      0.00000
     20      30.2067      0.00000

 k-point     2 :       0.0667    0.0000    0.0000
  band No.  band energies     occupation 
      1      -2.6537      1.00000
      2       0.8764      1.00000
      3       0.8775      1.00000
      4       3.2541      1.00000
      5       3.2541      1.00000
      6       3.2789      1.00000
      7       4.3659      1.00000
      8       4.4200      1.00000
      9       5.4839      0.45979
     10       5.4839      0.45979
     11       5.5315      0.26855
     12      14.5429      0.00000
     13      15.3762      0.00000
     14      15.3762      0.00000
     15      20.8480      0.00000
     16      21.3206      0.00000
     17      25.8402      0.00000
     18      29.5689      0.00000
     19      30.1146      0.00000
     20      30.1146      0.00000

 k-point     3 :       0.1333    0.0000    0.0000
  band No.  band energies     occupation 
      1      -2.3869      1.00000
      2       0.9868      1.00000
      3       0.9881      1.00000
      4       3.2547      1.00000
      5       3.2547      1.00000
      6       3.3504      1.00000
      7       4.2508      1.00000
      8       4.4651      1.00000
      9       5.2804      1.02166
     10       5.2804      1.02166
     11       5.4545      0.58352
     12      13.0890      0.00000
     13      15.8641      0.00000
     14      15.8641      0.00000
     15      20.9314      0.00000
     16      22.1722      0.00000
     17      26.8612      0.00000
     18      28.3053      0.00000
     19      29.7136      0.00000
     20      29.7136      0.00000

 k-point     4 :       0.2000   -0.0000    0.0000
  band No.  band energies     occupation 
      1      -1.9543      1.00000
      2       1.1443      1.00000
      3       1.1697      1.00000
      4       3.2636      1.00000
      5       3.2636      1.00000
      6       3.4666      1.00000
      7       4.0640      1.00000
      8       4.5376      1.00000
[...]

 k-point   114 :       0.4000    0.4000    0.3333
  band No.  band energies     occupation 
      1       3.4266      1.00000
      2       3.5424      1.00000
      3       3.9953      1.00000
      4       4.1045      1.00000
      5       4.1547      1.00000
      6       4.4091      1.00000
      7       7.6219     -0.00000
      8       7.6716     -0.00000
      9       7.7326     -0.00000
     10       7.7612     -0.00000
     11      10.8452     -0.00000
     12      12.9428      0.00000
     13      14.5802      0.00000
     14      16.7141      0.00000
     15      17.3530      0.00000
     16      19.0559      0.00000
     17      20.1435      0.00000
     18      22.7917      0.00000
     19      36.4074      0.00000
     20      37.9384      0.00000

 k-point   115 :       0.4667    0.4000    0.3333
  band No.  band energies     occupation 
      1       3.4870      1.00000
      2       3.5041      1.00000
      3       3.9810      1.00000
      4       4.0228      1.00000
      5       4.3326      1.00000
      6       4.4408      1.00000
      7       7.6486     -0.00000
      8       7.6673     -0.00000
      9       7.7848     -0.00000
     10       7.7949     -0.00000
     11      11.5315      0.00000
     12      12.3007      0.00000
     13      15.2303      0.00000
     14      16.2173      0.00000
     15      17.3695      0.00000
     16      18.2814      0.00000
     17      20.5628      0.00000
     18      21.5656      0.00000
     19      37.2109      0.00000
     20      37.8341      0.00000

 k-point   116 :       0.4667    0.4667    0.3333
  band No.  band energies     occupation 
      1       3.5026      1.00000
      2       3.5048      1.00000
      3       3.9358      1.00000
      4       3.9544      1.00000
      5       4.4774      1.00000
      6       4.5187      1.00000
      7       7.6890     -0.00000
      8       7.6960     -0.00000
      9       7.8116     -0.00000
     10       7.8149     -0.00000
     11      12.1335      0.00000
     12      12.5057      0.00000
     13      14.8584      0.00000
     14      15.2997      0.00000
     15      18.0880      0.00000
     16      18.7358      0.00000
     17      19.7012      0.00000
     18      20.3745      0.00000
     19      37.9645      0.00000
     20      38.2314      0.00000

 k-point   117 :       0.4000    0.4000    0.4000
  band No.  band energies     occupation 
      1       3.6297      1.00000
      2       3.7970      1.00000
      3       3.9650      1.00000
      4       3.9651      1.00000
      5       4.2042      1.00000
      6       4.2042      1.00000
      7       7.7290     -0.00000
      8       7.7292     -0.00000
      9       7.7564     -0.00000
     10       7.7566     -0.00000
     11      11.5619      0.00000
     12      14.0435      0.00000
     13      14.0435      0.00000
     14      16.3320      0.00000
     15      17.7236      0.00000
     16      17.7236      0.00000
     17      19.0635      0.00000
     18      21.4228      0.00000
     19      38.5822      0.00000
     20      38.5822      0.00000

 k-point   118 :       0.4667    0.4000    0.4000
  band No.  band energies     occupation 
      1       3.6737      1.00000
      2       3.7529      1.00000
      3       3.9835      1.00000
      4       4.0616      1.00000
      5       4.1440      1.00000
      6       4.2531      1.00000
      7       7.7369     -0.00000
      8       7.7477     -0.00000
      9       7.7932     -0.00000
     10       7.8022     -0.00000
     11      12.3325      0.00000
     12      13.1849      0.00000
     13      15.2110      0.00000
     14      16.4396      0.00000
     15      16.6451      0.00000
     16      17.3036      0.00000
     17      19.2570      0.00000
     18      20.2126      0.00000
     19      39.2665      0.00000
     20      39.8434      0.00000

 k-point   119 :       0.4667    0.4667    0.4000
  band No.  band energies     occupation 
      1       3.7548      1.00000
      2       3.8221      1.00000
      3       3.9230      1.00000
      4       3.9863      1.00000
      5       4.2143      1.00000
      6       4.2553      1.00000
      7       7.7726     -0.00000
      8       7.7766     -0.00000
      9       7.8178     -0.00000
     10       7.8210     -0.00000
     11      13.1138      0.00000
     12      13.6433      0.00000
     13      15.0095      0.00000
     14      15.6772      0.00000
     15      16.9135      0.00000
     16      17.3958      0.00000
     17      18.4670      0.00000
     18      19.0603      0.00000
     19      40.4269      0.00000
     20      40.7226      0.00000

 k-point   120 :       0.4667    0.4667    0.4667
  band No.  band energies     occupation 
      1       3.8741      1.00000
      2       3.9637      1.00000
      3       3.9637      1.00000
      4       4.0716      1.00000
      5       4.0716      1.00000
      6       4.0769      1.00000
      7       7.8222     -0.00000
      8       7.8224     -0.00000
      9       7.8234     -0.00000
     10       7.8236     -0.00000
     11      14.0654      0.00000
     12      14.8419      0.00000
     13      14.8420      0.00000
     14      16.0950      0.00000
     15      16.0951      0.00000
     16      16.2728      0.00000
     17      17.7519      0.00000
     18      18.0415      0.00000
     19      42.8925      0.00000
     20      42.9110      0.00000


--------------------------------------------------------------------------------------------------------


 soft charge-density along one line, spin component           1
         0         1         2         3         4         5         6         7         8         9
 total charge-density along one line
 
 soft charge-density along one line, spin component           2
         0         1         2         3         4         5         6         7         8         9
 total charge-density along one line
 
 pseudopotential strength for first ion, spin component:           1
 -5.565  -0.000  -0.000  -0.000  -0.000  -6.097  -0.000  -0.000
 -0.000  -5.565   0.000  -0.000   0.000  -0.000  -6.097   0.000
 -0.000   0.000  -5.774   0.000   0.000  -0.000   0.000  -6.299
 -0.000  -0.000   0.000  -5.565  -0.000  -0.000  -0.000   0.000
 -0.000   0.000   0.000  -0.000  -5.774  -0.000   0.000   0.000
 -6.097  -0.000  -0.000  -0.000  -0.000  -6.587  -0.000  -0.000
 -0.000  -6.097   0.000  -0.000   0.000  -0.000  -6.587   0.000
 -0.000   0.000  -6.299   0.000   0.000  -0.000   0.000  -6.782
 -0.000  -0.000   0.000  -6.097  -0.000  -0.000  -0.000   0.000
 -0.000   0.000   0.000  -0.000  -6.299  -0.000   0.000   0.000
 -0.000   0.000   0.000   0.000  -0.000  -0.000   0.000   0.000
 -0.000   0.000   0.000   0.000  -0.000  -0.000   0.000   0.000
  0.000   0.000  -0.000  -0.000  -0.000   0.000   0.000  -0.000
 -0.000   0.000   0.000  -0.000   0.000  -0.000   0.000   0.000
  0.000  -0.000   0.000   0.000  -0.000   0.000  -0.000   0.000
  0.000   0.000  -0.000  -0.000  -0.000   0.000   0.000  -0.000
 -0.000   0.000   0.000  -0.000   0.000  -0.000   0.000   0.000
  0.000  -0.000   0.000   0.000  -0.000   0.000  -0.000   0.000
 pseudopotential strength for first ion, spin component:           2
 -4.134   0.000   0.000   0.000   0.000  -4.710   0.000   0.000
  0.000  -4.134  -0.000  -0.000  -0.000   0.000  -4.709  -0.000
  0.000  -0.000  -3.884  -0.000  -0.000   0.000  -0.000  -4.468
  0.000  -0.000  -0.000  -4.134   0.000   0.000  -0.000  -0.000
  0.000  -0.000  -0.000   0.000  -3.884   0.000  -0.000  -0.000
 -4.710   0.000   0.000   0.000   0.000  -5.242   0.000   0.000
  0.000  -4.709  -0.000  -0.000  -0.000   0.000  -5.242  -0.000
  0.000  -0.000  -4.468  -0.000  -0.000   0.000  -0.000  -5.009
  0.000  -0.000  -0.000  -4.709   0.000   0.000  -0.000  -0.000
  0.000  -0.000  -0.000   0.000  -4.468   0.000  -0.000  -0.000
  0.000  -0.000  -0.000  -0.000   0.000   0.000  -0.000  -0.000
  0.000  -0.000  -0.000  -0.000   0.000   0.000  -0.000  -0.000
  0.000   0.000  -0.000  -0.000  -0.000   0.000   0.000  -0.000
 -0.000   0.000   0.000  -0.000   0.000  -0.000   0.000   0.000
  0.000  -0.000   0.000   0.000  -0.000   0.000  -0.000   0.000
  0.000   0.000  -0.000  -0.000  -0.000   0.000   0.000  -0.000
 -0.000   0.000   0.000  -0.000   0.000  -0.000   0.000   0.000
  0.000  -0.000   0.000   0.000  -0.000   0.000  -0.000   0.000
 total augmentation occupancy for first ion, spin component:           1
  2.253   0.000  -0.000   0.000  -0.000  -1.254  -0.000   0.000  -0.000   0.000   0.000   0.000  -0.000   0.000  -0.000   0.000
  0.000   2.253   0.000   0.000  -0.000  -0.000  -1.254  -0.000  -0.000   0.000  -0.000  -0.000   0.000   0.000  -0.000   0.000
 -0.000   0.000   3.674   0.000   0.000   0.000   0.000  -2.397   0.000  -0.000  -0.000   0.000   0.000   0.000   0.000   0.000
  0.000   0.000   0.000   2.253   0.000  -0.000  -0.000  -0.000  -1.254  -0.000   0.000  -0.000   0.000   0.000  -0.000   0.000
 -0.000  -0.000  -0.000   0.000   3.674   0.000   0.000   0.000  -0.000  -2.397  -0.000  -0.000  -0.000  -0.000   0.000   0.000
 -1.254  -0.000   0.000  -0.000   0.000   1.650   0.000  -0.000   0.000  -0.000  -0.000  -0.000   0.000   0.000  -0.000  -0.000
 -0.000  -1.254   0.000  -0.000   0.000   0.000   1.650   0.000   0.000  -0.000   0.000   0.000   0.000   0.000   0.000   0.000
  0.000  -0.000  -2.397  -0.000   0.000  -0.000   0.000   2.380   0.000   0.000  -0.000  -0.000   0.000   0.000   0.000   0.000
 -0.000  -0.000  -0.000  -1.254  -0.000   0.000   0.000   0.000   1.650   0.000  -0.000  -0.000   0.000   0.000  -0.000   0.000
  0.000   0.000  -0.000  -0.000  -2.397  -0.000  -0.000   0.000   0.000   2.380   0.000   0.000   0.000  -0.000   0.000   0.000
  0.000  -0.000  -0.000  -0.000   0.000  -0.000  -0.000  -0.000  -0.000   0.000   2.434  -0.284   0.000  -0.000   0.000   0.000
  0.000  -0.000   0.000  -0.000   0.000   0.000   0.000  -0.000   0.000   0.000  -0.284   0.039   0.000   0.000   0.000   0.000
  0.000  -0.000   0.000   0.000  -0.000   0.000   0.000  -0.000   0.000   0.000   0.000  -0.000   0.297   0.000   0.000  -0.026
  0.000  -0.000   0.000   0.000  -0.000   0.000   0.000   0.000   0.000   0.000   0.000   0.000   0.000   0.297   0.000  -0.000
  0.000   0.000   0.000   0.000  -0.000  -0.000   0.000   0.000  -0.000   0.000   0.000   0.000   0.000   0.000   0.297  -0.000
 -0.000   0.000  -0.000   0.000   0.000  -0.000  -0.000   0.000   0.000   0.000   0.000   0.000  -0.026  -0.000  -0.000   0.003
  0.000  -0.000   0.000   0.000   0.000  -0.000   0.000   0.000   0.000   0.000  -0.000   0.000  -0.000  -0.026  -0.000   0.000
 -0.000   0.000   0.000   0.000   0.000  -0.000   0.000   0.000   0.000   0.000   0.000   0.000  -0.000  -0.000  -0.026   0.000
 total augmentation occupancy for first ion, spin component:           2
  1.867   0.000  -0.000   0.000  -0.000  -0.780  -0.000   0.000  -0.000   0.000  -0.000  -0.000   0.000   0.000  -0.000  -0.000
  0.000   1.867   0.000   0.000  -0.000  -0.000  -0.780  -0.000  -0.000   0.000  -0.000  -0.000  -0.000   0.000  -0.000  -0.000
 -0.000  -0.000   3.105   0.000   0.000   0.000  -0.000  -1.386   0.000   0.000   0.000  -0.000  -0.000   0.000  -0.000   0.000
  0.000   0.000   0.000   1.867   0.000  -0.000  -0.000   0.000  -0.780  -0.000  -0.000  -0.000  -0.000  -0.000   0.000   0.000
 -0.000  -0.000   0.000   0.000   3.105   0.000   0.000   0.000  -0.000  -1.386   0.000  -0.000   0.000   0.000   0.000   0.000
 -0.780  -0.000   0.000  -0.000   0.000   0.088   0.000  -0.000   0.000  -0.000  -0.000  -0.000  -0.000  -0.000  -0.000   0.000
 -0.000  -0.780   0.000  -0.000   0.000   0.000   0.088  -0.000   0.000  -0.000   0.000   0.000  -0.000   0.000   0.000   0.000
  0.000  -0.000  -1.386  -0.000   0.000  -0.000  -0.000   0.380  -0.000  -0.000   0.000   0.000   0.000   0.000   0.000   0.000
 -0.000  -0.000   0.000  -0.780  -0.000   0.000   0.000  -0.000   0.088   0.000  -0.000   0.000  -0.000   0.000   0.000   0.000
  0.000   0.000  -0.000  -0.000  -1.386  -0.000  -0.000  -0.000   0.000   0.380   0.000   0.000  -0.000   0.000  -0.000   0.000
 -0.000  -0.000   0.000   0.000   0.000   0.000   0.000  -0.000  -0.000   0.000  -0.330   0.099  -0.000  -0.000  -0.000   0.000
 -0.000  -0.000  -0.000  -0.000   0.000  -0.000   0.000   0.000   0.000  -0.000   0.099  -0.017   0.000   0.000  -0.000   0.000
 -0.000   0.000   0.000  -0.000   0.000   0.000  -0.000  -0.000   0.000   0.000   0.000  -0.000  -0.038  -0.000  -0.000   0.006
 -0.000  -0.000   0.000   0.000  -0.000  -0.000  -0.000   0.000   0.000  -0.000   0.000   0.000  -0.000  -0.038  -0.000   0.000
  0.000   0.000   0.000   0.000   0.000   0.000   0.000  -0.000   0.000   0.000   0.000   0.000  -0.000  -0.000  -0.038   0.000
  0.000   0.000   0.000   0.000   0.000   0.000   0.000   0.000   0.000   0.000   0.000   0.000   0.006   0.000   0.000  -0.001
  0.000  -0.000   0.000   0.000   0.000   0.000  -0.000   0.000   0.000   0.000   0.000  -0.000   0.000   0.006   0.000  -0.000
  0.000   0.000   0.000   0.000  -0.000  -0.000   0.000   0.000   0.000   0.000   0.000  -0.000   0.000   0.000   0.006  -0.000


------------------------ aborting loop because EDIFF is reached ----------------------------------------





 total charge

# of ion       s       p       d       tot
------------------------------------------
    1        0.489   0.546   6.238   7.274
    2        0.489   0.546   6.238   7.274
--------------------------------------------------
tot          0.979   1.092  12.476  14.547



 magnetization (x)

# of ion       s       p       d       tot
------------------------------------------
    1       -0.014  -0.058   2.243   2.172
    2       -0.014  -0.058   2.243   2.172
--------------------------------------------------
tot         -0.027  -0.115   4.487   4.344
 
    CHARGE:  cpu time    0.2060: real time    0.2065
    FORLOC:  cpu time    0.0010: real time    0.0008
    FORNL :  cpu time    0.4059: real time    0.4070
    STRESS:  cpu time    1.4488: real time    1.4503
    FORCOR:  cpu time    0.0340: real time    0.0336
    FORHAR:  cpu time    0.0030: real time    0.0029
    MIXING:  cpu time    0.0010: real time    0.0010
    OFIELD:  cpu time    0.0000: real time    0.0002

  FORCE on cell =-STRESS in cart. coord.  units (eV):
  Direction    XX          YY          ZZ          XY          YZ          ZX
  --------------------------------------------------------------------------------------
  Alpha Z   122.21860   122.21860   122.21860
  Ewald    -395.30191  -395.30191  -395.30191    -0.00000    -0.00000    -0.00000
  Hartree    63.13135    63.13135    63.13135    -0.00000    -0.00000    -0.00000
  E(xc)     -79.45637   -79.45637   -79.45637     0.00000     0.00000    -0.00000
  Local     118.17128   118.17128   118.17128     0.00000     0.00000     0.00000
  n-local   -54.76488   -51.62635   -48.96157     2.48428    -0.88442     0.68426
  augment    77.41678    77.41678    77.41679     0.00000     0.00000     0.00000
  Kinetic   148.06875   145.21428   143.52378     2.82246    -0.53056     0.11878
  Fock        0.00000     0.00000     0.00000     0.00000     0.00000     0.00000
  -------------------------------------------------------------------------------------
  Total      -0.00226    -0.00226    -0.00226    -0.00000     0.00000    -0.00000
  in kB      -0.15976    -0.15976    -0.15976    -0.00000     0.00000    -0.00000
  external pressure =       -0.16 kB  Pullay stress =        0.00 kB


 VOLUME and BASIS-vectors are now :
 -----------------------------------------------------------------------------
  energy-cutoff  :      350.00
  volume of cell :       22.62
      direct lattice vectors                 reciprocal lattice vectors
     2.828106561 -0.000000000  0.000000000     0.353593466 -0.000000000 -0.000000000
     0.000000000  2.828106561  0.000000000     0.000000000  0.353593466  0.000000000
     0.000000000 -0.000000000  2.828106561    -0.000000000 -0.000000000  0.353593466

  length of vectors
     2.828106561  2.828106561  2.828106561     0.353593466  0.353593466  0.353593466


 FORCES acting on ions
    electron-ion (+dipol)            ewald-force                    non-local-force                 convergence-correction
 -----------------------------------------------------------------------------------------------
   -.962E-14 -.139E-13 -.198E-13   0.467E-14 -.507E-14 -.166E-14   0.929E-26 -.518E-25 0.258E-25   0.924E-14 0.171E-13 -.612E-14
   0.144E-12 -.547E-12 0.481E-13   -.538E-14 0.666E-14 0.174E-14   0.544E-26 -.589E-27 0.000E+00   0.260E-13 0.180E-13 0.130E-14
 -----------------------------------------------------------------------------------------------
   0.134E-12 -.561E-12 0.284E-13   -.716E-15 0.159E-14 0.799E-16   0.147E-25 -.524E-25 0.258E-25   0.352E-13 0.351E-13 -.481E-14
 
 
 POSITION                                       TOTAL-FORCE (eV/Angst)
 -----------------------------------------------------------------------------------
     -0.00000     -0.00000     -0.00000         0.000000      0.000000      0.000000
      1.41405      1.41405      1.41405        -0.000000     -0.000000     -0.000000
 -----------------------------------------------------------------------------------
    total drift:                                0.000000     -0.000000      0.000000


--------------------------------------------------------------------------------------------------------



  FREE ENERGIE OF THE ION-ELECTRON SYSTEM (eV)
  ---------------------------------------------------
  free  energy   TOTEN  =       -16.49520336 eV

  energy  without entropy=      -16.49259952  energy(sigma->0) =      -16.49433541
 
 d Force = 0.0000000E+00[ 0.000E+00, 0.000E+00]  d Energy = 0.1467033E-01-0.147E-01
 d Force = 0.0000000E+00[ 0.000E+00, 0.000E+00]  d Ewald  =-0.1288871E+02 0.129E+02


--------------------------------------------------------------------------------------------------------


    POTLOK:  cpu time    1.5788: real time    1.5856


--------------------------------------------------------------------------------------------------------




--------------------------------------------------------------------------------------------------------


  
 reached required accuracy - stopping structural energy minimisation
 writing wavefunctions
     LOOP+:  cpu time   53.8008: real time   55.2335
    4ORBIT:  cpu time    0.0000: real time    0.0000



 total charge

# of ion       s       p       d       tot
------------------------------------------
    1        0.489   0.546   6.238   7.274
    2        0.489   0.546   6.238   7.274
--------------------------------------------------
tot          0.979   1.092  12.476  14.547



 magnetization (x)

# of ion       s       p       d       tot
------------------------------------------
    1       -0.014  -0.058   2.243   2.172
    2       -0.014  -0.058   2.243   2.172
--------------------------------------------------
tot         -0.027  -0.115   4.487   4.344
 

 total amount of memory used by VASP MPI-rank0    47316. kBytes
=======================================================================

   base      :      30000. kBytes
   nonl-proj :       6370. kBytes
   fftplans  :       1775. kBytes
   grid      :       1353. kBytes
   one-center:         62. kBytes
   wavefun   :       7756. kBytes
 
  
  
 General timing and accounting informations for this job:
 ========================================================
  
                  Total CPU time used (sec):      193.349
                            User time (sec):      190.410
                          System time (sec):        2.939
                         Elapsed time (sec):      202.876
  
                   Maximum memory used (kb):       78268.
                   Average memory used (kb):          N/A
  
                          Minor page faults:        11781
                          Major page faults:            1
                 Voluntary context switches:       249953
