   1   1   0   0
  0.1449624E+02  0.2660474E-09  0.2660474E-09  0.2660474E-09  0.5000000E-15
  1.000000000000000E-004
  CAR 
 unknown system                          
     36.25873887     -6.21214388  301     10.00771758      1.00000000
     -6.212  0.0000E+00  0.0000E+00
     -6.071  0.0000E+00  0.0000E+00
     -5.929  0.0000E+00  0.0000E+00
     -5.787  0.0000E+00  0.0000E+00
     -5.646  0.0000E+00  0.0000E+00
     -5.504  0.0000E+00  0.0000E+00
     -5.363  0.0000E+00  0.0000E+00
     -5.221  0.0000E+00  0.0000E+00
     -5.080  0.0000E+00  0.0000E+00
     -4.938  0.0000E+00  0.0000E+00
     -4.796  0.0000E+00  0.0000E+00
     -4.655  0.0000E+00  0.0000E+00
     -4.513  0.3007E-14  0.4256E-15
     -4.372  0.5748E-06  0.8137E-07
     -4.230  0.9785E-04  0.1393E-04
     -4.089  0.5997E-04  0.2242E-04
     -3.947  0.1206E-02  0.1932E-03
     -3.805  0.1285E-03  0.2114E-03
     -3.664  0.5227E-03  0.2854E-03
     -3.522  0.1178E-02  0.4522E-03
     -3.381  0.1370E-02  0.6462E-03
     -3.239  0.9809E-03  0.7851E-03
     -3.098  0.3119E-03  0.8292E-03
     -2.956  0.2383E-02  0.1167E-02
     -2.814  0.1943E-03  0.1194E-02
     -2.673  0.7930E-03  0.1306E-02
     -2.531  0.1232E-02  0.1481E-02
     -2.390  0.3867E-02  0.2028E-02
     -2.248  0.3615E-03  0.2079E-02
     -2.107  0.2837E-03  0.2120E-02
     -1.965  0.3248E-02  0.2579E-02
     -1.823  0.6159E-03  0.2667E-02
     -1.682  0.2431E-02  0.3011E-02
     -1.540  0.3746E-03  0.3064E-02
     -1.399  0.2235E-02  0.3380E-02
     -1.257  0.1010E-02  0.3523E-02
     -1.116  0.1546E-02  0.3742E-02
     -0.974  0.5659E-02  0.4543E-02
     -0.832  0.1981E-02  0.4823E-02
     -0.691  0.1278E-07  0.4823E-02
     -0.549  0.3372E-03  0.4871E-02
     -0.408  0.4726E-02  0.5540E-02
     -0.266  0.4048E-03  0.5598E-02
     -0.125  0.9011E-03  0.5725E-02
      0.017  0.3325E-02  0.6196E-02
      0.158  0.1782E-02  0.6448E-02
      0.300  0.2890E-02  0.6857E-02
      0.442  0.6316E-03  0.6947E-02
      0.583  0.7214E-02  0.7968E-02
      0.725  0.6893E-03  0.8065E-02
      0.866  0.1936E-02  0.8339E-02
      1.008  0.3177E-02  0.8789E-02
      1.149  0.1926E-02  0.9062E-02
      1.291  0.2283E-02  0.9385E-02
      1.433  0.4857E-03  0.9454E-02
      1.574  0.4812E-02  0.1014E-01
      1.716  0.2497E-03  0.1017E-01
      1.857  0.6533E-03  0.1026E-01
      1.999  0.5651E-02  0.1106E-01
      2.140  0.3280E-02  0.1153E-01
      2.282  0.2365E-02  0.1186E-01
      2.424  0.7800E-03  0.1197E-01
      2.565  0.9502E-02  0.1332E-01
      2.707  0.1768E-02  0.1357E-01
      2.848  0.3400E-02  0.1405E-01
      2.990  0.1897E-02  0.1432E-01
      3.131  0.6498E-03  0.1441E-01
      3.273  0.8187E-03  0.1453E-01
      3.415  0.2314E-02  0.1485E-01
      3.556  0.4505E-02  0.1549E-01
      3.698  0.2596E-02  0.1586E-01
      3.839  0.2977E-02  0.1628E-01
      3.981  0.4382E-02  0.1690E-01
      4.122  0.2084E-02  0.1720E-01
      4.264  0.7227E-02  0.1822E-01
      4.406  0.1754E-02  0.1847E-01
      4.547  0.5008E-04  0.1847E-01
      4.689  0.4680E-02  0.1914E-01
      4.830  0.6538E-02  0.2006E-01
      4.972  0.2135E-02  0.2036E-01
      5.113  0.4456E-02  0.2100E-01
      5.255  0.3698E-02  0.2152E-01
      5.397  0.9044E-03  0.2165E-01
      5.538  0.4295E-02  0.2226E-01
      5.680  0.2492E-02  0.2261E-01
      5.821  0.1161E-02  0.2277E-01
      5.963  0.2291E-02  0.2310E-01
      6.104  0.2858E-02  0.2350E-01
      6.246  0.6758E-02  0.2446E-01
      6.388  0.2662E-02  0.2483E-01
      6.529  0.5660E-02  0.2564E-01
      6.671  0.3734E-02  0.2616E-01
      6.812  0.3609E-02  0.2668E-01
      6.954  0.6977E-02  0.2766E-01
      7.095  0.2473E-02  0.2801E-01
      7.237  0.2064E-02  0.2831E-01
      7.379  0.4451E-02  0.2894E-01
      7.520  0.3718E-02  0.2946E-01
      7.662  0.2851E-02  0.2987E-01
      7.803  0.5342E-02  0.3062E-01
      7.945  0.4381E-02  0.3124E-01
      8.086  0.4769E-02  0.3192E-01
      8.228  0.9493E-03  0.3205E-01
      8.370  0.4155E-02  0.3264E-01
      8.511  0.3455E-02  0.3313E-01
      8.653  0.4065E-02  0.3370E-01
      8.794  0.6264E-02  0.3459E-01
      8.936  0.3593E-02  0.3510E-01
      9.077  0.3794E-02  0.3564E-01
      9.219  0.6321E-02  0.3653E-01
      9.361  0.2500E-02  0.3689E-01
      9.502  0.4536E-02  0.3753E-01
      9.644  0.9451E-03  0.3766E-01
      9.785  0.7950E-02  0.3879E-01
      9.927  0.4100E-02  0.3937E-01
     10.068  0.7228E-02  0.4039E-01
     10.210  0.7792E-02  0.4149E-01
     10.352  0.5210E-02  0.4223E-01
     10.493  0.1733E-02  0.4248E-01
     10.635  0.4109E-02  0.4306E-01
     10.776  0.3593E-02  0.4357E-01
     10.918  0.4350E-02  0.4418E-01
     11.059  0.3539E-02  0.4468E-01
     11.201  0.7268E-02  0.4571E-01
     11.342  0.4577E-03  0.4578E-01
     11.484  0.2801E-02  0.4617E-01
     11.626  0.3248E-02  0.4663E-01
     11.767  0.3343E-02  0.4711E-01
     11.909  0.5928E-02  0.4795E-01
     12.050  0.4117E-02  0.4853E-01
     12.192  0.5275E-02  0.4928E-01
     12.333  0.3753E-02  0.4981E-01
     12.475  0.5656E-02  0.5061E-01
     12.617  0.8986E-02  0.5188E-01
     12.758  0.6522E-02  0.5280E-01
     12.900  0.2831E-02  0.5320E-01
     13.041  0.2351E-04  0.5321E-01
     13.183  0.1373E-02  0.5340E-01
     13.324  0.6018E-02  0.5425E-01
     13.466  0.6232E-02  0.5514E-01
     13.608  0.4274E-02  0.5574E-01
     13.749  0.7266E-02  0.5677E-01
     13.891  0.3881E-02  0.5732E-01
     14.032  0.8771E-02  0.5856E-01
     14.174  0.4823E-02  0.5924E-01
     14.315  0.2608E-02  0.5961E-01
     14.457  0.2258E-02  0.5993E-01
     14.599  0.7722E-02  0.6103E-01
     14.740  0.7811E-02  0.6213E-01
     14.882  0.7037E-04  0.6214E-01
     15.023  0.2706E-02  0.6253E-01
     15.165  0.2296E-02  0.6285E-01
     15.306  0.4765E-02  0.6353E-01
     15.448  0.7409E-02  0.6457E-01
     15.590  0.4873E-02  0.6526E-01
     15.731  0.8098E-02  0.6641E-01
     15.873  0.8234E-02  0.6758E-01
     16.014  0.6516E-02  0.6850E-01
     16.156  0.5684E-02  0.6930E-01
     16.297  0.7058E-02  0.7030E-01
     16.439  0.1613E-02  0.7053E-01
     16.581  0.4856E-02  0.7122E-01
     16.722  0.1471E-02  0.7143E-01
     16.864  0.8034E-02  0.7256E-01
     17.005  0.6827E-02  0.7353E-01
     17.147  0.4194E-02  0.7412E-01
     17.288  0.8357E-02  0.7531E-01
     17.430  0.8769E-02  0.7655E-01
     17.572  0.6421E-02  0.7746E-01
     17.713  0.1972E-02  0.7774E-01
     17.855  0.7200E-03  0.7784E-01
     17.996  0.6589E-02  0.7877E-01
     18.138  0.8778E-02  0.8001E-01
     18.279  0.1188E-01  0.8170E-01
     18.421  0.6638E-03  0.8179E-01
     18.563  0.1080E-01  0.8332E-01
     18.704  0.2105E-02  0.8362E-01
     18.846  0.3020E-04  0.8362E-01
     18.987  0.2216E-02  0.8394E-01
     19.129  0.2585E-02  0.8430E-01
     19.270  0.5466E-03  0.8438E-01
     19.412  0.3519E-02  0.8488E-01
     19.554  0.2136E-02  0.8518E-01
     19.695  0.3491E-02  0.8567E-01
     19.837  0.6404E-02  0.8658E-01
     19.978  0.1037E-01  0.8805E-01
     20.120  0.9769E-02  0.8943E-01
     20.261  0.8555E-02  0.9064E-01
     20.403  0.1004E-01  0.9206E-01
     20.545  0.3506E-02  0.9256E-01
     20.686  0.6683E-02  0.9350E-01
     20.828  0.5134E-03  0.9358E-01
     20.969  0.5800E-02  0.9440E-01
     21.111  0.1646E-02  0.9463E-01
     21.252  0.1695E-02  0.9487E-01
     21.394  0.1011E-01  0.9630E-01
     21.535  0.1488E-01  0.9841E-01
     21.677  0.4125E-02  0.9899E-01
     21.819  0.5534E-02  0.9978E-01
     21.960  0.5331E-02  0.1005E+00
     22.102  0.2768E-02  0.1009E+00
     22.243  0.1674E-01  0.1033E+00
     22.385  0.5373E-02  0.1041E+00
     22.526  0.3242E-02  0.1045E+00
     22.668  0.5120E-02  0.1052E+00
     22.810  0.5539E-02  0.1060E+00
     22.951  0.4809E-02  0.1067E+00
     23.093  0.8538E-02  0.1079E+00
     23.234  0.8454E-02  0.1091E+00
     23.376  0.4052E-02  0.1097E+00
     23.517  0.6538E-02  0.1106E+00
     23.659  0.9253E-02  0.1119E+00
     23.801  0.2125E-02  0.1122E+00
     23.942  0.9847E-02  0.1136E+00
     24.084  0.9778E-02  0.1150E+00
     24.225  0.3481E-02  0.1155E+00
     24.367  0.1810E-03  0.1155E+00
     24.508  0.7519E-02  0.1166E+00
     24.650  0.4561E-02  0.1172E+00
     24.792  0.1022E-01  0.1187E+00
     24.933  0.1201E-02  0.1188E+00
     25.075  0.4355E-02  0.1195E+00
     25.216  0.1297E-01  0.1213E+00
     25.358  0.4902E-02  0.1220E+00
     25.499  0.4487E-02  0.1226E+00
     25.641  0.3806E-02  0.1232E+00
     25.783  0.1693E-02  0.1234E+00
     25.924  0.1541E-02  0.1236E+00
     26.066  0.5324E-02  0.1244E+00
     26.207  0.1309E-01  0.1262E+00
     26.349  0.9396E-02  0.1276E+00
     26.490  0.8819E-02  0.1288E+00
     26.632  0.3866E-02  0.1294E+00
     26.774  0.6367E-02  0.1303E+00
     26.915  0.3887E-02  0.1308E+00
     27.057  0.9203E-02  0.1321E+00
     27.198  0.7526E-02  0.1332E+00
     27.340  0.5615E-02  0.1340E+00
     27.481  0.6721E-02  0.1349E+00
     27.623  0.7299E-02  0.1360E+00
     27.765  0.6526E-02  0.1369E+00
     27.906  0.9880E-02  0.1383E+00
     28.048  0.3607E-02  0.1388E+00
     28.189  0.3962E-02  0.1393E+00
     28.331  0.1838E-02  0.1396E+00
     28.472  0.7449E-02  0.1407E+00
     28.614  0.3084E-02  0.1411E+00
     28.756  0.3180E-02  0.1416E+00
     28.897  0.5513E-02  0.1423E+00
     29.039  0.3847E-02  0.1429E+00
     29.180  0.1210E-01  0.1446E+00
     29.322  0.1658E-01  0.1469E+00
     29.463  0.9844E-02  0.1483E+00
     29.605  0.1924E-02  0.1486E+00
     29.747  0.6558E-02  0.1495E+00
     29.888  0.3897E-02  0.1501E+00
     30.030  0.1107E-01  0.1516E+00
     30.171  0.3995E-02  0.1522E+00
     30.313  0.5378E-02  0.1530E+00
     30.454  0.4133E-02  0.1536E+00
     30.596  0.3386E-02  0.1540E+00
     30.738  0.6601E-02  0.1550E+00
     30.879  0.7790E-02  0.1561E+00
     31.021  0.5733E-02  0.1569E+00
     31.162  0.2266E-02  0.1572E+00
     31.304  0.3012E-02  0.1576E+00
     31.445  0.2926E-02  0.1581E+00
     31.587  0.2302E-02  0.1584E+00
     31.729  0.1968E-06  0.1584E+00
     31.870  0.1875E-07  0.1584E+00
     32.012  0.1418E-02  0.1586E+00
     32.153  0.5068E-02  0.1593E+00
     32.295  0.1834E-02  0.1596E+00
     32.436  0.1717E-03  0.1596E+00
     32.578  0.5558E-09  0.1596E+00
     32.719  0.5191E-15  0.1596E+00
     32.861  0.8255E-06  0.1596E+00
     33.003  0.6933E-03  0.1597E+00
     33.144  0.1550E-03  0.1597E+00
     33.286  0.3871E-09  0.1597E+00
     33.427  0.0000E+00  0.1597E+00
     33.569  0.0000E+00  0.1597E+00
     33.710  0.2026E-11  0.1597E+00
     33.852  0.2274E-04  0.1597E+00
     33.994  0.6053E-03  0.1598E+00
     34.135  0.3066E-03  0.1598E+00
     34.277  0.4008E-03  0.1599E+00
     34.418  0.7828E-03  0.1600E+00
     34.560  0.4598E-05  0.1600E+00
     34.701  0.2405E-13  0.1600E+00
     34.843  0.0000E+00  0.1600E+00
     34.985  0.0000E+00  0.1600E+00
     35.126  0.0000E+00  0.1600E+00
     35.268  0.0000E+00  0.1600E+00
     35.409  0.0000E+00  0.1600E+00
     35.551  0.0000E+00  0.1600E+00
     35.692  0.0000E+00  0.1600E+00
     35.834  0.0000E+00  0.1600E+00
     35.976  0.0000E+00  0.1600E+00
     36.117  0.0000E+00  0.1600E+00
     36.259  0.0000E+00  0.1600E+00
