    1    1  100    1
  0.1449624E+02  0.2660474E-09  0.2660474E-09  0.2660474E-09  0.5000000E-15
  1.000000000000000E-004
  CAR 
 unknown system                          
      4     56      8
 
  0.0000000E+00  0.0000000E+00  0.0000000E+00  0.7513148E-03
    1       -4.281649   1.000000
    2       21.523547   0.000000
    3       21.523547   0.000000
    4       21.523547   0.000000
    5       22.626111   0.000000
    6       22.626111   0.000000
    7       22.626111   0.000000
    8       26.323819   0.000000
 
  0.9090909E-01  0.0000000E+00  0.0000000E+00  0.9015778E-02
    1       -4.027121   1.000000
    2       18.972605   0.000000
    3       19.851793   0.000000
    4       21.165298   0.000000
    5       21.841366   0.000000
    6       23.520779   0.000000
    7       24.715726   0.000000
    8       25.170516   0.000000
 
  0.1818182E+00  0.0000000E+00  0.0000000E+00  0.9015778E-02
    1       -3.265372   1.000000
    2       15.178289   0.000000
    3       18.159228   0.000000
    4       20.293568   0.000000
    5       20.400861   0.000000
    6       22.478491   0.000000
    7       25.956490   0.000000
    8       26.282272   0.000000
 
  0.2727273E+00  0.0000000E+00  0.0000000E+00  0.9015778E-02
    1       -2.002065   1.000000
    2       11.361753   0.000000
    3       16.880420   0.000000
    4       19.102791   0.000000
    5       19.346890   0.000000
    6       21.286017   0.000000
    7       27.107869   0.000000
    8       27.414841   0.000000
 
  0.3636364E+00  0.0000000E+00  0.0000000E+00  0.9015778E-02
    1       -0.246954   1.000000
    2        7.833884   1.000000
    3       16.027216   0.000000
    4       18.182172   0.000000
    5       18.620668   0.000000
    6       20.436019   0.000000
    7       28.432515   0.000000
    8       29.114423   0.000000
 
  0.4545455E+00  0.0000000E+00  0.0000000E+00  0.9015778E-02
    1        1.981533   1.000000
    2        4.706025   1.000000
    3       15.601002   0.000000
    4       17.710244   0.000000
    5       18.237060   0.000000
    6       20.000278   0.000000
    7       29.978729   0.000000
    8       30.714527   0.000000
 
  0.9090909E-01  0.9090909E-01 -0.6938894E-17  0.1803156E-01
    1       -3.518972   1.000000
    2       16.971603   0.000000
    3       17.499054   0.000000
    4       19.521865   0.000000
    5       22.218920   0.000000
    6       23.600998   0.000000
    7       24.769508   0.000000
    8       25.985827   0.000000
 
  0.1818182E+00  0.9090909E-01  0.6938894E-17  0.3606311E-01
    1       -2.506431   1.000000
    2       13.398073   0.000000
    3       15.741168   0.000000
    4       18.195186   0.000000
    5       21.541887   0.000000
    6       23.051813   0.000000
    7       25.349388   0.000000
    8       27.810280   0.000000
 
  0.2727273E+00  0.9090909E-01  0.2081668E-16  0.3606311E-01
    1       -0.997044   1.000000
    2        9.726551   1.000000
    3       14.619090   0.000000
    4       17.159795   0.000000
    5       20.626803   0.000000
    6       22.559497   0.000000
    7       26.241312   0.000000
    8       29.682791   0.000000
 
  0.3636364E+00  0.9090909E-01 -0.3469447E-16  0.3606311E-01
    1        0.996781   1.000000
    2        6.395551   1.000000
    3       13.943424   0.000000
    4       16.513959   0.000000
    5       20.005655   0.000000
    6       22.129396   0.000000
    7       27.765377   0.000000
    8       30.773736   0.000000
 
  0.4545455E+00  0.9090909E-01  0.2081668E-16  0.1803156E-01
    1        3.289417   1.000000
    2        3.652782   1.000000
    3       13.717387   0.000000
    4       16.295554   0.000000
    5       19.791861   0.000000
    6       21.966183   0.000000
    7       29.460534   0.000000
    8       29.805519   0.000000
 
  0.1818182E+00  0.1818182E+00  0.1387779E-16  0.1803156E-01
    1       -1.247726   1.000000
    2       11.870878   0.000000
    3       12.217693   0.000000
    4       16.975576   0.000000
    5       22.157477   0.000000
    6       23.051391   0.000000
    7       26.998836   0.000000
    8       28.111165   0.000000
 
  0.2727273E+00  0.1818182E+00 -0.1387779E-16  0.3606311E-01
    1        0.501177   1.000000
    2        8.540252   1.000000
    3       11.124349   0.000000
    4       16.132100   0.000000
    5       21.795916   0.000000
    6       23.861444   0.000000
    7       27.194669   0.000000
    8       29.915299   0.000000
 
  0.3636364E+00  0.1818182E+00 -0.2775558E-16  0.3606311E-01
    1        2.722037   1.000000
    2        5.431917   1.000000
    3       10.652602   0.000000
    4       15.699623   0.000000
    5       21.427272   0.000000
    6       24.740383   0.000000
    7       27.549223   0.000000
    8       29.396245   0.000000
 
  0.2727273E+00  0.2727273E+00  0.0000000E+00  0.1803156E-01
    1        2.479910   1.000000
    2        7.696298   1.000000
    3        7.972356   1.000000
    4       15.499907   0.000000
    5       23.082198   0.000000
    6       23.962563   0.000000
    7       27.862814   0.000000
    8       30.207196   0.000000
 
  0.3636364E+00  0.2727273E+00  0.2775558E-16  0.1803156E-01
    1        4.764630   1.000000
    2        5.097189   1.000000
    3        7.605681   1.000000
    4       15.285420   0.000000
    5       23.220292   0.000000
    6       25.224688   0.000000
    7       26.245722   0.000000
    8       31.056848   0.000000
 
  0.9090909E-01  0.9090909E-01  0.9090909E-01  0.6010518E-02
    1       -2.759106   1.000000
    2       15.111631   0.000000
    3       15.954826   0.000000
    4       15.954826   0.000000
    5       24.173469   0.000000
    6       24.173469   0.000000
    7       26.160328   0.000000
    8       26.160328   0.000000
 
  0.1818182E+00  0.9090909E-01  0.9090909E-01  0.1803156E-01
    1       -1.498875   1.000000
    2       11.811076   0.000000
    3       14.103037   0.000000
    4       14.644424   0.000000
    5       23.977783   0.000000
    6       24.437549   0.000000
    7       27.329858   0.000000
    8       27.495724   0.000000
 
  0.2727273E+00  0.9090909E-01  0.9090909E-01  0.1803156E-01
    1        0.252222   1.000000
    2        8.310675   1.000000
    3       13.180345   0.000000
    4       13.734892   0.000000
    5       23.565745   0.000000
    6       23.859269   0.000000
    7       28.845751   0.000000
    8       29.265553   0.000000
 
  0.3636364E+00  0.9090909E-01  0.9090909E-01  0.1803156E-01
    1        2.476012   1.000000
    2        5.192122   1.000000
    3       12.724448   0.000000
    4       13.273613   0.000000
    5       23.286847   0.000000
    6       23.510517   0.000000
    7       30.292987   0.000000
    8       30.932235   0.000000
 
 -0.9090909E-01  0.9090909E-01  0.9090909E-01  0.4507889E-02
    1       -3.772867   1.000000
    2       18.453461   0.000000
    3       18.453461   0.000000
    4       19.790281   0.000000
    5       22.633743   0.000000
    6       23.115562   0.000000
    7       24.479952   0.000000
    8       24.479952   0.000000
 
  0.1818182E+00  0.1818182E+00  0.9090909E-01  0.1803156E-01
    1        0.003301   1.000000
    2       10.495878   0.000000
    3       10.850867   0.000000
    4       13.273551   0.000000
    5       25.052276   0.000000
    6       25.935919   0.000000
    7       28.056938   0.000000
    8       28.912765   0.000000
 
  0.2727273E+00  0.1818182E+00  0.9090909E-01  0.3606311E-01
    1        1.987871   1.000000
    2        7.354559   1.000000
    3        9.979087   0.790975
    4       12.582322   0.000000
    5       25.145746   0.000000
    6       26.504678   0.000000
    7       29.134057   0.000000
    8       30.608651   0.000000
 
  0.3636364E+00  0.1818182E+00  0.9090909E-01  0.1803156E-01
    1        4.278239   1.000000
    2        4.620317   1.000000
    3        9.740469   1.000000
    4       12.351990   0.000000
    5       25.057144   0.000000
    6       26.704514   0.000000
    7       30.037420   0.000000
    8       30.825215   0.000000
 
 -0.1818182E+00  0.1818182E+00  0.9090909E-01  0.1803156E-01
    1       -3.012007   1.000000
    2       15.305726   0.000000
    3       16.765523   0.000000
    4       18.983752   0.000000
    5       21.361449   0.000000
    6       22.200708   0.000000
    7       24.733244   0.000000
    8       26.944267   0.000000
 
  0.2727273E+00  0.2727273E+00  0.9090909E-01  0.1803156E-01
    1        4.189985   1.000000
    2        6.746715   1.000000
    3        7.028610   1.000000
    4       12.119404   0.000000
    5       26.397747   0.000000
    6       27.644208   0.000000
    7       29.309233   0.000000
    8       31.452706   0.000000
 
 -0.2727273E+00  0.2727273E+00  0.9090909E-01  0.1803156E-01
    1       -1.750233   1.000000
    2       11.572387   0.000000
    3       15.452212   0.000000
    4       18.000996   0.000000
    5       20.977993   0.000000
    6       21.430722   0.000000
    7       24.532241   0.000000
    8       30.146488   0.000000
 
 -0.1818182E+00  0.2727273E+00  0.9090909E-01  0.1803156E-01
    1       -2.001877   1.000000
    2       13.612076   0.000000
    3       13.896432   0.000000
    4       18.494311   0.000000
    5       20.206358   0.000000
    6       21.834532   0.000000
    7       26.398300   0.000000
    8       27.334744   0.000000
 
 -0.3636364E+00  0.3636364E+00  0.9090909E-01  0.1803156E-01
    1        0.002775   1.000000
    2        8.066378   1.000000
    3       14.567056   0.000000
    4       17.181315   0.000000
    5       20.101238   0.000000
    6       21.528604   0.000000
    7       25.133449   0.000000
    8       30.463616   0.000000
 
 -0.2727273E+00  0.3636364E+00  0.9090909E-01  0.3606311E-01
    1       -0.496155   1.000000
    2       10.168246   0.000003
    3       12.623498   0.000000
    4       17.924332   0.000000
    5       20.262655   0.000000
    6       21.382969   0.000000
    7       26.128780   0.000000
    8       29.296688   0.000000
 
 -0.4545455E+00  0.4545455E+00  0.9090909E-01  0.1803156E-01
    1        2.228514   1.000000
    2        4.946858   1.000000
    3       14.122434   0.000000
    4       16.748683   0.000000
    5       19.651072   0.000000
    6       21.437550   0.000000
    7       26.665628   0.000000
    8       28.770537   0.000000
 
 -0.3636364E+00  0.4545455E+00  0.9090909E-01  0.3606311E-01
    1        1.492518   1.000000
    2        6.868516   1.000000
    3       11.929585   0.000000
    4       17.361560   0.000000
    5       19.934401   0.000000
    6       22.359224   0.000000
    7       25.618224   0.000000
    8       28.402721   0.000000
 
 -0.2727273E+00  0.4545455E+00  0.9090909E-01  0.1803156E-01
    1        1.245827   1.000000
    2        9.103091   1.000000
    3        9.362766   1.000000
    4       18.200849   0.000000
    5       20.397736   0.000000
    6       20.881429   0.000000
    7       26.777494   0.000000
    8       29.218087   0.000000
 
 -0.4545455E+00 -0.4545455E+00  0.9090909E-01  0.1803156E-01
    1        3.786133   1.000000
    2        4.130384   1.000000
    3       11.697770   0.000000
    4       17.158625   0.000000
    5       19.750600   0.000000
    6       23.154172   0.000000
    7       25.421577   0.000000
    8       27.394752   0.000000
 
 -0.3636364E+00 -0.4545455E+00  0.9090909E-01  0.3606311E-01
    1        3.457043   1.000000
    2        6.146159   1.000000
    3        8.765829   1.000000
    4       18.038671   0.000000
    5       20.287276   0.000000
    6       22.182038   0.000000
    7       24.492375   0.000000
    8       29.953145   0.000000
 
 -0.3636364E+00 -0.3636364E+00  0.9090909E-01  0.6010518E-02
    1        5.612113   1.000000
    2        6.045730   1.000000
    3        6.045730   1.000000
    4       18.115064   0.000000
    5       21.799014   0.000000
    6       22.211986   0.000000
    7       22.211986   0.000000
    8       32.970620   0.000000
 
  0.1818182E+00  0.1818182E+00  0.1818182E+00  0.6010518E-02
    1        1.741711   1.000000
    2        9.431558   1.000000
    3        9.917592   0.994600
    4        9.917592   0.994600
    5       27.711031   0.000000
    6       27.711031   0.000000
    7       29.662312   0.000000
    8       29.662312   0.000000
 
  0.2727273E+00  0.1818182E+00  0.1818182E+00  0.1803156E-01
    1        3.949362   1.000000
    2        6.637084   1.000000
    3        9.142094   1.000000
    4        9.445511   1.000000
    5       28.316457   0.000000
    6       28.613276   0.000000
    7       30.948918   0.000000
    8       31.244980   0.000000
 
 -0.1818182E+00  0.1818182E+00  0.1818182E+00  0.4507889E-02
    1       -2.253870   1.000000
    2       15.051663   0.000000
    3       15.051663   0.000000
    4       16.961556   0.000000
    5       18.636887   0.000000
    6       24.600337   0.000000
    7       26.197965   0.000000
    8       26.197966   0.000000
 
  0.2727273E+00  0.2727273E+00  0.1818182E+00  0.6010518E-02
    1        6.079683   1.000000
    2        6.553624   1.000000
    3        6.553625   1.000000
    4        9.068973   1.000000
    5       29.463546   0.000000
    6       30.679135   0.000000
    7       30.679135   0.000000
    8       32.265298   0.000000
 
 -0.2727273E+00  0.2727273E+00  0.1818182E+00  0.1803156E-01
    1       -0.996619   1.000000
    2       12.149408   0.000000
    3       13.716514   0.000000
    4       16.195770   0.000000
    5       18.137148   0.000000
    6       24.029562   0.000000
    7       26.164146   0.000000
    8       28.920993   0.000000
 
 -0.3636364E+00  0.3636364E+00  0.1818182E+00  0.1803156E-01
    1        0.749758   1.000000
    2        8.752539   1.000000
    3       12.816387   0.000000
    4       15.400662   0.000000
    5       19.317459   0.000000
    6       23.214393   0.000000
    7       25.106101   0.000000
    8       27.945578   0.000000
 
 -0.2727273E+00  0.3636364E+00  0.1818182E+00  0.1803156E-01
    1        0.501496   1.000000
    2       10.894150   0.000000
    3       11.101754   0.000000
    4       16.255574   0.000000
    5       17.300892   0.000000
    6       23.808233   0.000000
    7       26.136209   0.000000
    8       28.606398   0.000000
 
 -0.4545455E+00  0.4545455E+00  0.1818182E+00  0.1803156E-01
    1        2.966597   1.000000
    2        5.665339   1.000000
    3       12.364619   0.000000
    4       14.951899   0.000000
    5       20.888189   0.000000
    6       22.783279   0.000000
    7       23.633040   0.000000
    8       27.023725   0.000000
 
 -0.3636364E+00  0.4545455E+00  0.1818182E+00  0.3606311E-01
    1        2.479113   1.000000
    2        7.798408   1.000000
    3       10.304780   0.000000
    4       15.973588   0.000000
    5       18.489217   0.000000
    6       22.799688   0.000000
    7       24.069501   0.000000
    8       29.173204   0.000000
 
 -0.4545455E+00 -0.4545455E+00  0.1818182E+00  0.1803156E-01
    1        4.770441   1.000000
    2        5.080986   1.000000
    3       10.069878   0.039361
    4       15.775088   0.000000
    5       19.985610   0.000000
    6       21.295143   0.000000
    7       23.498813   0.000000
    8       29.147275   0.000000
 
 -0.3636364E+00 -0.4545455E+00  0.1818182E+00  0.1803156E-01
    1        4.670076   1.000000
    2        7.209622   1.000000
    3        7.447200   1.000000
    4       17.328213   0.000000
    5       18.505147   0.000000
    6       20.566934   0.000000
    7       23.447699   0.000000
    8       32.023861   0.000000
 
 -0.2727273E+00  0.2727273E+00  0.2727273E+00  0.4507889E-02
    1        0.252749   1.000000
    2       12.367915   0.000000
    3       12.367915   0.000000
    4       14.453668   0.000000
    5       15.575679   0.000000
    6       25.775230   0.000000
    7       27.042958   0.000000
    8       28.398368   0.000000
 
 -0.3636364E+00  0.3636364E+00  0.2727273E+00  0.1803156E-01
    1        1.987175   1.000000
    2        9.825221   1.000000
    3       11.461272   0.000000
    4       13.940273   0.000000
    5       15.753444   0.000000
    6       22.850520   0.000000
    7       26.796244   0.000000
    8       29.194882   0.000000
 
 -0.4545455E+00  0.4545455E+00  0.2727273E+00  0.1803156E-01
    1        4.186421   1.000000
    2        6.844389   1.000000
    3       11.006367   0.000000
    4       13.521964   0.000000
    5       17.550848   0.000000
    6       20.128644   0.000000
    7       26.399605   0.000000
    8       29.309478   0.000000
 
 -0.3636364E+00  0.4545455E+00  0.2727273E+00  0.1803156E-01
    1        3.945311   1.000000
    2        9.032906   1.000000
    3        9.216795   1.000000
    4       14.535781   0.000000
    5       15.326106   0.000000
    6       19.871210   0.000000
    7       27.138551   0.000000
    8       31.428995   0.000000
 
 -0.4545455E+00 -0.4545455E+00  0.2727273E+00  0.1803156E-01
    1        6.218305   1.000000
    2        6.487300   1.000000
    3        8.896239   1.000000
    4       14.599098   0.000000
    5       16.862429   0.000000
    6       17.542874   0.000000
    7       27.020715   0.000000
    8       32.042487   0.000000
 
 -0.3636364E+00  0.3636364E+00  0.3636364E+00  0.4507889E-02
    1        3.702018   1.000000
    2       10.550738   0.000000
    3       10.550738   0.000000
    4       12.643695   0.000000
    5       13.519731   0.000000
    6       19.641481   0.000000
    7       30.332943   0.000000
    8       31.229425   0.000000
 
 -0.4545455E+00  0.4545455E+00  0.3636364E+00  0.1803156E-01
    1        5.865768   1.000000
    2        8.414859   1.000000
    3       10.094090   0.007283
    4       12.504896   0.000000
    5       14.295218   0.000000
    6       16.754288   0.000000
    7       30.337589   0.000000
    8       32.149078   0.000000
 
 -0.4545455E+00 -0.4545455E+00  0.3636364E+00  0.6010518E-02
    1        7.985263   1.000000
    2        8.270586   1.000000
    3        8.270586   1.000000
    4       13.385167   0.000000
    5       14.332154   0.000000
    6       14.332154   0.000000
    7       30.874335   0.000000
    8       34.328244   0.000000
 
 -0.4545455E+00  0.4545455E+00  0.4545455E+00  0.4507889E-02
    1        7.930615   1.000000
    2        9.637166   1.000000
    3        9.637166   1.000000
    4       11.647488   0.000000
    5       12.486994   0.000000
    6       13.876004   0.000000
    7       33.915793   0.000000
    8       34.138073   0.000000
