unknown system                          
           1
     1.536026    1.536026    1.536026
     1.536026   -1.536026   -1.536026
    -1.536026    1.536026   -1.536026
   Si
     1
Direct configuration=     1
   0.00000000  0.00000000  0.00000000
