   2   2   1   0
  0.1136426E+02  0.2832634E-09  0.2832634E-09  0.2832634E-09  0.5000000E-15
  1.000000000000000E-004
  CAR 
 unknown system                          
     27.10259294     -4.38642360  301      5.80652031      1.00000000
     -4.386  0.0000E+00  0.0000E+00
     -4.281  0.0000E+00  0.0000E+00
     -4.176  0.0000E+00  0.0000E+00
     -4.072 -0.5227E-31 -0.5487E-32
     -3.967 -0.2579E-27 -0.2707E-28
     -3.862 -0.7302E-24 -0.7667E-25
     -3.757 -0.1186E-20 -0.1245E-21
     -3.652 -0.1103E-17 -0.1159E-18
     -3.547 -0.5708E-15 -0.6003E-16
     -3.442 -0.1724E-12 -0.1815E-13
     -3.337 -0.2964E-10 -0.3130E-11
     -3.232 -0.2888E-08 -0.3063E-09
     -3.127 -0.1583E-06 -0.1692E-07
     -3.022 -0.4825E-05 -0.5234E-06
     -2.917 -0.8008E-04 -0.8929E-05
     -2.812 -0.6914E-03 -0.8150E-04
     -2.707 -0.2731E-02 -0.3681E-03
     -2.602 -0.2004E-02 -0.5785E-03
     -2.497  0.1715E-01  0.1221E-02
     -2.392  0.5471E-01  0.6964E-02
     -2.287  0.7933E-01  0.1529E-01
     -2.182  0.7807E-01  0.2348E-01
     -2.077  0.4861E-01  0.2859E-01
     -1.972  0.1514E-01  0.3018E-01
     -1.867  0.5665E-01  0.3612E-01
     -1.762  0.1661E+00  0.5355E-01
     -1.657  0.2320E+00  0.7791E-01
     -1.552  0.2290E+00  0.1019E+00
     -1.447  0.1600E+00  0.1187E+00
     -1.342  0.7553E-01  0.1267E+00
     -1.238  0.1060E+00  0.1378E+00
     -1.133  0.1906E+00  0.1578E+00
     -1.028  0.2152E+00  0.1804E+00
     -0.923  0.1971E+00  0.2011E+00
     -0.818  0.1394E+00  0.2157E+00
     -0.713  0.1386E+00  0.2302E+00
     -0.608  0.2231E+00  0.2537E+00
     -0.503  0.2449E+00  0.2794E+00
     -0.398  0.2517E+00  0.3058E+00
     -0.293  0.3301E+00  0.3404E+00
     -0.188  0.4071E+00  0.3832E+00
     -0.083  0.3548E+00  0.4204E+00
      0.022  0.2511E+00  0.4468E+00
      0.127  0.3235E+00  0.4807E+00
      0.232  0.4098E+00  0.5237E+00
      0.337  0.3468E+00  0.5601E+00
      0.442  0.2774E+00  0.5892E+00
      0.547  0.2841E+00  0.6191E+00
      0.652  0.3339E+00  0.6541E+00
      0.757  0.3930E+00  0.6954E+00
      0.862  0.6920E+00  0.7680E+00
      0.967  0.1267E+01  0.9010E+00
      1.072  0.1410E+01  0.1049E+01
      1.177  0.1018E+01  0.1156E+01
      1.282  0.9682E+00  0.1258E+01
      1.387  0.1543E+01  0.1420E+01
      1.492  0.2105E+01  0.1641E+01
      1.596  0.2223E+01  0.1874E+01
      1.701  0.2019E+01  0.2086E+01
      1.806  0.1848E+01  0.2280E+01
      1.911  0.1940E+01  0.2483E+01
      2.016  0.1856E+01  0.2678E+01
      2.121  0.1435E+01  0.2829E+01
      2.226  0.1230E+01  0.2958E+01
      2.331  0.1707E+01  0.3137E+01
      2.436  0.2868E+01  0.3438E+01
      2.541  0.3842E+01  0.3841E+01
      2.646  0.4008E+01  0.4262E+01
      2.751  0.3478E+01  0.4627E+01
      2.856  0.2844E+01  0.4926E+01
      2.961  0.2767E+01  0.5216E+01
      3.066  0.3133E+01  0.5545E+01
      3.171  0.3672E+01  0.5930E+01
      3.276  0.4342E+01  0.6386E+01
      3.381  0.4471E+01  0.6856E+01
      3.486  0.3431E+01  0.7216E+01
      3.591  0.1983E+01  0.7424E+01
      3.696  0.1242E+01  0.7554E+01
      3.801  0.1509E+01  0.7712E+01
      3.906  0.2169E+01  0.7940E+01
      4.011  0.2359E+01  0.8188E+01
      4.116  0.2381E+01  0.8438E+01
      4.221  0.3038E+01  0.8757E+01
      4.326  0.4097E+01  0.9187E+01
      4.431  0.4893E+01  0.9700E+01
      4.535  0.5076E+01  0.1023E+02
      4.640  0.4978E+01  0.1076E+02
      4.745  0.5433E+01  0.1133E+02
      4.850  0.6178E+01  0.1197E+02
      4.955  0.6707E+01  0.1268E+02
      5.060  0.7085E+01  0.1342E+02
      5.165  0.6536E+01  0.1411E+02
      5.270  0.4979E+01  0.1463E+02
      5.375  0.3682E+01  0.1502E+02
      5.480  0.2903E+01  0.1532E+02
      5.585  0.2141E+01  0.1555E+02
      5.690  0.1812E+01  0.1574E+02
      5.795  0.2238E+01  0.1597E+02
      5.900  0.2402E+01  0.1622E+02
      6.005  0.1713E+01  0.1640E+02
      6.110  0.1041E+01  0.1651E+02
      6.215  0.9257E+00  0.1661E+02
      6.320  0.1053E+01  0.1672E+02
      6.425  0.1064E+01  0.1683E+02
      6.530  0.1122E+01  0.1695E+02
      6.635  0.1403E+01  0.1710E+02
      6.740  0.1599E+01  0.1726E+02
      6.845  0.1760E+01  0.1745E+02
      6.950  0.2030E+01  0.1766E+02
      7.055  0.2344E+01  0.1791E+02
      7.160  0.2861E+01  0.1821E+02
      7.265  0.3227E+01  0.1855E+02
      7.369  0.3285E+01  0.1889E+02
      7.474  0.3387E+01  0.1925E+02
      7.579  0.3833E+01  0.1965E+02
      7.684  0.4860E+01  0.2016E+02
      7.789  0.5050E+01  0.2069E+02
      7.894  0.3147E+01  0.2102E+02
      7.999  0.1503E+01  0.2118E+02
      8.104  0.1944E+01  0.2138E+02
      8.209  0.2484E+01  0.2164E+02
      8.314  0.1697E+01  0.2182E+02
      8.419  0.7310E+00  0.2190E+02
      8.524  0.4331E+00  0.2194E+02
      8.629  0.3411E+00  0.2198E+02
      8.734  0.1859E+00  0.2200E+02
      8.839  0.3037E+00  0.2203E+02
      8.944  0.7249E+00  0.2211E+02
      9.049  0.1120E+01  0.2222E+02
      9.154  0.1267E+01  0.2236E+02
      9.259  0.1054E+01  0.2247E+02
      9.364  0.6622E+00  0.2254E+02
      9.469  0.2995E+00  0.2257E+02
      9.574  0.7736E-01  0.2258E+02
      9.679  0.2021E+00  0.2260E+02
      9.784  0.6146E+00  0.2266E+02
      9.889  0.8800E+00  0.2276E+02
      9.994  0.7073E+00  0.2283E+02
     10.099  0.3250E+00  0.2286E+02
     10.203  0.1908E+00  0.2288E+02
     10.308  0.4050E+00  0.2293E+02
     10.413  0.7021E+00  0.2300E+02
     10.518  0.7362E+00  0.2308E+02
     10.623  0.5397E+00  0.2313E+02
     10.728  0.4035E+00  0.2318E+02
     10.833  0.3876E+00  0.2322E+02
     10.938  0.4077E+00  0.2326E+02
     11.043  0.4728E+00  0.2331E+02
     11.148  0.5865E+00  0.2337E+02
     11.253  0.5174E+00  0.2343E+02
     11.358  0.2896E+00  0.2346E+02
     11.463  0.1084E+00  0.2347E+02
     11.568  0.6988E-01  0.2347E+02
     11.673  0.1795E+00  0.2349E+02
     11.778  0.2708E+00  0.2352E+02
     11.883  0.2819E+00  0.2355E+02
     11.988  0.2906E+00  0.2358E+02
     12.093  0.2591E+00  0.2361E+02
     12.198  0.1944E+00  0.2363E+02
     12.303  0.2022E+00  0.2365E+02
     12.408  0.2819E+00  0.2368E+02
     12.513  0.3881E+00  0.2372E+02
     12.618  0.4201E+00  0.2377E+02
     12.723  0.2707E+00  0.2379E+02
     12.828  0.8910E-01  0.2380E+02
     12.933  0.2094E-01  0.2381E+02
     13.037  0.3914E-01  0.2381E+02
     13.142  0.2136E+00  0.2383E+02
     13.247  0.5313E+00  0.2389E+02
     13.352  0.7911E+00  0.2397E+02
     13.457  0.9156E+00  0.2407E+02
     13.562  0.8311E+00  0.2415E+02
     13.667  0.5158E+00  0.2421E+02
     13.772  0.2017E+00  0.2423E+02
     13.877  0.4264E-01  0.2423E+02
     13.982  0.5448E-01  0.2424E+02
     14.087  0.2219E+00  0.2426E+02
     14.192  0.4678E+00  0.2431E+02
     14.297  0.6855E+00  0.2438E+02
     14.402  0.7565E+00  0.2446E+02
     14.507  0.8938E+00  0.2456E+02
     14.612  0.1261E+01  0.2469E+02
     14.717  0.1295E+01  0.2483E+02
     14.822  0.7675E+00  0.2491E+02
     14.927  0.3077E+00  0.2494E+02
     15.032  0.3289E+00  0.2497E+02
     15.137  0.6506E+00  0.2504E+02
     15.242  0.8368E+00  0.2513E+02
     15.347  0.7762E+00  0.2521E+02
     15.452  0.7782E+00  0.2529E+02
     15.557  0.8839E+00  0.2538E+02
     15.662  0.9140E+00  0.2548E+02
     15.767  0.7782E+00  0.2556E+02
     15.872  0.5262E+00  0.2562E+02
     15.976  0.4399E+00  0.2566E+02
     16.081  0.7357E+00  0.2574E+02
     16.186  0.1183E+01  0.2586E+02
     16.291  0.1254E+01  0.2600E+02
     16.396  0.8280E+00  0.2608E+02
     16.501  0.4502E+00  0.2613E+02
     16.606  0.4813E+00  0.2618E+02
     16.711  0.5175E+00  0.2624E+02
     16.816  0.5074E+00  0.2629E+02
     16.921  0.9386E+00  0.2639E+02
     17.026  0.1455E+01  0.2654E+02
     17.131  0.1317E+01  0.2668E+02
     17.236  0.8448E+00  0.2677E+02
     17.341  0.6050E+00  0.2683E+02
     17.446  0.5278E+00  0.2689E+02
     17.551  0.5048E+00  0.2694E+02
     17.656  0.5197E+00  0.2699E+02
     17.761  0.6285E+00  0.2706E+02
     17.866  0.9551E+00  0.2716E+02
     17.971  0.1243E+01  0.2729E+02
     18.076  0.1013E+01  0.2740E+02
     18.181  0.4470E+00  0.2744E+02
     18.286  0.1929E+00  0.2746E+02
     18.391  0.4545E+00  0.2751E+02
     18.496  0.7264E+00  0.2759E+02
     18.601  0.6564E+00  0.2766E+02
     18.706  0.5544E+00  0.2771E+02
     18.810  0.5808E+00  0.2778E+02
     18.915  0.6318E+00  0.2784E+02
     19.020  0.7500E+00  0.2792E+02
     19.125  0.1105E+01  0.2804E+02
     19.230  0.1360E+01  0.2818E+02
     19.335  0.9192E+00  0.2828E+02
     19.440  0.2846E+00  0.2831E+02
     19.545  0.2916E+00  0.2834E+02
     19.650  0.6278E+00  0.2840E+02
     19.755  0.6103E+00  0.2847E+02
     19.860  0.4526E+00  0.2851E+02
     19.965  0.6307E+00  0.2858E+02
     20.070  0.9532E+00  0.2868E+02
     20.175  0.9423E+00  0.2878E+02
     20.280  0.6348E+00  0.2885E+02
     20.385  0.4968E+00  0.2890E+02
     20.490  0.5958E+00  0.2896E+02
     20.595  0.5607E+00  0.2902E+02
     20.700  0.4322E+00  0.2906E+02
     20.805  0.5220E+00  0.2912E+02
     20.910  0.7325E+00  0.2920E+02
     21.015  0.7707E+00  0.2928E+02
     21.120  0.6458E+00  0.2934E+02
     21.225  0.5359E+00  0.2940E+02
     21.330  0.4304E+00  0.2945E+02
     21.435  0.2718E+00  0.2947E+02
     21.540  0.2820E+00  0.2950E+02
     21.644  0.6742E+00  0.2957E+02
     21.749  0.1143E+01  0.2969E+02
     21.854  0.1091E+01  0.2981E+02
     21.959  0.4841E+00  0.2986E+02
     22.064 -0.1305E-01  0.2986E+02
     22.169 -0.5925E-02  0.2986E+02
     22.274  0.5266E+00  0.2991E+02
     22.379  0.1223E+01  0.3004E+02
     22.484  0.1316E+01  0.3018E+02
     22.589  0.7915E+00  0.3026E+02
     22.694  0.3193E+00  0.3030E+02
     22.799  0.1711E+00  0.3031E+02
     22.904  0.3462E+00  0.3035E+02
     23.009  0.6670E+00  0.3042E+02
     23.114  0.9612E+00  0.3052E+02
     23.219  0.1170E+01  0.3064E+02
     23.324  0.1060E+01  0.3076E+02
     23.429  0.6520E+00  0.3082E+02
     23.534  0.3637E+00  0.3086E+02
     23.639  0.5242E+00  0.3092E+02
     23.744  0.8904E+00  0.3101E+02
     23.849  0.1014E+01  0.3112E+02
     23.954  0.1090E+01  0.3123E+02
     24.059  0.1319E+01  0.3137E+02
     24.164  0.1071E+01  0.3148E+02
     24.269  0.3432E+00  0.3152E+02
     24.374  0.1754E-01  0.3152E+02
     24.479  0.4003E+00  0.3156E+02
     24.583  0.1009E+01  0.3167E+02
     24.688  0.1037E+01  0.3178E+02
     24.793  0.5042E+00  0.3183E+02
     24.898  0.2888E+00  0.3186E+02
     25.003  0.5297E+00  0.3192E+02
     25.108  0.5673E+00  0.3198E+02
     25.213  0.2559E+00  0.3200E+02
     25.318  0.1391E-01  0.3200E+02
     25.423 -0.2767E-01  0.3200E+02
     25.528 -0.9998E-02  0.3200E+02
     25.633 -0.1528E-02  0.3200E+02
     25.738 -0.1212E-03  0.3200E+02
     25.843 -0.5300E-05  0.3200E+02
     25.948 -0.1309E-06  0.3200E+02
     26.053 -0.1850E-08  0.3200E+02
     26.158 -0.1508E-10  0.3200E+02
     26.263 -0.7123E-13  0.3200E+02
     26.368 -0.1735E-15  0.3200E+02
     26.473  0.0000E+00  0.3200E+02
     26.578  0.0000E+00  0.3200E+02
     26.683  0.0000E+00  0.3200E+02
     26.788  0.0000E+00  0.3200E+02
     26.893  0.0000E+00  0.3200E+02
     26.998  0.0000E+00  0.3200E+02
     27.103  0.0000E+00  0.3200E+02
     27.10259294     -4.38642360  301      5.80652031      1.00000000
     -4.386  0.0000E+00  0.0000E+00  0.0000E+00  0.0000E+00  0.0000E+00  0.0000E+00  0.0000E+00  0.0000E+00  0.0000E+00  0.0000E+00  0.0000E+00  0.0000E+00  0.0000E+00  0.0000E+00  0.0000E+00  0.0000E+00  0.0000E+00  0.0000E+00  0.0000E+00  0.0000E+00  0.0000E+00  0.0000E+00  0.0000E+00  0.0000E+00  0.0000E+00  0.0000E+00  0.0000E+00  0.0000E+00  0.0000E+00  0.0000E+00  0.0000E+00  0.0000E+00  0.0000E+00  0.0000E+00  0.0000E+00  0.0000E+00
     -4.281  0.0000E+00  0.0000E+00  0.0000E+00  0.0000E+00  0.0000E+00  0.0000E+00  0.0000E+00  0.0000E+00  0.0000E+00  0.0000E+00  0.0000E+00  0.0000E+00  0.0000E+00  0.0000E+00  0.0000E+00  0.0000E+00  0.0000E+00  0.0000E+00  0.0000E+00  0.0000E+00  0.0000E+00  0.0000E+00  0.0000E+00  0.0000E+00  0.0000E+00  0.0000E+00  0.0000E+00  0.0000E+00  0.0000E+00  0.0000E+00  0.0000E+00  0.0000E+00  0.0000E+00  0.0000E+00  0.0000E+00  0.0000E+00
     -4.176  0.0000E+00  0.0000E+00  0.0000E+00  0.0000E+00  0.0000E+00  0.0000E+00  0.0000E+00  0.0000E+00  0.0000E+00  0.0000E+00  0.0000E+00  0.0000E+00  0.0000E+00  0.0000E+00  0.0000E+00  0.0000E+00  0.0000E+00  0.0000E+00  0.0000E+00  0.0000E+00  0.0000E+00  0.0000E+00  0.0000E+00  0.0000E+00  0.0000E+00  0.0000E+00  0.0000E+00  0.0000E+00  0.0000E+00  0.0000E+00  0.0000E+00  0.0000E+00  0.0000E+00  0.0000E+00  0.0000E+00  0.0000E+00
     -4.072 -0.1865E-31 -0.1970E-38 -0.7387E-39 -0.1865E-31 -0.1486E-33  0.8152E-39  0.1280E-38 -0.1486E-33 -0.1486E-33 -0.1451E-38  0.1206E-39 -0.1486E-33 -0.1486E-33  0.5208E-39 -0.1392E-38 -0.1486E-33 -0.3892E-35  0.3502E-40  0.2354E-42 -0.3892E-35 -0.3892E-35 -0.3206E-41  0.2878E-40 -0.3892E-35 -0.1460E-39 -0.7293E-40 -0.2654E-43  0.5202E-41 -0.3892E-35 -0.1403E-40 -0.1000E-40 -0.3892E-35 -0.1460E-39  0.7294E-40  0.7981E-44  0.5211E-41
     -3.967 -0.9201E-28 -0.9718E-35 -0.3644E-35 -0.9201E-28 -0.7330E-30  0.4021E-35  0.6313E-35 -0.7330E-30 -0.7330E-30 -0.7158E-35  0.5949E-36 -0.7330E-30 -0.7330E-30  0.2569E-35 -0.6868E-35 -0.7330E-30 -0.1920E-31  0.1728E-36  0.1161E-38 -0.1920E-31 -0.1920E-31 -0.1581E-37  0.1420E-36 -0.1920E-31 -0.7202E-36 -0.3598E-36 -0.1309E-39  0.2566E-37 -0.1920E-31 -0.6923E-37 -0.4935E-37 -0.1920E-31 -0.7203E-36  0.3599E-36  0.3937E-40  0.2571E-37
     -3.862 -0.2605E-24 -0.2752E-31 -0.1032E-31 -0.2605E-24 -0.2075E-26  0.1138E-31  0.1787E-31 -0.2075E-26 -0.2075E-26 -0.2026E-31  0.1684E-32 -0.2075E-26 -0.2075E-26  0.7271E-32 -0.1944E-31 -0.2075E-26 -0.5437E-28  0.4892E-33  0.3289E-35 -0.5437E-28 -0.5437E-28 -0.4477E-34  0.4020E-33 -0.5437E-28 -0.2039E-32 -0.1019E-32 -0.3707E-36  0.7266E-34 -0.5437E-28 -0.1960E-33 -0.1397E-33 -0.5437E-28 -0.2039E-32  0.1019E-32  0.1115E-36  0.7279E-34
     -3.757 -0.4230E-21 -0.4468E-28 -0.1675E-28 -0.4230E-21 -0.3370E-23  0.1848E-28  0.2901E-28 -0.3370E-23 -0.3370E-23 -0.3290E-28  0.2735E-29 -0.3370E-23 -0.3370E-23  0.1180E-28 -0.3156E-28 -0.3370E-23 -0.8829E-25  0.7943E-30  0.5340E-32 -0.8828E-25 -0.8829E-25 -0.7268E-31  0.6528E-30 -0.8828E-25 -0.3311E-29 -0.1654E-29 -0.6020E-33  0.1180E-30 -0.8828E-25 -0.3183E-30 -0.2268E-30 -0.8828E-25 -0.3312E-29  0.1654E-29  0.1810E-33  0.1182E-30
     -3.652 -0.3936E-18 -0.4157E-25 -0.1559E-25 -0.3936E-18 -0.3135E-20  0.1719E-25  0.2698E-25 -0.3135E-20 -0.3135E-20 -0.3060E-25  0.2545E-26 -0.3135E-20 -0.3135E-20  0.1098E-25 -0.2936E-25 -0.3135E-20 -0.8214E-22  0.7390E-27  0.4968E-29 -0.8213E-22 -0.8214E-22 -0.6761E-28  0.6073E-27 -0.8214E-22 -0.3081E-26 -0.1539E-26 -0.5601E-30  0.1098E-27 -0.8214E-22 -0.2961E-27 -0.2110E-27 -0.8213E-22 -0.3081E-26  0.1539E-26  0.1684E-30  0.1100E-27
     -3.547 -0.2036E-15 -0.2151E-22 -0.8066E-23 -0.2036E-15 -0.1622E-17  0.8894E-23  0.1396E-22 -0.1622E-17 -0.1622E-17 -0.1583E-22  0.1317E-23 -0.1622E-17 -0.1622E-17  0.5679E-23 -0.1519E-22 -0.1622E-17 -0.4250E-19  0.3824E-24  0.2571E-26 -0.4250E-19 -0.4250E-19 -0.3498E-25  0.3142E-24 -0.4250E-19 -0.1594E-23 -0.7964E-24 -0.2898E-27  0.5680E-25 -0.4250E-19 -0.1532E-24 -0.1092E-24 -0.4250E-19 -0.1594E-23  0.7965E-24  0.8715E-28  0.5690E-25
     -3.442 -0.6149E-13 -0.6495E-20 -0.2436E-20 -0.6149E-13 -0.4899E-15  0.2685E-20  0.4215E-20 -0.4899E-15 -0.4899E-15 -0.4779E-20  0.3976E-21 -0.4899E-15 -0.4899E-15  0.1714E-20 -0.4586E-20 -0.4899E-15 -0.1283E-16  0.1155E-21  0.7767E-24 -0.1283E-16 -0.1283E-16 -0.1056E-22  0.9488E-22 -0.1283E-16 -0.4813E-21 -0.2405E-21 -0.8751E-25  0.1715E-22 -0.1283E-16 -0.4626E-22 -0.3297E-22 -0.1283E-16 -0.4814E-21  0.2405E-21  0.2632E-25  0.1718E-22
     -3.337 -0.1058E-10 -0.1117E-17 -0.4189E-18 -0.1058E-10 -0.8426E-13  0.4617E-18  0.7246E-18 -0.8426E-13 -0.8426E-13 -0.8218E-18  0.6839E-19 -0.8426E-13 -0.8426E-13  0.2947E-18 -0.7884E-18 -0.8426E-13 -0.2207E-14  0.1986E-19  0.1337E-21 -0.2207E-14 -0.2207E-14 -0.1816E-20  0.1632E-19 -0.2207E-14 -0.8279E-19 -0.4136E-19 -0.1505E-22  0.2949E-20 -0.2207E-14 -0.7956E-20 -0.5670E-20 -0.2207E-14 -0.8280E-19  0.4137E-19  0.4527E-23  0.2954E-20
     -3.232 -0.1030E-08 -0.1088E-15 -0.4080E-16 -0.1030E-08 -0.8209E-11  0.4497E-16  0.7058E-16 -0.8208E-11 -0.8209E-11 -0.8004E-16  0.6664E-17 -0.8208E-11 -0.8209E-11  0.2870E-16 -0.7679E-16 -0.8208E-11 -0.2151E-12  0.1935E-17  0.1306E-19 -0.2150E-12 -0.2151E-12 -0.1769E-18  0.1590E-17 -0.2150E-12 -0.8066E-17 -0.4029E-17 -0.1466E-20  0.2872E-18 -0.2151E-12 -0.7751E-18 -0.5524E-18 -0.2150E-12 -0.8066E-17  0.4030E-17  0.4410E-21  0.2877E-18
     -3.127 -0.5648E-07 -0.5964E-14 -0.2235E-14 -0.5645E-07 -0.4500E-09  0.2464E-14  0.3866E-14 -0.4497E-09 -0.4499E-09 -0.4385E-14  0.3654E-15 -0.4497E-09 -0.4500E-09  0.1572E-14 -0.4207E-14 -0.4497E-09 -0.1179E-10  0.1060E-15  0.7224E-18 -0.1178E-10 -0.1179E-10 -0.9693E-17  0.8713E-16 -0.1178E-10 -0.4420E-15 -0.2208E-15 -0.8038E-19  0.1571E-16 -0.1179E-10 -0.4249E-16 -0.3029E-16 -0.1178E-10 -0.4421E-15  0.2208E-15  0.2418E-19  0.1574E-16
     -3.022 -0.1722E-05 -0.1817E-12 -0.6804E-13 -0.1719E-05 -0.1372E-07  0.7502E-13  0.1177E-12 -0.1370E-07 -0.1372E-07 -0.1335E-12  0.1115E-13 -0.1370E-07 -0.1372E-07  0.4787E-13 -0.1281E-12 -0.1370E-07 -0.3592E-09  0.3233E-14  0.2263E-16 -0.3589E-09 -0.3592E-09 -0.2953E-15  0.2655E-14 -0.3589E-09 -0.1347E-13 -0.6725E-14 -0.2450E-17  0.4761E-15 -0.3592E-09 -0.1295E-14 -0.9250E-15 -0.3589E-09 -0.1347E-13  0.6726E-14  0.7372E-18  0.4769E-15
     -2.917 -0.2857E-04 -0.3013E-11 -0.1124E-11 -0.2844E-04 -0.2276E-06  0.1241E-11  0.1948E-11 -0.2266E-06 -0.2276E-06 -0.2208E-11  0.1858E-12 -0.2266E-06 -0.2276E-06  0.7917E-12 -0.2119E-11 -0.2266E-06 -0.5959E-08  0.5367E-13  0.4087E-15 -0.5939E-08 -0.5959E-08 -0.4897E-14  0.4405E-13 -0.5939E-08 -0.2235E-12 -0.1113E-12 -0.4068E-16  0.7748E-14 -0.5959E-08 -0.2152E-13 -0.1544E-13 -0.5939E-08 -0.2235E-12  0.1113E-12  0.1225E-16  0.7762E-14
     -2.812 -0.2467E-03 -0.2592E-10 -0.9542E-11 -0.2428E-03 -0.1965E-05  0.1061E-10  0.1665E-10 -0.1934E-05 -0.1965E-05 -0.1885E-10  0.1628E-11 -0.1934E-05 -0.1965E-05  0.6758E-11 -0.1808E-10 -0.1934E-05 -0.5137E-07  0.4641E-12  0.4544E-14 -0.5079E-07 -0.5137E-07 -0.4218E-13  0.3797E-12 -0.5079E-07 -0.1926E-11 -0.9529E-12 -0.3516E-15  0.6177E-13 -0.5137E-07 -0.1864E-12 -0.1362E-12 -0.5079E-07 -0.1927E-11  0.9530E-12  0.1061E-15  0.6189E-13
     -2.707 -0.9743E-03 -0.1008E-09 -0.3489E-10 -0.9114E-03 -0.7763E-05  0.4016E-10  0.6299E-10 -0.7259E-05 -0.7763E-05 -0.7088E-10  0.6827E-11 -0.7259E-05 -0.7763E-05  0.2539E-10 -0.6793E-10 -0.7259E-05 -0.2014E-06  0.1845E-11  0.3540E-13 -0.1921E-06 -0.2014E-06 -0.1649E-12  0.1489E-11 -0.1921E-06 -0.7629E-11 -0.3619E-11 -0.1395E-14  0.8398E-13 -0.2014E-06 -0.7471E-12 -0.5874E-12 -0.1921E-06 -0.7630E-11  0.3620E-11  0.4254E-15  0.8446E-13
     -2.602 -0.7151E-03 -0.5793E-10  0.2556E-11 -0.1899E-03 -0.5708E-05  0.1179E-10  0.1825E-10 -0.1501E-05 -0.5708E-05 -0.1604E-10  0.9026E-11 -0.1501E-05 -0.5708E-05  0.5623E-11 -0.1473E-10 -0.1501E-05 -0.1335E-06  0.1481E-11  0.2019E-12 -0.5542E-07 -0.1335E-06 -0.1041E-12  0.9855E-12 -0.5542E-07 -0.1265E-10 -0.1204E-11 -0.1091E-14 -0.8393E-11 -0.1335E-06 -0.6576E-12 -0.9303E-12 -0.5542E-07 -0.1265E-10  0.1204E-11  0.3818E-15 -0.8392E-11
     -2.497  0.6117E-02  0.7113E-09  0.3567E-09  0.8063E-02  0.4868E-04 -0.3384E-09 -0.5319E-09  0.6427E-04  0.4868E-04  0.6205E-09 -0.2324E-10  0.6427E-04  0.4868E-04 -0.2228E-09  0.5978E-09  0.6427E-04  0.1335E-05 -0.1096E-10  0.6370E-12  0.1624E-05  0.1335E-05  0.1113E-11 -0.9863E-11  0.1624E-05 -0.3569E-09  0.2981E-10  0.8395E-14 -0.4121E-09  0.1335E-05  0.4151E-11  0.1239E-11  0.1624E-05 -0.3569E-09 -0.2981E-10 -0.2027E-14 -0.4121E-09
     -2.392  0.1952E-01  0.2085E-08  0.8124E-09  0.2018E-01  0.1554E-03 -0.8742E-09 -0.1372E-08  0.1607E-03  0.1554E-03  0.1562E-08 -0.1208E-09  0.1607E-03  0.1554E-03 -0.5591E-09  0.1500E-08  0.1607E-03  0.4086E-05 -0.3626E-10 -0.2651E-13  0.4184E-05  0.4086E-05  0.3249E-11 -0.3005E-10  0.4184E-05 -0.1179E-07  0.7804E-10  0.2645E-13 -0.1194E-07  0.4086E-05  0.1439E-10  0.9521E-11  0.4184E-05 -0.1179E-07 -0.7801E-10  0.1502E-14 -0.1194E-07
     -2.287  0.2831E-01  0.2496E-08  0.2370E-09  0.1316E-01  0.2238E-03 -0.6582E-09 -0.1030E-08  0.1024E-03  0.2238E-03  0.1033E-08 -0.3125E-09  0.1024E-03  0.2238E-03 -0.3520E-09  0.9823E-09  0.1024E-03  0.5322E-05 -0.5382E-10 -0.6286E-11  0.3071E-05  0.5322E-05  0.2388E-11 -0.3702E-10  0.3071E-05 -0.1901E-06  0.6001E-10  0.2298E-13 -0.1898E-06  0.5322E-05  0.2261E-10  0.2707E-10  0.3071E-05 -0.1901E-06 -0.5938E-10  0.1407E-12 -0.1898E-06
     -2.182  0.2791E-01  0.1704E-08 -0.1218E-08 -0.1255E-01  0.2063E-03  0.4171E-09  0.6391E-09 -0.1176E-03  0.2063E-03 -0.1089E-08 -0.5385E-09 -0.1176E-03  0.2063E-03  0.5221E-09 -0.1014E-08 -0.1176E-03  0.3531E-05 -0.3570E-10 -0.1819E-10 -0.2471E-05  0.3531E-05 -0.1253E-10 -0.7235E-11 -0.2471E-05 -0.1567E-05 -0.5253E-10 -0.1031E-12 -0.1552E-05  0.3531E-05  0.1266E-10  0.2516E-10 -0.2471E-05 -0.1567E-05  0.5768E-10  0.1233E-11 -0.1552E-05
     -2.077  0.1755E-01  0.8640E-09 -0.1505E-08 -0.2328E-01  0.7799E-04  0.1233E-08  0.1850E-08 -0.2453E-03  0.7799E-04 -0.2492E-08 -0.5183E-09 -0.2453E-03  0.7799E-04  0.1331E-08 -0.2145E-08 -0.2453E-03 -0.1529E-05  0.5532E-10 -0.2609E-10 -0.7432E-05 -0.1529E-05 -0.5631E-10  0.7907E-10 -0.7432E-05 -0.5762E-05 -0.1954E-09 -0.3200E-12 -0.5521E-05 -0.1529E-05 -0.4153E-10 -0.6355E-10 -0.7432E-05 -0.5762E-05  0.2133E-09  0.4148E-11 -0.5521E-05
     -1.972  0.5502E-02 -0.5647E-10 -0.5629E-09 -0.8938E-02  0.1278E-04  0.1636E-09  0.4298E-09 -0.7062E-04  0.1278E-04 -0.7310E-09 -0.1124E-09 -0.7062E-04  0.1278E-04  0.2195E-09 -0.6231E-09 -0.7062E-04 -0.9438E-06  0.1040E-10 -0.9408E-11 -0.1719E-05 -0.9438E-06 -0.1811E-10  0.2066E-10 -0.1719E-05 -0.2421E-05 -0.4919E-10  0.1871E-11 -0.4053E-06 -0.9438E-06 -0.1376E-10 -0.9983E-11 -0.1719E-05 -0.2421E-05  0.4575E-10 -0.2710E-11 -0.4053E-06
     -1.867  0.1886E-01 -0.2017E-08 -0.4177E-09  0.2476E-01  0.5737E-03 -0.6181E-08 -0.7957E-08  0.7412E-03  0.5737E-03  0.8806E-08  0.7135E-09  0.7412E-03  0.5737E-03 -0.7308E-08  0.6197E-08  0.7412E-03  0.3243E-04 -0.8230E-09  0.8208E-10  0.3842E-04  0.3243E-04  0.4443E-09 -0.7942E-09  0.3842E-04  0.4112E-04  0.1246E-08  0.1221E-10  0.4863E-04  0.3243E-04  0.4974E-09  0.9272E-09  0.3842E-04  0.4112E-04 -0.1426E-08 -0.5115E-10  0.4863E-04
     -1.762  0.5532E-01 -0.2797E-08 -0.1655E-08  0.5926E-01  0.1673E-02 -0.1373E-07 -0.1867E-07  0.1748E-02  0.1673E-02  0.2143E-07  0.1200E-08  0.1748E-02  0.1673E-02 -0.1714E-07  0.1452E-07  0.1748E-02  0.9066E-04 -0.2144E-08  0.2198E-09  0.9308E-04  0.9066E-04  0.1186E-08 -0.2078E-08  0.9308E-04  0.1150E-03  0.3147E-08  0.1501E-10  0.1177E-03  0.9066E-04  0.1340E-08  0.2409E-08  0.9308E-04  0.1150E-03 -0.3547E-08 -0.1002E-09  0.1177E-03
     -1.657  0.7740E-01  0.5902E-08 -0.4010E-08  0.3581E-01  0.2317E-02 -0.5033E-08 -0.1100E-07  0.1052E-02  0.2317E-02  0.1566E-07 -0.1209E-08  0.1052E-02  0.2317E-02 -0.1023E-07  0.8327E-08  0.1052E-02  0.1116E-03 -0.2122E-08  0.2401E-09  0.6584E-04  0.1116E-03  0.1281E-08 -0.2091E-08  0.6584E-04  0.1438E-03  0.2748E-08 -0.4509E-10  0.8555E-04  0.1116E-03  0.1496E-08  0.2373E-08  0.6584E-04  0.1438E-03 -0.2897E-08  0.2170E-10  0.8555E-04
     -1.552  0.7655E-01  0.2153E-07 -0.6771E-08 -0.3665E-01  0.2270E-02  0.1726E-07  0.1286E-07 -0.1141E-02  0.2270E-02 -0.6926E-08 -0.5734E-08 -0.1141E-02  0.2270E-02  0.1121E-07 -0.1060E-07 -0.1141E-02  0.8094E-04 -0.6009E-09  0.1342E-09 -0.4211E-04  0.8094E-04  0.6255E-09 -0.6858E-09 -0.4211E-04  0.1171E-03 -0.4331E-10 -0.1469E-09 -0.3932E-04  0.8094E-04  0.8515E-09  0.6845E-09 -0.4211E-04  0.1171E-03  0.5386E-09  0.2919E-09 -0.3932E-04
     -1.447  0.5365E-01  0.2322E-07 -0.6402E-08 -0.6135E-01  0.1551E-02  0.2327E-07  0.2108E-07 -0.1906E-02  0.1551E-02 -0.1631E-07 -0.6287E-08 -0.1906E-02  0.1551E-02  0.1830E-07 -0.1709E-07 -0.1906E-02  0.3001E-04  0.5754E-09  0.3489E-10 -0.9323E-04  0.3001E-04  0.3525E-11  0.4250E-09 -0.9323E-04  0.6823E-04 -0.1707E-08 -0.1479E-09 -0.9040E-04  0.3001E-04  0.1891E-09 -0.5612E-09 -0.9323E-04  0.6823E-04  0.2373E-08  0.3629E-09 -0.9040E-04
     -1.342  0.2482E-01  0.7538E-08 -0.1151E-08 -0.1793E-01  0.8517E-03  0.7639E-08  0.4130E-08 -0.3865E-03  0.8517E-03 -0.1100E-08 -0.2372E-08 -0.3865E-03  0.8517E-03  0.6076E-08 -0.2782E-08 -0.3865E-03  0.7555E-04 -0.1143E-08  0.2822E-10  0.4135E-04  0.7555E-04  0.6236E-09 -0.1084E-08  0.4135E-04  0.4272E-04  0.1557E-08 -0.6338E-10 -0.1513E-04  0.7555E-04  0.6244E-09  0.1049E-08  0.4135E-04  0.4272E-04 -0.1315E-08  0.8625E-11 -0.1513E-04
     -1.238  0.3271E-01 -0.8607E-08  0.6336E-08  0.3986E-01  0.1686E-02 -0.1031E-07 -0.2288E-07  0.2032E-02  0.1686E-02  0.2862E-07  0.6831E-09  0.2032E-02  0.1686E-02 -0.8088E-08  0.2110E-07  0.2032E-02  0.3549E-03 -0.7594E-08  0.1798E-09  0.3951E-03  0.3549E-03  0.3536E-08 -0.6899E-08  0.3951E-03  0.1077E-03  0.1150E-07 -0.6019E-10  0.1207E-03  0.3549E-03  0.3173E-08  0.7042E-08  0.3951E-03  0.1077E-03 -0.1168E-07 -0.6968E-09  0.1207E-03
     -1.133  0.5885E-01 -0.1521E-07  0.9781E-08  0.5890E-01  0.3050E-02 -0.1804E-07 -0.3257E-07  0.2930E-02  0.3050E-02  0.3951E-07  0.1311E-08  0.2930E-02  0.3050E-02 -0.1132E-07  0.2990E-07  0.2930E-02  0.6139E-03 -0.1296E-07  0.4900E-09  0.5838E-03  0.6139E-03  0.6147E-08 -0.1157E-07  0.5838E-03  0.1830E-03  0.1733E-07 -0.2094E-09  0.1801E-03  0.6139E-03  0.5465E-08  0.1177E-07  0.5838E-03  0.1830E-03 -0.1768E-07 -0.1140E-08  0.1801E-03
     -1.028  0.6683E-01 -0.1214E-07  0.4400E-08  0.7658E-02  0.3419E-02 -0.1353E-07 -0.1697E-08  0.3052E-03  0.3419E-02 -0.1652E-08  0.7910E-09  0.3052E-03  0.3419E-02  0.2597E-08  0.1507E-08  0.3052E-03  0.5752E-03 -0.1110E-07  0.1082E-08  0.1809E-03  0.5752E-03  0.5696E-08 -0.9200E-08  0.1809E-03  0.1533E-03  0.6717E-08 -0.6139E-09  0.3989E-04  0.5752E-03  0.4877E-08  0.9188E-08  0.1809E-03  0.1533E-03 -0.6989E-08 -0.8096E-09  0.3989E-04
     -0.923  0.6165E-01 -0.7094E-08 -0.2571E-08 -0.5464E-01  0.3113E-02 -0.6031E-08  0.3658E-07 -0.2940E-02  0.3113E-02 -0.5197E-07  0.3939E-09 -0.2940E-02  0.3113E-02  0.1916E-07 -0.3380E-07 -0.2940E-02  0.4134E-03 -0.6096E-08  0.1607E-08 -0.3459E-03  0.4134E-03  0.3760E-08 -0.3986E-08 -0.3459E-03  0.6322E-04 -0.8008E-08 -0.1049E-08 -0.1570E-03  0.4134E-03  0.2910E-08  0.3757E-08 -0.3459E-03  0.6322E-04  0.7881E-08 -0.3118E-09 -0.1570E-03
     -0.818  0.4329E-01 -0.3619E-08 -0.3432E-08 -0.4570E-01  0.2284E-02 -0.4898E-08  0.2679E-07 -0.2316E-02  0.2284E-02 -0.3903E-07 -0.5814E-10 -0.2316E-02  0.2284E-02  0.1273E-07 -0.2428E-07 -0.2316E-02  0.2757E-03 -0.5900E-08  0.1157E-08 -0.3043E-03  0.2757E-03  0.3491E-08 -0.4196E-08 -0.3043E-03  0.1078E-03 -0.5713E-08 -0.5428E-09 -0.4939E-04  0.2757E-03  0.2947E-08  0.3892E-08 -0.3043E-03  0.1078E-03  0.5510E-08  0.1533E-10 -0.4939E-04
     -0.713  0.4021E-01 -0.1569E-08 -0.1660E-08  0.2221E-01  0.2839E-02 -0.1793E-07 -0.3602E-07  0.2041E-02  0.2839E-02  0.3739E-07 -0.2602E-08  0.2041E-02  0.2839E-02 -0.2181E-07  0.3568E-07  0.2041E-02  0.3840E-03 -0.2270E-07  0.1721E-09  0.2680E-03  0.3840E-03  0.1096E-07 -0.2049E-07  0.2680E-03  0.6347E-03  0.1988E-07  0.1535E-08  0.6544E-03  0.3840E-03  0.1093E-07  0.1959E-07  0.2680E-03  0.6347E-03 -0.2094E-07  0.7167E-09  0.6544E-03
     -0.608  0.6317E-01 -0.7533E-09 -0.1541E-08  0.7342E-01  0.4909E-02 -0.3187E-07 -0.8945E-07  0.5580E-02  0.4909E-02  0.9832E-07 -0.6631E-08  0.5580E-02  0.4909E-02 -0.5128E-07  0.8646E-07  0.5580E-02  0.6696E-03 -0.4366E-07 -0.2846E-09  0.7378E-03  0.6696E-03  0.2061E-07 -0.4008E-07  0.7378E-03  0.1292E-02  0.4458E-07  0.3500E-08  0.1365E-02  0.6696E-03  0.2079E-07  0.3832E-07  0.7378E-03  0.1292E-02 -0.4657E-07  0.1506E-08  0.1365E-02
     -0.503  0.6998E-01  0.5471E-08 -0.3755E-08  0.3947E-01  0.5393E-02 -0.2812E-08 -0.4664E-07  0.2904E-02  0.5393E-02  0.4274E-07 -0.1009E-07  0.2904E-02  0.5393E-02 -0.2307E-07  0.4286E-07  0.2904E-02  0.5781E-03 -0.3071E-07 -0.1908E-09  0.3705E-03  0.5781E-03  0.1468E-07 -0.2763E-07  0.3705E-03  0.1216E-02  0.2707E-07  0.2353E-08  0.8064E-03  0.5782E-03  0.1435E-07  0.2682E-07  0.3705E-03  0.1216E-02 -0.2798E-07  0.1399E-08  0.8064E-03
     -0.398  0.7249E-01  0.1677E-07 -0.8453E-08 -0.4404E-01  0.5609E-02  0.5961E-07  0.5140E-07 -0.3523E-02  0.5609E-02 -0.8401E-07 -0.1413E-07 -0.3523E-02  0.5609E-02  0.4013E-07 -0.5538E-07 -0.3523E-02  0.4490E-03 -0.7674E-08  0.1470E-09 -0.3376E-03  0.4490E-03  0.4860E-08 -0.4576E-08 -0.3376E-03  0.9381E-03 -0.6722E-08 -0.9553E-09 -0.4793E-03  0.4490E-03  0.3624E-08  0.6587E-08 -0.3376E-03  0.9381E-03  0.7871E-08  0.7971E-09 -0.4793E-03
     -0.293  0.9184E-01  0.9593E-08 -0.1109E-07 -0.4703E-01  0.7525E-02  0.5662E-07  0.2802E-07 -0.3300E-02  0.7525E-02 -0.7115E-07 -0.1249E-07 -0.3300E-02  0.7525E-02  0.2850E-07 -0.3374E-07 -0.3300E-02  0.1524E-02 -0.6352E-07  0.1027E-08  0.6172E-03  0.1524E-02  0.3368E-07 -0.5236E-07  0.6172E-03  0.1557E-02  0.4455E-07 -0.2797E-08 -0.1145E-03  0.1524E-02  0.3290E-07  0.5623E-07  0.6172E-03  0.1557E-02 -0.4558E-07  0.2881E-09 -0.1145E-03
     -0.188  0.1073E+00 -0.1998E-07 -0.8631E-08  0.4797E-01  0.9462E-02 -0.3316E-07 -0.1377E-06  0.4980E-02  0.9462E-02  0.1128E-06 -0.1203E-08  0.4980E-02  0.9463E-02 -0.7281E-07  0.1289E-06  0.4980E-02  0.3629E-02 -0.1949E-06  0.2426E-08  0.3369E-02  0.3629E-02  0.9909E-07 -0.1690E-06  0.3369E-02  0.2776E-02  0.1831E-06 -0.2681E-08  0.2097E-02  0.3629E-02  0.1004E-06  0.1728E-06  0.3369E-02  0.2776E-02 -0.1909E-06 -0.3603E-09  0.2097E-02
     -0.083  0.9070E-01 -0.3447E-07 -0.5329E-08  0.9233E-01  0.8341E-02 -0.7582E-07 -0.1977E-06  0.8574E-02  0.8341E-02  0.1902E-06  0.5297E-08  0.8574E-02  0.8341E-02 -0.1128E-06  0.1896E-06  0.8574E-02  0.3966E-02 -0.2218E-06  0.2645E-08  0.4073E-02  0.3966E-02  0.1119E-06 -0.1940E-06  0.4073E-02  0.2824E-02  0.2154E-06 -0.1896E-08  0.2870E-02  0.3966E-02  0.1142E-06  0.1969E-06  0.4073E-02  0.2824E-02 -0.2253E-06 -0.4888E-09  0.2870E-02