    2    2    1    1
  0.1136426E+02  0.2832634E-09  0.2832634E-09  0.2832634E-09  0.5000000E-15
  1.000000000000000E-004
  CAR 
 unknown system                          
     16    512     32
 
  0.6250000E-01  0.6250000E-01  0.6250000E-01  0.1953125E-02
    1       -2.386423   1.000000
    2       -2.180639   1.000000
    3        1.145744   1.000000
    4        1.146736   1.000000
    5        2.901352   1.000000
    6        2.901660   1.000000
    7        3.388402   1.000000
    8        3.439035   1.000000
    9        3.613113   1.000000
   10        4.805888   1.000000
   11        4.816700   1.000000
   12        5.399778   1.007159
   13        5.443969   1.013946
   14        5.514732   1.029437
   15        5.650453   0.984844
   16        5.778504   0.617268
   17        5.840745   0.357509
   18        7.403565  -0.000000
   19        7.411120  -0.000000
   20        7.738531  -0.000000
   21        8.080703  -0.000000
   22        8.142399  -0.000000
   23       15.216214   0.000000
   24       15.397203   0.000000
   25       15.571911   0.000000
   26       15.799547   0.000000
   27       15.841471   0.000000
   28       16.120864   0.000000
   29       22.266290   0.000000
   30       22.282624   0.000000
   31       23.084127   0.000000
   32       23.097501   0.000000
 
  0.1875000E+00  0.6250000E-01  0.6250000E-01  0.1953125E-02
    1       -1.763352   1.000000
    2       -1.550283   1.000000
    3        1.400721   1.000000
    4        1.407080   1.000000
    5        3.085587   1.000000
    6        3.206001   1.000000
    7        3.323994   1.000000
    8        3.399841   1.000000
    9        3.875128   1.000000
   10        4.564793   1.000000
   11        4.928961   1.000000
   12        4.953522   1.000000
   13        5.306956   1.001169
   14        5.348083   1.002785
   15        5.383385   1.005405
   16        5.777319   0.622112
   17        5.935202   0.061456
   18        7.044936  -0.000000
   19        7.087251  -0.000000
   20        7.521108  -0.000000
   21        7.551107  -0.000000
   22        8.078505  -0.000000
   23       12.461098   0.000000
   24       13.239416   0.000000
   25       16.359489   0.000000
   26       16.637295   0.000000
   27       16.966220   0.000000
   28       17.193512   0.000000
   29       22.554609   0.000000
   30       23.315633   0.000000
   31       24.007925   0.000000
   32       24.648340   0.000000
 
  0.3125000E+00  0.6250000E-01  0.6250000E-01  0.1953125E-02
    1       -0.629948   1.000000
    2       -0.376325   1.000000
    3        1.698403   1.000000
    4        1.890038   1.000000
    5        3.129461   1.000000
    6        3.353443   1.000000
    7        3.373947   1.000000
    8        3.772691   1.000000
    9        4.144879   1.000000
   10        4.245930   1.000000
   11        4.331957   1.000000
   12        4.724311   1.000000
   13        5.143231   1.000014
   14        5.311462   1.001292
   15        5.337835   1.002265
   16        5.507817   1.027940
   17        6.328891  -0.000692
   18        6.336823  -0.000573
   19        6.529784  -0.000002
   20        6.783300  -0.000000
   21        7.769754  -0.000000
   22        7.778541  -0.000000
   23        9.395875  -0.000000
   24       10.611978  -0.000000
   25       18.117810   0.000000
   26       18.412730   0.000000
   27       18.849502   0.000000
   28       19.074030   0.000000
   29       23.191996   0.000000
   30       23.850506   0.000000
   31       24.543840   0.000000
   32       24.982143   0.000000
 
  0.4375000E+00  0.6250000E-01  0.6250000E-01  0.1953125E-02
    1        0.694766   1.000000
    2        1.123028   1.000000
    3        1.588880   1.000000
    4        2.487334   1.000000
    5        2.515563   1.000000
    6        3.122157   1.000000
    7        3.545743   1.000000
    8        3.860754   1.000000
    9        3.927257   1.000000
   10        4.189963   1.000000
   11        4.508548   1.000000
   12        4.671374   1.000000
   13        5.111664   1.000005
   14        5.155451   1.000021
   15        5.457010   1.016526
   16        5.664077   0.964066
   17        5.814055   0.468141
   18        6.057728  -0.035313
   19        6.214010  -0.007070
   20        6.828822  -0.000000
   21        6.983234  -0.000000
   22        7.328021  -0.000000
   23        8.097458  -0.000000
   24        8.857014  -0.000000
   25       20.196814   0.000000
   26       20.637962   0.000000
   27       20.964912   0.000000
   28       21.337087   0.000000
   29       22.332693   0.000000
   30       22.974117   0.000000
   31       23.174627   0.000000
   32       23.821890   0.000000
 
 -0.4375000E+00  0.6250000E-01  0.6250000E-01  0.1953125E-02
    1        0.694755   1.000000
    2        1.123033   1.000000
    3        1.588916   1.000000
    4        2.487311   1.000000
    5        2.515597   1.000000
    6        3.121692   1.000000
    7        3.549945   1.000000
    8        3.857115   1.000000
    9        3.920697   1.000000
   10        4.196520   1.000000
   11        4.505601   1.000000
   12        4.676363   1.000000
   13        5.113671   1.000006
   14        5.150796   1.000018
   15        5.462094   1.017593
   16        5.662504   0.966689
   17        5.808847   0.490155
   18        6.056412  -0.035367
   19        6.216990  -0.006726
   20        6.829104  -0.000000
   21        6.983587  -0.000000
   22        7.327955  -0.000000
   23        8.097477  -0.000000
   24        8.856927  -0.000000
   25       20.199930   0.000000
   26       20.626834   0.000000
   27       20.976628   0.000000
   28       21.333392   0.000000
   29       22.331525   0.000000
   30       22.982389   0.000000
   31       23.166562   0.000000
   32       23.824174   0.000000
 
 -0.3125000E+00  0.6250000E-01  0.6250000E-01  0.1953125E-02
    1       -0.629950   1.000000
    2       -0.376324   1.000000
    3        1.698429   1.000000
    4        1.890041   1.000000
    5        3.129414   1.000000
    6        3.359677   1.000000
    7        3.368180   1.000000
    8        3.773134   1.000000
    9        4.136927   1.000000
   10        4.253537   1.000000
   11        4.327905   1.000000
   12        4.729481   1.000000
   13        5.143856   1.000015
   14        5.314173   1.001371
   15        5.334703   1.002123
   16        5.507734   1.027921
   17        6.324390  -0.000770
   18        6.334918  -0.000600
   19        6.531401  -0.000002
   20        6.786475  -0.000000
   21        7.769578  -0.000000
   22        7.778507  -0.000000
   23        9.396005  -0.000000
   24       10.611888  -0.000000
   25       18.120878   0.000000
   26       18.405800   0.000000
   27       18.857095   0.000000
   28       19.070309   0.000000
   29       23.191927   0.000000
   30       23.850586   0.000000
   31       24.543164   0.000000
   32       24.984774   0.000000
 
 -0.1875000E+00  0.6250000E-01  0.6250000E-01  0.1953125E-02
    1       -1.763352   1.000000
    2       -1.550282   1.000000
    3        1.400853   1.000000
    4        1.406955   1.000000
    5        3.085576   1.000000
    6        3.206035   1.000000
    7        3.330062   1.000000
    8        3.392432   1.000000
    9        3.877013   1.000000
   10        4.563623   1.000000
   11        4.928525   1.000000
   12        4.950530   1.000000
   13        5.313880   1.001363
   14        5.353311   1.003087
   15        5.377920   1.004903
   16        5.775946   0.627711
   17        5.934647   0.062585
   18        7.041130  -0.000000
   19        7.087493  -0.000000
   20        7.524698  -0.000000
   21        7.551024  -0.000000
   22        8.077827  -0.000000
   23       12.461211   0.000000
   24       13.239279   0.000000
   25       16.359371   0.000000
   26       16.638097   0.000000
   27       16.964894   0.000000
   28       17.194181   0.000000
   29       22.554605   0.000000
   30       23.315603   0.000000
   31       24.007981   0.000000
   32       24.648322   0.000000
 
 -0.6250000E-01  0.6250000E-01  0.6250000E-01  0.1953125E-02
    1       -2.386424   1.000000
    2       -2.180639   1.000000
    3        1.146076   1.000000
    4        1.146406   1.000000
    5        2.901458   1.000000
    6        2.901558   1.000000
    7        3.403251   1.000000
    8        3.420656   1.000000
    9        3.616866   1.000000
   10        4.809288   1.000000
   11        4.812243   1.000000
   12        5.414158   1.009027
   13        5.430377   1.011527
   14        5.511243   1.028691
   15        5.650464   0.984829
   16        5.800982   0.523425
   17        5.822067   0.434435
   18        7.406104  -0.000000
   19        7.408614  -0.000000
   20        7.734711  -0.000000
   21        8.102988  -0.000000
   22        8.123620  -0.000000
   23       15.257808   0.000000
   24       15.312415   0.000000
   25       15.659462   0.000000
   26       15.773466   0.000000
   27       15.816484   0.000000
   28       16.127572   0.000000
   29       22.271675   0.000000
   30       22.277119   0.000000
   31       23.088647   0.000000
   32       23.093104   0.000000
 
  0.6250000E-01  0.1875000E+00  0.6250000E-01  0.1953125E-02
    1       -1.763352   1.000000
    2       -1.550283   1.000000
    3        1.400722   1.000000
    4        1.407080   1.000000
    5        3.085586   1.000000
    6        3.206002   1.000000
    7        3.323994   1.000000
    8        3.399841   1.000000
    9        3.875128   1.000000
   10        4.564794   1.000000
   11        4.928960   1.000000
   12        4.953522   1.000000
   13        5.306956   1.001169
   14        5.348083   1.002785
   15        5.383386   1.005405
   16        5.777319   0.622111
   17        5.935202   0.061457
   18        7.044936  -0.000000
   19        7.087250  -0.000000
   20        7.521108  -0.000000
   21        7.551107  -0.000000
   22        8.078505  -0.000000
   23       12.461095   0.000000
   24       13.239419   0.000000
   25       16.359492   0.000000
   26       16.637297   0.000000
   27       16.966217   0.000000
   28       17.193509   0.000000
   29       22.554608   0.000000
   30       23.315633   0.000000
   31       24.007919   0.000000
   32       24.648346   0.000000
 
  0.1875000E+00  0.1875000E+00  0.6250000E-01  0.1953125E-02
    1       -1.182957   1.000000
    2       -0.953056   1.000000
    3        1.567408   1.000000
    4        1.711189   1.000000
    5        3.098279   1.000000
    6        3.302689   1.000000
    7        3.319216   1.000000
    8        3.411051   1.000000
    9        4.288928   1.000000
   10        4.305305   1.000000
   11        4.641614   1.000000
   12        4.863680   1.000000
   13        5.044708   1.000001
   14        5.049567   1.000001
   15        5.238967   1.000225
   16        5.879320   0.213416
   17        6.283468  -0.001908
   18        6.387035  -0.000159
   19        7.166469  -0.000000
   20        7.168914  -0.000000
   21        7.473243  -0.000000
   22        8.195664  -0.000000
   23       12.592975   0.000000
   24       13.436570   0.000000
   25       14.181298   0.000000
   26       15.081198   0.000000
   27       17.403583   0.000000
   28       18.012325   0.000000
   29       23.436136   0.000000
   30       24.085311   0.000000
   31       24.575094   0.000000
   32       25.054808   0.000000
 
  0.3125000E+00  0.1875000E+00  0.6250000E-01  0.1953125E-02
    1       -0.170741   1.000000
    2        0.138679   1.000000
    3        1.746837   1.000000
    4        2.185361   1.000000
    5        2.970860   1.000000
    6        3.256748   1.000000
    7        3.296163   1.000000
    8        3.713716   1.000000
    9        3.900131   1.000000
   10        4.473298   1.000000
   11        4.590394   1.000000
   12        4.762132   1.000000
   13        4.876530   1.000000
   14        5.050308   1.000001
   15        5.118308   1.000006
   16        5.633342   1.005037
   17        5.809997   0.485293
   18        6.692635  -0.000000
   19        6.888024  -0.000000
   20        6.941245  -0.000000
   21        7.669945  -0.000000
   22        8.106964  -0.000000
   23        9.932854  -0.000000
   24       11.129129  -0.000000
   25       15.185448   0.000000
   26       16.148676   0.000000
   27       18.949307   0.000000
   28       19.618818   0.000000
   29       21.756515   0.000000
   30       22.427501   0.000000
   31       24.073506   0.000000
   32       24.623457   0.000000
 
  0.4375000E+00  0.1875000E+00  0.6250000E-01  0.1953125E-02
    1        0.902735   1.000000
    2        1.480572   1.000000
    3        1.590893   1.000000
    4        2.657628   1.000000
    5        2.669988   1.000000
    6        2.948701   1.000000
    7        3.219789   1.000000
    8        3.348760   1.000000
    9        4.369534   1.000000
   10        4.372395   1.000000
   11        4.449569   1.000000
   12        4.806558   1.000000
   13        4.995233   1.000000
   14        5.168381   1.000031
   15        5.223810   1.000150
   16        5.523115   1.031133
   17        5.743385   0.752961
   18        6.553650  -0.000001
   19        6.635167  -0.000000
   20        7.371858  -0.000000
   21        7.428132  -0.000000
   22        7.804873  -0.000000
   23        8.068617  -0.000000
   24        9.120640  -0.000000
   25       17.027497   0.000000
   26       17.953566   0.000000
   27       19.224994   0.000000
   28       20.047134   0.000000
   29       20.927904   0.000000
   30       21.601957   0.000000
   31       23.151699   0.000000
   32       23.727813   0.000000
 
 -0.4375000E+00  0.1875000E+00  0.6250000E-01  0.1953125E-02
    1        0.902704   1.000000
    2        1.480587   1.000000
    3        1.590966   1.000000
    4        2.657413   1.000000
    5        2.670291   1.000000
    6        2.948616   1.000000
    7        3.220882   1.000000
    8        3.347248   1.000000
    9        4.363410   1.000000
   10        4.376381   1.000000
   11        4.449766   1.000000
   12        4.809656   1.000000
   13        4.999934   1.000000
   14        5.167862   1.000030
   15        5.219980   1.000135
   16        5.523146   1.031139
   17        5.741469   0.759779
   18        6.554583  -0.000001
   19        6.634470  -0.000000
   20        7.371963  -0.000000
   21        7.428704  -0.000000
   22        7.804887  -0.000000
   23        8.068511  -0.000000
   24        9.120557  -0.000000
   25       17.027584   0.000000
   26       17.953442   0.000000
   27       19.224903   0.000000
   28       20.047259   0.000000
   29       20.927991   0.000000
   30       21.601911   0.000000
   31       23.151625   0.000000
   32       23.727850   0.000000
 
 -0.3125000E+00  0.1875000E+00  0.6250000E-01  0.1953125E-02
    1       -0.170748   1.000000
    2        0.138683   1.000000
    3        1.746897   1.000000
    4        2.185371   1.000000
    5        2.971393   1.000000
    6        3.256519   1.000000
    7        3.296163   1.000000
    8        3.713171   1.000000
    9        3.898706   1.000000
   10        4.465117   1.000000
   11        4.594556   1.000000
   12        4.772872   1.000000
   13        4.880642   1.000000
   14        5.047119   1.000001
   15        5.114764   1.000006
   16        5.630469   1.007828
   17        5.809515   0.487331
   18        6.693706  -0.000000
   19        6.879167  -0.000000
   20        6.950150  -0.000000
   21        7.669659  -0.000000
   22        8.106939  -0.000000
   23        9.932997  -0.000000
   24       11.129029  -0.000000
   25       15.185499   0.000000
   26       16.148613   0.000000
   27       18.949331   0.000000
   28       19.618811   0.000000
   29       21.756442   0.000000
   30       22.427591   0.000000
   31       24.073483   0.000000
   32       24.623491   0.000000
 
 -0.1875000E+00  0.1875000E+00  0.6250000E-01  0.1953125E-02
    1       -1.182959   1.000000
    2       -0.953055   1.000000
    3        1.567467   1.000000
    4        1.711139   1.000000
    5        3.099332   1.000000
    6        3.301406   1.000000
    7        3.319344   1.000000
    8        3.411032   1.000000
    9        4.289251   1.000000
   10        4.303674   1.000000
   11        4.640123   1.000000
   12        4.864046   1.000000
   13        5.046776   1.000001
   14        5.052592   1.000001
   15        5.238448   1.000222
   16        5.879976   0.211206
   17        6.279967  -0.002053
   18        6.385932  -0.000164
   19        7.167554  -0.000000
   20        7.170267  -0.000000
   21        7.472746  -0.000000
   22        8.195634  -0.000000
   23       12.593253   0.000000
   24       13.436148   0.000000
   25       14.181362   0.000000
   26       15.081328   0.000000
   27       17.403479   0.000000
   28       18.012390   0.000000
   29       23.436132   0.000000
   30       24.085311   0.000000
   31       24.575050   0.000000
   32       25.054767   0.000000
 
 -0.6250000E-01  0.1875000E+00  0.6250000E-01  0.1953125E-02
    1       -1.763352   1.000000
    2       -1.550283   1.000000
    3        1.401082   1.000000
    4        1.406720   1.000000
    5        3.085599   1.000000
    6        3.206012   1.000000
    7        3.327095   1.000000
    8        3.396046   1.000000
    9        3.876093   1.000000
   10        4.564412   1.000000
   11        4.928182   1.000000
   12        4.951981   1.000000
   13        5.307864   1.001193
   14        5.350431   1.002917
   15        5.384194   1.005483
   16        5.777148   0.622810
   17        5.934206   0.063486
   18        7.042547  -0.000000
   19        7.087500  -0.000000
   20        7.523141  -0.000000
   21        7.551027  -0.000000
   22        8.078199  -0.000000
   23       12.461189   0.000000
   24       13.239306   0.000000
   25       16.359566   0.000000
   26       16.637554   0.000000
   27       16.965522   0.000000
   28       17.193896   0.000000
   29       22.554616   0.000000
   30       23.315604   0.000000
   31       24.007944   0.000000
   32       24.648343   0.000000
 
  0.6250000E-01  0.3125000E+00  0.6250000E-01  0.1953125E-02
    1       -0.629947   1.000000
    2       -0.376326   1.000000
    3        1.698404   1.000000
    4        1.890038   1.000000
    5        3.129459   1.000000
    6        3.353443   1.000000
    7        3.373947   1.000000
    8        3.772692   1.000000
    9        4.144880   1.000000
   10        4.245931   1.000000
   11        4.331958   1.000000
   12        4.724311   1.000000
   13        5.143230   1.000014
   14        5.311462   1.001292
   15        5.337836   1.002265
   16        5.507818   1.027940
   17        6.328891  -0.000692
   18        6.336823  -0.000573
   19        6.529784  -0.000002
   20        6.783300  -0.000000
   21        7.769754  -0.000000
   22        7.778542  -0.000000
   23        9.395873  -0.000000
   24       10.611980  -0.000000
   25       18.117812   0.000000
   26       18.412732   0.000000
   27       18.849499   0.000000
   28       19.074027   0.000000
   29       23.191995   0.000000
   30       23.850507   0.000000
   31       24.543416   0.000000
   32       24.984611   0.000000
 
  0.1875000E+00  0.3125000E+00  0.6250000E-01  0.1953125E-02
    1       -0.170741   1.000000
    2        0.138679   1.000000
    3        1.746838   1.000000
    4        2.185361   1.000000
    5        2.970860   1.000000
    6        3.256748   1.000000
    7        3.296162   1.000000
    8        3.713716   1.000000
    9        3.900131   1.000000
   10        4.473299   1.000000
   11        4.590394   1.000000
   12        4.762132   1.000000
   13        4.876530   1.000000
   14        5.050308   1.000001
   15        5.118308   1.000006
   16        5.633342   1.005038
   17        5.809997   0.485293
   18        6.692634  -0.000000
   19        6.888024  -0.000000
   20        6.941245  -0.000000
   21        7.669945  -0.000000
   22        8.106964  -0.000000
   23        9.932852  -0.000000
   24       11.129130  -0.000000
   25       15.185449   0.000000
   26       16.148675   0.000000
   27       18.949308   0.000000
   28       19.618818   0.000000
   29       21.756515   0.000000
   30       22.427501   0.000000
   31       24.073507   0.000000
   32       24.623623   0.000000
 
  0.3125000E+00  0.3125000E+00  0.6250000E-01  0.1953125E-02
    1        0.481908   1.000000
    2        1.007351   1.000000
    3        1.582281   1.000000
    4        2.688717   1.000000
    5        2.826652   1.000000
    6        3.097459   1.000000
    7        3.164144   1.000000
    8        3.520325   1.000000
    9        4.418402   1.000000
   10        4.485468   1.000000
   11        4.534432   1.000000
   12        4.723312   1.000000
   13        4.946284   1.000000
   14        5.032510   1.000000
   15        5.037957   1.000000
   16        5.378952   1.004994
   17        5.964299   0.012849
   18        6.691961  -0.000000
   19        7.189076  -0.000000
   20        7.541101  -0.000000
   21        7.591123  -0.000000
   22        8.292603  -0.000000
   23        9.735653  -0.000000
   24       10.869989  -0.000000
   25       13.422406   0.000000
   26       14.676459   0.000000
   27       18.789465   0.000000
   28       19.640107   0.000000
   29       20.171198   0.000000
   30       20.820490   0.000000
   31       24.567250   0.000000
   32       25.013743   0.000000
 
  0.4375000E+00  0.3125000E+00  0.6250000E-01  0.1953125E-02
    1        0.970852   1.000000
    2        1.304876   1.000000
    3        1.910830   1.000000
    4        2.607311   1.000000
    5        2.613253   1.000000
    6        2.773125   1.000000
    7        3.490334   1.000000
    8        3.858495   1.000000
    9        4.438417   1.000000
   10        4.546827   1.000000
   11        4.653875   1.000000
   12        4.747516   1.000000
   13        5.014415   1.000000
   14        5.168327   1.000031
   15        5.319908   1.001553
   16        5.834667   0.382201
   17        6.090251  -0.031070
   18        6.935466  -0.000000
   19        7.131183  -0.000000
   20        7.756284  -0.000000
   21        7.773514  -0.000000
   22        8.150372  -0.000000
   23        8.195241  -0.000000
   24        9.287136  -0.000000
   25       14.312385   0.000000
   26       15.507962   0.000000
   27       16.263803   0.000000
   28       17.290967   0.000000
   29       21.806444   0.000000
   30       22.381055   0.000000
   31       23.647239   0.000000
   32       24.043494   0.000000
 
 -0.4375000E+00  0.3125000E+00  0.6250000E-01  0.1953125E-02
    1        0.970790   1.000000
    2        1.304957   1.000000
    3        1.910880   1.000000
    4        2.607255   1.000000
    5        2.613630   1.000000
    6        2.772773   1.000000
    7        3.489547   1.000000
    8        3.859063   1.000000
    9        4.432539   1.000000
   10        4.568306   1.000000
   11        4.634399   1.000000
   12        4.752042   1.000000
   13        5.013433   1.000000
   14        5.166511   1.000029
   15        5.323785   1.001688
   16        5.833772   0.385866
   17        6.088791  -0.031350
   18        6.936791  -0.000000
   19        7.130212  -0.000000
   20        7.756557  -0.000000
   21        7.774846  -0.000000
   22        8.149640  -0.000000
   23        8.194701  -0.000000
   24        9.287256  -0.000000
   25       14.312428   0.000000
   26       15.507921   0.000000
   27       16.263773   0.000000
   28       17.291000   0.000000
   29       21.806388   0.000000
   30       22.381121   0.000000
   31       23.647343   0.000000
   32       24.043369   0.000000
 
 -0.3125000E+00  0.3125000E+00  0.6250000E-01  0.1953125E-02
    1        0.481878   1.000000
    2        1.007367   1.000000
    3        1.582365   1.000000
    4        2.689182   1.000000
    5        2.826875   1.000000
    6        3.098673   1.000000
    7        3.161455   1.000000
    8        3.519957   1.000000
    9        4.419323   1.000000
   10        4.489741   1.000000
   11        4.525259   1.000000
   12        4.735093   1.000000
   13        4.941151   1.000000
   14        5.027968   1.000000
   15        5.043441   1.000000
   16        5.376017   1.004737
   17        5.963937   0.013331
   18        6.692905  -0.000000
   19        7.187788  -0.000000
   20        7.548374  -0.000000
   21        7.585030  -0.000000
   22        8.292537  -0.000000
   23        9.735645  -0.000000
   24       10.869985  -0.000000
   25       13.422451   0.000000
   26       14.676424   0.000000
   27       18.789436   0.000000
   28       19.640139   0.000000
   29       20.171157   0.000000
   30       20.820532   0.000000
   31       24.566528   0.000000
   32       25.019406   0.000000
 
 -0.1875000E+00  0.3125000E+00  0.6250000E-01  0.1953125E-02
    1       -0.170750   1.000000
    2        0.138683   1.000000
    3        1.746931   1.000000
    4        2.185251   1.000000
    5        2.971581   1.000000
    6        3.256084   1.000000
    7        3.296451   1.000000
    8        3.712225   1.000000
    9        3.900290   1.000000
   10        4.468643   1.000000
   11        4.592917   1.000000
   12        4.768322   1.000000
   13        4.881878   1.000000
   14        5.037698   1.000000
   15        5.124233   1.000008
   16        5.632344   1.006025
   17        5.808690   0.490819
   18        6.693421  -0.000000
   19        6.883359  -0.000000
   20        6.945704  -0.000000
   21        7.669900  -0.000000
   22        8.106989  -0.000000
   23        9.932959  -0.000000
   24       11.129050  -0.000000
   25       15.185484   0.000000
   26       16.148639   0.000000
   27       18.949295   0.000000
   28       19.618835   0.000000
   29       21.756482   0.000000
   30       22.427536   0.000000
   31       24.073499   0.000000
   32       24.623488   0.000000
 
 -0.6250000E-01  0.3125000E+00  0.6250000E-01  0.1953125E-02
    1       -0.629949   1.000000
    2       -0.376324   1.000000
    3        1.698458   1.000000
    4        1.889972   1.000000
    5        3.129485   1.000000
    6        3.356330   1.000000
    7        3.371271   1.000000
    8        3.772855   1.000000
    9        4.141279   1.000000
   10        4.249443   1.000000
   11        4.330617   1.000000
   12        4.725667   1.000000
   13        5.142957   1.000014
   14        5.305104   1.001122
   15        5.344834   1.002610
   16        5.508676   1.028129
   17        6.326471  -0.000733
   18        6.335280  -0.000595
   19        6.530835  -0.000002
   20        6.784574  -0.000000
   21        7.769844  -0.000000
   22        7.778545  -0.000000
   23        9.395928  -0.000000
   24       10.611929  -0.000000
   25       18.119496   0.000000
   26       18.408927   0.000000
   27       18.853606   0.000000
   28       19.072049   0.000000
   29       23.191968   0.000000
   30       23.850537   0.000000
   31       24.543878   0.000000
   32       24.983335   0.000000
 
  0.6250000E-01  0.4375000E+00  0.6250000E-01  0.1953125E-02
    1        0.694767   1.000000
    2        1.123027   1.000000
    3        1.588881   1.000000
    4        2.487333   1.000000
    5        2.515562   1.000000
    6        3.122156   1.000000
    7        3.545743   1.000000
    8        3.860755   1.000000
    9        3.927258   1.000000
   10        4.189963   1.000000
   11        4.508548   1.000000
   12        4.671374   1.000000
   13        5.111664   1.000005
   14        5.155452   1.000021
   15        5.457010   1.016526
   16        5.664076   0.964067
   17        5.814055   0.468143
   18        6.057727  -0.035313
   19        6.214010  -0.007070
   20        6.828821  -0.000000
   21        6.983232  -0.000000
   22        7.328020  -0.000000
   23        8.097458  -0.000000
   24        8.857015  -0.000000
   25       20.196815   0.000000
   26       20.637964   0.000000
   27       20.964911   0.000000
   28       21.337085   0.000000
   29       22.332694   0.000000
   30       22.974116   0.000000
   31       23.174628   0.000000
   32       23.821884   0.000000
 
  0.1875000E+00  0.4375000E+00  0.6250000E-01  0.1953125E-02
    1        0.902736   1.000000
    2        1.480571   1.000000
    3        1.590893   1.000000
    4        2.657628   1.000000
    5        2.669988   1.000000
    6        2.948700   1.000000
    7        3.219789   1.000000
    8        3.348760   1.000000
    9        4.369534   1.000000
   10        4.372396   1.000000
   11        4.449569   1.000000
   12        4.806559   1.000000
   13        4.995233   1.000000
   14        5.168381   1.000031
   15        5.223810   1.000150
   16        5.523115   1.031133
   17        5.743385   0.752963
   18        6.553650  -0.000001
   19        6.635167  -0.000000
   20        7.371857  -0.000000
   21        7.428132  -0.000000
   22        7.804873  -0.000000
   23        8.068617  -0.000000
   24        9.120641  -0.000000
   25       17.027497   0.000000
   26       17.953566   0.000000
   27       19.224994   0.000000
   28       20.047134   0.000000
   29       20.927904   0.000000
   30       21.601957   0.000000
   31       23.151700   0.000000
   32       23.727814   0.000000
 
  0.3125000E+00  0.4375000E+00  0.6250000E-01  0.1953125E-02
    1        0.970852   1.000000
    2        1.304876   1.000000
    3        1.910830   1.000000
    4        2.607311   1.000000
    5        2.613253   1.000000
    6        2.773125   1.000000
    7        3.490335   1.000000
    8        3.858496   1.000000
    9        4.438417   1.000000
   10        4.546828   1.000000
   11        4.653876   1.000000
   12        4.747516   1.000000
   13        5.014414   1.000000
   14        5.168327   1.000031
   15        5.319908   1.001553
   16        5.834667   0.382201
   17        6.090251  -0.031070
   18        6.935466  -0.000000
   19        7.131183  -0.000000