   1   1   0   0
  0.1408159E+02  0.2710538E-09  0.2710538E-09  0.2710538E-09  0.5000000E-15
  1.000000000000000E-004
  CAR 
 unknown system                          
     38.38864716     -6.28199717  301     10.21333189      1.00000000
     -6.282  0.0000E+00  0.0000E+00
     -6.133  0.0000E+00  0.0000E+00
     -5.984  0.0000E+00  0.0000E+00
     -5.835  0.0000E+00  0.0000E+00
     -5.686  0.0000E+00  0.0000E+00
     -5.537  0.0000E+00  0.0000E+00
     -5.389  0.0000E+00  0.0000E+00
     -5.240  0.0000E+00  0.0000E+00
     -5.091  0.0000E+00  0.0000E+00
     -4.942  0.0000E+00  0.0000E+00
     -4.793  0.0000E+00  0.0000E+00
     -4.644  0.0000E+00  0.0000E+00
     -4.495  0.1270E-15  0.1891E-16
     -4.346  0.1703E-06  0.2536E-07
     -4.197  0.1073E-03  0.1600E-04
     -4.048  0.3916E-03  0.7430E-04
     -3.900  0.5368E-03  0.1542E-03
     -3.751  0.7165E-03  0.2609E-03
     -3.602  0.8204E-03  0.3831E-03
     -3.453  0.9300E-03  0.5216E-03
     -3.304  0.8894E-03  0.6540E-03
     -3.155  0.1146E-02  0.8246E-03
     -3.006  0.9833E-03  0.9710E-03
     -2.857  0.1373E-02  0.1175E-02
     -2.708  0.1248E-02  0.1361E-02
     -2.559  0.1356E-02  0.1563E-02
     -2.411  0.1376E-02  0.1768E-02
     -2.262  0.1476E-02  0.1988E-02
     -2.113  0.1307E-02  0.2182E-02
     -1.964  0.1843E-02  0.2457E-02
     -1.815  0.1551E-02  0.2688E-02
     -1.666  0.1667E-02  0.2936E-02
     -1.517  0.1690E-02  0.3188E-02
     -1.368  0.1772E-02  0.3452E-02
     -1.219  0.1781E-02  0.3717E-02
     -1.070  0.1995E-02  0.4014E-02
     -0.922  0.1596E-02  0.4252E-02
     -0.773  0.2433E-02  0.4614E-02
     -0.624  0.1933E-02  0.4902E-02
     -0.475  0.1727E-02  0.5159E-02
     -0.326  0.2148E-02  0.5479E-02
     -0.177  0.2274E-02  0.5817E-02
     -0.028  0.2168E-02  0.6140E-02
      0.121  0.2354E-02  0.6491E-02
      0.270  0.2118E-02  0.6806E-02
      0.419  0.2121E-02  0.7122E-02
      0.568  0.2299E-02  0.7464E-02
      0.716  0.2731E-02  0.7871E-02
      0.865  0.2247E-02  0.8205E-02
      1.014  0.2397E-02  0.8562E-02
      1.163  0.2338E-02  0.8910E-02
      1.312  0.2979E-02  0.9354E-02
      1.461  0.2452E-02  0.9719E-02
      1.610  0.2262E-02  0.1006E-01
      1.759  0.2879E-02  0.1048E-01
      1.908  0.2658E-02  0.1088E-01
      2.057  0.2618E-02  0.1127E-01
      2.205  0.3003E-02  0.1172E-01
      2.354  0.2904E-02  0.1215E-01
      2.503  0.2832E-02  0.1257E-01
      2.652  0.3120E-02  0.1304E-01
      2.801  0.2053E-02  0.1334E-01
      2.950  0.3647E-02  0.1388E-01
      3.099  0.2822E-02  0.1431E-01
      3.248  0.3075E-02  0.1476E-01
      3.397  0.2555E-02  0.1514E-01
      3.546  0.2613E-02  0.1553E-01
      3.694  0.2893E-02  0.1596E-01
      3.843  0.3439E-02  0.1648E-01
      3.992  0.3010E-02  0.1692E-01
      4.141  0.2972E-02  0.1737E-01
      4.290  0.3470E-02  0.1788E-01
      4.439  0.2955E-02  0.1832E-01
      4.588  0.3511E-02  0.1885E-01
      4.737  0.3073E-02  0.1930E-01
      4.886  0.3104E-02  0.1977E-01
      5.035  0.4317E-02  0.2041E-01
      5.183  0.3091E-02  0.2087E-01
      5.332  0.3091E-02  0.2133E-01
      5.481  0.3434E-02  0.2184E-01
      5.630  0.3096E-02  0.2230E-01
      5.779  0.3236E-02  0.2278E-01
      5.928  0.3827E-02  0.2335E-01
      6.077  0.2751E-02  0.2376E-01
      6.226  0.4464E-02  0.2443E-01
      6.375  0.3408E-02  0.2493E-01
      6.524  0.3243E-02  0.2542E-01
      6.672  0.4457E-02  0.2608E-01
      6.821  0.3591E-02  0.2662E-01
      6.970  0.2855E-02  0.2704E-01
      7.119  0.3853E-02  0.2761E-01
      7.268  0.3419E-02  0.2812E-01
      7.417  0.3566E-02  0.2865E-01
      7.566  0.5070E-02  0.2941E-01
      7.715  0.2696E-02  0.2981E-01
      7.864  0.4234E-02  0.3044E-01
      8.013  0.2335E-02  0.3079E-01
      8.162  0.4751E-02  0.3150E-01
      8.310  0.4085E-02  0.3210E-01
      8.459  0.5197E-02  0.3288E-01
      8.608  0.3648E-02  0.3342E-01
      8.757  0.3004E-02  0.3387E-01
      8.906  0.3764E-02  0.3443E-01
      9.055  0.4039E-02  0.3503E-01
      9.204  0.4351E-02  0.3568E-01
      9.353  0.4527E-02  0.3635E-01
      9.502  0.4111E-02  0.3696E-01
      9.651  0.3739E-02  0.3752E-01
      9.799  0.4433E-02  0.3818E-01
      9.948  0.4296E-02  0.3882E-01
     10.097  0.3618E-02  0.3936E-01
     10.246  0.5317E-02  0.4015E-01
     10.395  0.3241E-02  0.4063E-01
     10.544  0.4476E-02  0.4130E-01
     10.693  0.5047E-02  0.4205E-01
     10.842  0.4095E-02  0.4266E-01
     10.991  0.4970E-02  0.4340E-01
     11.140  0.3829E-02  0.4397E-01
     11.288  0.4802E-02  0.4469E-01
     11.437  0.4698E-02  0.4539E-01
     11.586  0.3767E-02  0.4595E-01
     11.735  0.5547E-02  0.4677E-01
     11.884  0.4316E-02  0.4742E-01
     12.033  0.4522E-02  0.4809E-01
     12.182  0.5432E-02  0.4890E-01
     12.331  0.4072E-02  0.4951E-01
     12.480  0.5019E-02  0.5025E-01
     12.629  0.5349E-02  0.5105E-01
     12.777  0.4459E-02  0.5171E-01
     12.926  0.4579E-02  0.5239E-01
     13.075  0.6286E-02  0.5333E-01
     13.224  0.4679E-02  0.5403E-01
     13.373  0.5947E-02  0.5491E-01
     13.522  0.5117E-02  0.5567E-01
     13.671  0.6055E-02  0.5658E-01
     13.820  0.5203E-02  0.5735E-01
     13.969  0.5601E-02  0.5819E-01
     14.118  0.5583E-02  0.5902E-01
     14.266  0.4821E-02  0.5973E-01
     14.415  0.6043E-02  0.6063E-01
     14.564  0.3752E-02  0.6119E-01
     14.713  0.5546E-02  0.6202E-01
     14.862  0.5406E-02  0.6282E-01
     15.011  0.4826E-02  0.6354E-01
     15.160  0.4477E-02  0.6421E-01
     15.309  0.5282E-02  0.6500E-01
     15.458  0.3599E-02  0.6553E-01
     15.607  0.5143E-02  0.6630E-01
     15.756  0.4427E-02  0.6696E-01
     15.904  0.5582E-02  0.6779E-01
     16.053  0.3847E-02  0.6836E-01
     16.202  0.4683E-02  0.6906E-01
     16.351  0.4770E-02  0.6977E-01
     16.500  0.4664E-02  0.7046E-01
     16.649  0.4776E-02  0.7117E-01
     16.798  0.5116E-02  0.7194E-01
     16.947  0.3931E-02  0.7252E-01
     17.096  0.4725E-02  0.7322E-01
     17.245  0.5557E-02  0.7405E-01
     17.393  0.5888E-02  0.7493E-01
     17.542  0.3860E-02  0.7550E-01
     17.691  0.4391E-02  0.7616E-01
     17.840  0.6070E-02  0.7706E-01
     17.989  0.5301E-02  0.7785E-01
     18.138  0.4525E-02  0.7852E-01
     18.287  0.5884E-02  0.7940E-01
     18.436  0.5921E-02  0.8028E-01
     18.585  0.4301E-02  0.8092E-01
     18.734  0.5191E-02  0.8170E-01
     18.882  0.5380E-02  0.8250E-01
     19.031  0.4983E-02  0.8324E-01
     19.180  0.6187E-02  0.8416E-01
     19.329  0.6087E-02  0.8507E-01
     19.478  0.4853E-02  0.8579E-01
     19.627  0.4378E-02  0.8644E-01
     19.776  0.6176E-02  0.8736E-01
     19.925  0.5524E-02  0.8818E-01
     20.074  0.5140E-02  0.8895E-01
     20.223  0.5442E-02  0.8976E-01
     20.371  0.6646E-02  0.9075E-01
     20.520  0.3656E-02  0.9129E-01
     20.669  0.7226E-02  0.9237E-01
     20.818  0.5874E-02  0.9324E-01
     20.967  0.6020E-02  0.9414E-01
     21.116  0.6266E-02  0.9507E-01
     21.265  0.6091E-02  0.9598E-01
     21.414  0.6810E-02  0.9699E-01
     21.563  0.5414E-02  0.9780E-01
     21.712  0.5667E-02  0.9864E-01
     21.861  0.5720E-02  0.9949E-01
     22.009  0.6068E-02  0.1004E+00
     22.158  0.6534E-02  0.1014E+00
     22.307  0.3446E-02  0.1019E+00
     22.456  0.6312E-02  0.1028E+00
     22.605  0.5724E-02  0.1037E+00
     22.754  0.6118E-02  0.1046E+00
     22.903  0.5617E-02  0.1054E+00
     23.052  0.5834E-02  0.1063E+00
     23.201  0.5672E-02  0.1071E+00
     23.350  0.5391E-02  0.1079E+00
     23.498  0.7001E-02  0.1090E+00
     23.647  0.6715E-02  0.1100E+00
     23.796  0.5417E-02  0.1108E+00
     23.945  0.9936E-02  0.1123E+00
     24.094  0.6256E-02  0.1132E+00
     24.243  0.5291E-02  0.1140E+00
     24.392  0.6635E-02  0.1150E+00
     24.541  0.6045E-02  0.1159E+00
     24.690  0.6686E-02  0.1169E+00
     24.839  0.6807E-02  0.1179E+00
     24.987  0.5953E-02  0.1188E+00
     25.136  0.6596E-02  0.1198E+00
     25.285  0.5838E-02  0.1206E+00
     25.434  0.5651E-02  0.1215E+00
     25.583  0.5892E-02  0.1223E+00
     25.732  0.7564E-02  0.1235E+00
     25.881  0.6617E-02  0.1245E+00
     26.030  0.7896E-02  0.1256E+00
     26.179  0.7449E-02  0.1267E+00
     26.328  0.5256E-02  0.1275E+00
     26.476  0.5005E-02  0.1283E+00
     26.625  0.6359E-02  0.1292E+00
     26.774  0.8711E-02  0.1305E+00
     26.923  0.6617E-02  0.1315E+00
     27.072  0.3872E-02  0.1321E+00
     27.221  0.5879E-02  0.1329E+00
     27.370  0.6420E-02  0.1339E+00
     27.519  0.6702E-02  0.1349E+00
     27.668  0.6918E-02  0.1359E+00
     27.817  0.4218E-02  0.1366E+00
     27.965  0.4635E-02  0.1372E+00
     28.114  0.6787E-02  0.1383E+00
     28.263  0.6052E-02  0.1392E+00
     28.412  0.5278E-02  0.1399E+00
     28.561  0.4555E-02  0.1406E+00
     28.710  0.5782E-02  0.1415E+00
     28.859  0.5173E-02  0.1423E+00
     29.008  0.4686E-02  0.1430E+00
     29.157  0.5271E-02  0.1437E+00
     29.306  0.4530E-02  0.1444E+00
     29.455  0.5100E-02  0.1452E+00
     29.603  0.5523E-02  0.1460E+00
     29.752  0.2393E-02  0.1464E+00
     29.901  0.8510E-02  0.1476E+00
     30.050  0.5538E-02  0.1484E+00
     30.199  0.4826E-02  0.1492E+00
     30.348  0.5386E-02  0.1500E+00
     30.497  0.4103E-02  0.1506E+00
     30.646  0.5199E-02  0.1513E+00
     30.795  0.4379E-02  0.1520E+00
     30.944  0.2272E-02  0.1523E+00
     31.092  0.4416E-02  0.1530E+00
     31.241  0.2741E-02  0.1534E+00
     31.390  0.3665E-02  0.1540E+00
     31.539  0.2537E-02  0.1543E+00
     31.688  0.1790E-02  0.1546E+00
     31.837  0.3197E-02  0.1551E+00
     31.986  0.2463E-02  0.1554E+00
     32.135  0.1846E-02  0.1557E+00
     32.284  0.1909E-02  0.1560E+00
     32.433  0.2302E-02  0.1563E+00
     32.581  0.2515E-02  0.1567E+00
     32.730  0.1635E-02  0.1570E+00
     32.879  0.1825E-02  0.1572E+00
     33.028  0.1274E-02  0.1574E+00
     33.177  0.2054E-02  0.1577E+00
     33.326  0.8642E-03  0.1579E+00
     33.475  0.1187E-02  0.1580E+00
     33.624  0.2819E-02  0.1585E+00
     33.773  0.8432E-03  0.1586E+00
     33.922  0.8085E-03  0.1587E+00
     34.070  0.9574E-03  0.1588E+00
     34.219  0.1699E-02  0.1591E+00
     34.368  0.5148E-03  0.1592E+00
     34.517  0.6750E-03  0.1593E+00
     34.666  0.7229E-03  0.1594E+00
     34.815  0.1013E-02  0.1595E+00
     34.964  0.7192E-03  0.1596E+00
     35.113  0.6790E-03  0.1597E+00
     35.262  0.2516E-03  0.1598E+00
     35.411  0.5758E-05  0.1598E+00
     35.560  0.3918E-03  0.1598E+00
     35.708  0.2574E-03  0.1599E+00
     35.857  0.5870E-03  0.1600E+00
     36.006  0.2000E-05  0.1600E+00
     36.155  0.1196E-03  0.1600E+00
     36.304  0.2718E-04  0.1600E+00
     36.453  0.1290E-03  0.1600E+00
     36.602  0.5085E-06  0.1600E+00
     36.751  0.3809E-15  0.1600E+00
     36.900  0.0000E+00  0.1600E+00
     37.049  0.0000E+00  0.1600E+00
     37.197  0.0000E+00  0.1600E+00
     37.346  0.0000E+00  0.1600E+00
     37.495  0.0000E+00  0.1600E+00
     37.644  0.0000E+00  0.1600E+00
     37.793  0.0000E+00  0.1600E+00
     37.942  0.0000E+00  0.1600E+00
     38.091  0.0000E+00  0.1600E+00
     38.240  0.0000E+00  0.1600E+00
     38.389  0.0000E+00  0.1600E+00
