    1    1  100    1
  0.1408159E+02  0.2710538E-09  0.2710538E-09  0.2710538E-09  0.5000000E-15
  1.000000000000000E-004
  CAR 
 unknown system                          
      4    570      8
 
  0.2777778E-01  0.2777778E-01  0.2777778E-01  0.3429355E-03
    1       -4.251513   1.000000
    2       20.725514   0.000000
    3       21.185110   0.000000
    4       21.185117   0.000000
    5       22.391922   0.000000
    6       22.391930   0.000000
    7       22.619695   0.000000
    8       27.683374   0.000000
 
  0.8333333E-01  0.2777778E-01  0.2777778E-01  0.1028807E-02
    1       -4.131422   1.000000
    2       19.297419   0.000000
    3       20.004472   0.000000
    4       21.235811   0.000000
    5       22.487661   0.000000
    6       23.174036   0.000000
    7       23.586383   0.000000
    8       28.067153   0.000000
 
  0.1388889E+00  0.2777778E-01  0.2777778E-01  0.1028807E-02
    1       -3.831573   1.000000
    2       16.957518   0.000000
    3       19.349783   0.000000
    4       20.638917   0.000000
    5       23.378863   0.000000
    6       23.558132   0.000000
    7       24.446092   0.000000
    8       27.052751   0.000000
 
  0.1944444E+00  0.2777778E-01  0.2777778E-01  0.1028807E-02
    1       -3.352775   1.000000
    2       14.584155   0.000000
    3       18.828728   0.000000
    4       20.107869   0.000000
    5       23.586349   0.000000
    6       23.927047   0.000000
    7       24.873666   0.000000
    8       26.566088   0.000000
 
  0.2500000E+00  0.2777778E-01  0.2777778E-01  0.1028807E-02
    1       -2.696401   1.000000
    2       12.276709   0.000000
    3       18.451321   0.000000
    4       19.695747   0.000000
    5       23.483589   0.000000
    6       23.513992   0.000000
    7       24.344117   0.000000
    8       27.319368   0.000000
 
  0.3055556E+00  0.2777778E-01  0.2777778E-01  0.1028807E-02
    1       -1.864409   1.000000
    2       10.077685   0.999938
    3       18.218804   0.000000
    4       19.398944   0.000000
    5       22.664134   0.000000
    6       23.417257   0.000000
    7       23.506391   0.000000
    8       28.473417   0.000000
 
  0.3611111E+00  0.2777778E-01  0.2777778E-01  0.1028807E-02
    1       -0.859605   1.000000
    2        8.009557   1.000000
    3       18.126974   0.000000
    4       19.190889   0.000000
    5       21.918032   0.000000
    6       22.600190   0.000000
    7       23.478913   0.000000
    8       27.612245   0.000000
 
  0.4166667E+00  0.2777778E-01  0.2777778E-01  0.1028807E-02
    1        0.313431   1.000000
    2        6.087195   1.000000
    3       18.165434   0.000000
    4       19.019159   0.000000
    5       21.393209   0.000000
    6       21.872082   0.000000
    7       23.556351   0.000000
    8       26.877044   0.000000
 
  0.4722222E+00  0.2777778E-01  0.2777778E-01  0.1028807E-02
    1        1.639864   1.000000
    2        4.330434   1.000000
    3       18.312479   0.000000
    4       18.824534   0.000000
    5       21.183247   0.000000
    6       21.323341   0.000000
    7       23.653601   0.000000
    8       26.388222   0.000000
 
 -0.4722222E+00  0.2777778E-01  0.2777778E-01  0.1028807E-02
    1        2.514703   1.000000
    2        3.348092   1.000000
    3       18.525523   0.000000
    4       18.601403   0.000000
    5       21.010930   0.000000
    6       21.302500   0.000000
    7       23.698241   0.000000
    8       26.248259   0.000000
 
 -0.4166667E+00  0.2777778E-01  0.2777778E-01  0.1028807E-02
    1        1.183196   1.000000
    2        4.894663   1.000000
    3       18.405635   0.000000
    4       18.738633   0.000000
    5       20.997982   0.000000
    6       21.694030   0.000000
    7       23.645317   0.000000
    8       26.499721   0.000000
 
 -0.3611111E+00  0.2777778E-01  0.2777778E-01  0.1028807E-02
    1       -0.095802   1.000000
    2        6.710935   1.000000
    3       18.294006   0.000000
    4       18.910332   0.000000
    5       21.328406   0.000000
    6       22.300967   0.000000
    7       23.562138   0.000000
    8       27.074234   0.000000
 
 -0.3055556E+00  0.2777778E-01  0.2777778E-01  0.1028807E-02
    1       -1.213531   1.000000
    2        8.683392   1.000000
    3       18.299610   0.000000
    4       19.075318   0.000000
    5       21.948071   0.000000
    6       23.067324   0.000000
    7       23.515755   0.000000
    8       27.859608   0.000000
 
 -0.2500000E+00  0.2777778E-01  0.2777778E-01  0.1028807E-02
    1       -2.161103   1.000000
    2       10.796984   0.000000
    3       18.439349   0.000000
    4       19.299234   0.000000
    5       22.734357   0.000000
    6       23.554550   0.000000
    7       23.932606   0.000000
    8       28.018354   0.000000
 
 -0.1944444E+00  0.2777778E-01  0.2777778E-01  0.1028807E-02
    1       -2.934800   1.000000
    2       13.035413   0.000000
    3       18.721714   0.000000
    4       19.625463   0.000000
    5       23.361264   0.000000
    6       23.803302   0.000000
    7       24.733405   0.000000
    8       26.808600   0.000000
 
 -0.1388889E+00  0.2777778E-01  0.2777778E-01  0.1028807E-02
    1       -3.532177   1.000000
    2       15.371277   0.000000
    3       19.149077   0.000000
    4       20.071876   0.000000
    5       23.402871   0.000000
    6       24.014929   0.000000
    7       24.910484   0.000000
    8       26.435001   0.000000
 
 -0.8333333E-01  0.2777778E-01  0.2777778E-01  0.1028807E-02
    1       -3.951467   1.000000
    2       17.748810   0.000000
    3       19.720960   0.000000
    4       20.633946   0.000000
    5       22.834333   0.000000
    6       23.773370   0.000000
    7       24.181426   0.000000
    8       27.212589   0.000000
 
 -0.2777778E-01  0.2777778E-01  0.2777778E-01  0.1028807E-02
    1       -4.191462   1.000000
    2       20.009982   0.000000
    3       20.425038   0.000000
    4       21.209823   0.000000
    5       22.042780   0.000000
    6       23.223969   0.000000
    7       23.231367   0.000000
    8       28.159069   0.000000
 
  0.8333333E-01  0.8333333E-01  0.2777778E-01  0.1028807E-02
    1       -4.071416   1.000000
    2       19.247414   0.000000
    3       19.634081   0.000000
    4       20.959036   0.000000
    5       21.489093   0.000000
    6       24.092602   0.000000
    7       24.158150   0.000000
    8       27.163789   0.000000
 
  0.1388889E+00  0.8333333E-01  0.2777778E-01  0.2057613E-02
    1       -3.831548   1.000000
    2       17.786001   0.000000
    3       18.559131   0.000000
    4       20.790876   0.000000
    5       21.581343   0.000000
    6       24.743691   0.000000
    7       25.114670   0.000000
    8       25.910343   0.000000
 
  0.1944444E+00  0.8333333E-01  0.2777778E-01  0.2057613E-02
    1       -3.412503   1.000000
    2       15.456326   0.000000
    3       17.988964   0.000000
    4       20.243126   0.000000
    5       22.318471   0.000000
    6       24.740098   0.000000
    7       25.198636   0.000000
    8       25.797955   0.000000
 
  0.2500000E+00  0.8333333E-01  0.2777778E-01  0.2057613E-02
    1       -2.815455   1.000000
    2       13.134926   0.000000
    3       17.567221   0.000000
    4       19.757685   0.000000
    5       22.264791   0.000000
    6       24.473498   0.000000
    7       25.522758   0.000000
    8       25.731716   0.000000
 
  0.3055556E+00  0.8333333E-01  0.2777778E-01  0.2057613E-02
    1       -2.042166   1.000000
    2       10.903188   0.000000
    3       17.295568   0.000000
    4       19.328919   0.000000
    5       21.578653   0.000000
    6       24.426947   0.000000
    7       24.792023   0.000000
    8       26.858757   0.000000
 
  0.3611111E+00  0.8333333E-01  0.2777778E-01  0.2057613E-02
    1       -1.095108   1.000000
    2        8.793262   1.000000
    3       17.172856   0.000000
    4       18.899752   0.000000
    5       20.966520   0.000000
    6       23.810046   0.000000
    7       24.540603   0.000000
    8       28.198692   0.000000
 
  0.4166667E+00  0.8333333E-01  0.2777778E-01  0.2057613E-02
    1        0.022029   1.000000
    2        6.823095   1.000000
    3       17.192409   0.000000
    4       18.420992   0.000000
    5       20.651992   0.000000
    6       23.031557   0.000000
    7       24.561159   0.000000
    8       28.071971   0.000000
 
  0.4722222E+00  0.8333333E-01  0.2777778E-01  0.2057613E-02
    1        1.300489   1.000000
    2        5.008468   1.000000
    3       17.326281   0.000000
    4       17.949767   0.000000
    5       20.643650   0.000000
    6       22.382924   0.000000
    7       24.598973   0.000000
    8       27.605734   0.000000
 
 -0.4722222E+00  0.8333333E-01  0.2777778E-01  0.2057613E-02
    1        2.632608   1.000000
    2        3.461269   1.000000
    3       17.308448   0.000000
    4       17.817661   0.000000
    5       20.862574   0.000000
    6       21.915173   0.000000
    7       24.593513   0.000000
    8       27.419489   0.000000
 
 -0.4166667E+00  0.8333333E-01  0.2777778E-01  0.2057613E-02
    1        1.757016   1.000000
    2        4.444298   1.000000
    3       17.017847   0.000000
    4       18.180024   0.000000
    5       21.165022   0.000000
    6       21.755991   0.000000
    7       24.517765   0.000000
    8       27.578762   0.000000
 
 -0.3611111E+00  0.8333333E-01  0.2777778E-01  0.2057613E-02
    1        0.431040   1.000000
    2        6.199784   1.000000
    3       16.806237   0.000000
    4       18.676583   0.000000
    5       21.297492   0.000000
    6       22.158228   0.000000
    7       24.412003   0.000000
    8       28.030443   0.000000
 
 -0.3055556E+00  0.8333333E-01  0.2777778E-01  0.2057613E-02
    1       -0.741391   1.000000
    2        8.119952   1.000000
    3       16.728968   0.000000
    4       19.207730   0.000000
    5       21.516820   0.000000
    6       22.889068   0.000000
    7       24.332609   0.000000
    8       28.597168   0.000000
 
 -0.2500000E+00  0.8333333E-01  0.2777778E-01  0.2057613E-02
    1       -1.745667   1.000000
    2       10.184645   0.791430
    3       16.798348   0.000000
    4       19.710920   0.000000
    5       21.995524   0.000000
    6       23.753391   0.000000
    7       24.324808   0.000000
    8       27.640331   0.000000
 
 -0.1944444E+00  0.8333333E-01  0.2777778E-01  0.2057613E-02
    1       -2.577201   1.000000
    2       12.377663   0.000000
    3       17.018994   0.000000
    4       20.186949   0.000000
    5       22.646759   0.000000
    6       24.290716   0.000000
    7       24.741751   0.000000
    8       26.252162   0.000000
 
 -0.1388889E+00  0.8333333E-01  0.2777778E-01  0.2057613E-02
    1       -3.233207   1.000000
    2       14.672902   0.000000
    3       17.392343   0.000000
    4       20.682384   0.000000
    5       22.950051   0.000000
    6       24.432242   0.000000
    7       25.254777   0.000000
    8       25.596543   0.000000
 
 -0.8333333E-01  0.8333333E-01  0.2777778E-01  0.2057613E-02
    1       -3.711727   1.000000
    2       17.009156   0.000000
    3       17.922905   0.000000
    4       21.190257   0.000000
    5       22.382091   0.000000
    6       24.302214   0.000000
    7       25.128859   0.000000
    8       26.010564   0.000000
 
 -0.2777778E-01  0.8333333E-01  0.2777778E-01  0.2057613E-02
    1       -4.011434   1.000000
    2       18.536893   0.000000
    3       19.289305   0.000000
    4       21.135659   0.000000
    5       22.161806   0.000000
    6       23.830829   0.000000
    7       24.268232   0.000000
    8       27.168875   0.000000
 
  0.1388889E+00  0.1388889E+00  0.2777778E-01  0.1028807E-02
    1       -3.651786   1.000000
    2       17.783458   0.000000
    3       18.159158   0.000000
    4       19.932278   0.000000
    5       20.287306   0.000000
    6       24.439359   0.000000
    7       26.034540   0.000000
    8       26.117153   0.000000
 
  0.1944444E+00  0.1388889E+00  0.2777778E-01  0.2057613E-02
    1       -3.292822   1.000000
    2       16.385668   0.000000
    3       17.192589   0.000000
    4       19.673447   0.000000
    5       20.289609   0.000000
    6       23.231346   0.000000
    7       26.753489   0.000000
    8       26.934951   0.000000
 
  0.2500000E+00  0.1388889E+00  0.2777778E-01  0.2057613E-02
    1       -2.755628   1.000000
    2       14.120714   0.000000
    3       16.715098   0.000000
    4       19.066000   0.000000
    5       20.615839   0.000000
    6       22.943181   0.000000
    7       26.908139   0.000000
    8       27.135583   0.000000
 
  0.3055556E+00  0.1388889E+00  0.2777778E-01  0.2057613E-02
    1       -2.041763   1.000000
    2       11.877063   0.000000
    3       16.392341   0.000000
    4       18.414279   0.000000
    5       20.171503   0.000000
    6       23.873076   0.000000
    7       26.378266   0.000000
    8       27.125360   0.000000
 
  0.3611111E+00  0.1388889E+00  0.2777778E-01  0.2057613E-02
    1       -1.153441   1.000000
    2        9.735138   1.000000
    3       16.219186   0.000000
    4       17.680021   0.000000
    5       19.771730   0.000000
    6       24.955907   0.000000
    7       25.651391   0.000000
    8       27.410808   0.000000
 
  0.4166667E+00  0.1388889E+00  0.2777778E-01  0.2057613E-02
    1       -0.093804   1.000000
    2        7.723183   1.000000
    3       16.175510   0.000000
    4       16.946186   0.000000
    5       19.630743   0.000000
    6       24.620607   0.000000
    7       25.931257   0.000000
    8       28.318797   0.000000
 
  0.4722222E+00  0.1388889E+00  0.2777778E-01  0.2057613E-02
    1        1.131282   1.000000
    2        5.858529   1.000000
    3       16.031889   0.000000
    4       16.528854   0.000000
    5       19.717799   0.000000
    6       23.938682   0.000000
    7       26.119409   0.000000
    8       29.514956   0.000000
 
 -0.4722222E+00  0.1388889E+00  0.2777778E-01  0.2057613E-02
    1        2.491449   1.000000
    2        4.176943   1.000000
    3       15.532024   0.000000
    4       16.731108   0.000000
    5       19.998097   0.000000
    6       23.374583   0.000000
    7       26.077574   0.000000
    8       29.512573   0.000000
 
 -0.4166667E+00  0.1388889E+00  0.2777778E-01  0.2057613E-02
    1        2.491539   1.000000
    2        4.176571   1.000000
    3       15.094210   0.000000
    4       17.154835   0.000000
    5       20.451344   0.000000
    6       22.963727   0.000000
    7       25.929242   0.000000
    8       29.654230   0.000000
 
 -0.3611111E+00  0.1388889E+00  0.2777778E-01  0.2057613E-02
    1        1.131194   1.000000
    2        5.857333   1.000000
    3       14.793466   0.000000
    4       17.726095   0.000000
    5       21.056454   0.000000
    6       22.728760   0.000000
    7       25.747333   0.000000
    8       29.973327   0.000000
 
 -0.3055556E+00  0.1388889E+00  0.2777778E-01  0.2057613E-02
    1       -0.093953   1.000000
    2        7.720840   1.000000
    3       14.646291   0.000000
    4       18.421453   0.000000
    5       21.773304   0.000000
    6       22.709939   0.000000
    7       25.583380   0.000000
    8       29.012887   0.000000
 
 -0.2500000E+00  0.1388889E+00  0.2777778E-01  0.2057613E-02
    1       -1.153616   1.000000
    2        9.729815   1.000000
    3       14.657577   0.000000
    4       19.209897   0.000000
    5       22.430590   0.000000
    6       23.064028   0.000000
    7       25.435987   0.000000
    8       27.317937   0.000000
 
 -0.1944444E+00  0.1388889E+00  0.2777778E-01  0.2057613E-02
    1       -2.041935   1.000000
    2       11.863266   0.000000
    3       14.833569   0.000000
    4       20.036043   0.000000
    5       22.879719   0.000000
    6       23.851569   0.000000
    7       25.196268   0.000000
    8       25.946264   0.000000
 
 -0.1388889E+00  0.1388889E+00  0.2777778E-01  0.2057613E-02
    1       -2.755778   1.000000
    2       14.061477   0.000000
    3       15.208856   0.000000
    4       20.795610   0.000000
    5       23.082118   0.000000
    6       24.341758   0.000000
    7       25.124098   0.000000
    8       25.309589   0.000000
 
 -0.8333333E-01  0.1388889E+00  0.2777778E-01  0.2057613E-02
    1       -3.292939   1.000000
    2       15.505004   0.000000
    3       16.546900   0.000000
    4       21.148288   0.000000
    5       22.687781   0.000000
    6       24.736276   0.000000
    7       24.991771   0.000000
    8       25.560952   0.000000
 
 -0.2777778E-01  0.1388889E+00  0.2777778E-01  0.2057613E-02
    1       -3.651858   1.000000
    2       16.189176   0.000000
    3       18.675307   0.000000
    4       20.580500   0.000000
    5       22.950546   0.000000
    6       24.133688   0.000000
    7       25.069026   0.000000
    8       26.155210   0.000000
 
  0.1944444E+00  0.1944444E+00  0.2777778E-01  0.1028807E-02
    1       -2.994054   1.000000
    2       16.484291   0.000000
    3       16.870073   0.000000
    4       18.615368   0.000000
    5       18.940116   0.000000
    6       21.818973   0.000000
    7       28.060623   0.000000
    8       28.095066   0.000000
 
  0.2500000E+00  0.1944444E+00  0.2777778E-01  0.2057613E-02
    1       -2.517089   1.000000
    2       15.161730   0.000000
    3       15.996175   0.000000
    4       18.091789   0.000000
    5       18.862905   0.000000
    6       21.090926   0.000000
    7       28.537232   0.000000
    8       28.859741   0.000000
 
  0.3055556E+00  0.1944444E+00  0.2777778E-01  0.2057613E-02
    1       -1.863223   1.000000
    2       12.978038   0.000000
    3       15.611395   0.000000
    4       17.147490   0.000000
    5       18.945300   0.000000
    6       21.649782   0.000000
    7       28.107066   0.000000
    8       29.113182   0.000000
 
  0.3611111E+00  0.1944444E+00  0.2777778E-01  0.2057613E-02
    1       -1.034465   1.000000
    2       10.825068   0.000000
    3       15.366042   0.000000
    4       16.185514   0.000000
    5       18.756173   0.000000
    6       23.009189   0.000000
    7       27.330842   0.000000
    8       29.156287   0.000000
 
  0.4166667E+00  0.1944444E+00  0.2777778E-01  0.2057613E-02
    1       -0.033551   1.000000
    2        8.781320   1.000000
    3       15.041631   0.000000
    4       15.518267   0.000000
    5       18.680945   0.000000
    6       24.576046   0.000000
    7       26.545264   0.000000
    8       29.155421   0.000000
 
  0.4722222E+00  0.1944444E+00  0.2777778E-01  0.2057613E-02
    1        1.135070   1.000000
    2        6.873817   1.000000
    3       14.321133   0.000000
    4       15.515582   0.000000
    5       18.774627   0.000000
    6       25.589218   0.000000
    7       26.338081   0.000000
    8       29.252695   0.000000
 
 -0.4722222E+00  0.1944444E+00  0.2777778E-01  0.2057613E-02
    1        2.457572   1.000000
    2        5.125981   1.000000
    3       13.655795   0.000000
    4       15.752753   0.000000
    5       19.039761   0.000000
    6       25.097126   0.000000
    7       27.206926   0.000000
    8       29.841919   0.000000
 
 -0.4166667E+00  0.1944444E+00  0.2777778E-01  0.2057613E-02
    1        3.338225   1.000000
    2        4.137704   1.000000
    3       13.130914   0.000000
    4       16.153937   0.000000
    5       19.472517   0.000000
    6       24.634756   0.000000
    7       27.379261   0.000000
    8       30.985915   0.000000
 
 -0.3611111E+00  0.1944444E+00  0.2777778E-01  0.2057613E-02
    1        2.001876   1.000000
    2        5.684806   1.000000
    3       12.761969   0.000000
    4       16.707535   0.000000
    5       20.067540   0.000000
    6       24.314397   0.000000
    7       27.219323   0.000000
    8       30.679424   0.000000
 
 -0.3055556E+00  0.1944444E+00  0.2777778E-01  0.2057613E-02
    1        0.726936   1.000000
    2        7.484877   1.000000
    3       12.556413   0.000000
    4       17.403221   0.000000
    5       20.814385   0.000000
    6       24.150587   0.000000
    7       26.947591   0.000000
    8       28.894834   0.000000
 
 -0.2500000E+00  0.1944444E+00  0.2777778E-01  0.2057613E-02
    1       -0.386642   1.000000
    2        9.424790   1.000000
    3       12.524634   0.000000
    4       18.227110   0.000000
    5       21.696244   0.000000
    6       24.147098   0.000000
    7       26.416092   0.000000
    8       27.347551   0.000000
 
 -0.1944444E+00  0.1944444E+00  0.2777778E-01  0.2057613E-02
    1       -1.330588   1.000000
    2       11.430623   0.000000
    3       12.723216   0.000000
    4       19.147034   0.000000
    5       22.678503   0.000000
    6       24.251860   0.000000
    7       25.202025   0.000000
    8       26.579152   0.000000
 
 -0.1388889E+00  0.1944444E+00  0.2777778E-01  0.2057613E-02
    1       -2.101246   1.000000
    2       12.699335   0.000000
    3       13.929737   0.000000
    4       20.069938   0.000000
    5       23.470636   0.000000
    6       23.813857   0.000000
    7       24.857918   0.000000
    8       25.898411   0.000000
 
 -0.8333333E-01  0.1944444E+00  0.2777778E-01  0.2057613E-02
    1       -2.696236   1.000000
    2       13.225902   0.000000
    3       16.092586   0.000000
    4       20.587027   0.000000
    5       22.810971   0.000000
    6       24.514698   0.000000
    7       24.989394   0.000000
    8       25.528228   0.000000
 
 -0.2777778E-01  0.1944444E+00  0.2777778E-01  0.2057613E-02
    1       -3.113792   1.000000
    2       13.837026   0.000000
    3       18.203948   0.000000
    4       20.083265   0.000000
    5       23.199972   0.000000
    6       24.071194   0.000000
    7       25.152395   0.000000
    8       26.078083   0.000000
 
  0.2500000E+00  0.2500000E+00  0.2777778E-01  0.1028807E-02
    1       -2.100493   1.000000
    2       15.371438   0.000000
    3       15.778269   0.000000
    4       16.813136   0.000000
    5       17.543112   0.000000
    6       19.946546   0.000000
    7       29.913650   0.000000
    8       30.050237   0.000000
 
  0.3055556E+00  0.2500000E+00  0.2777778E-01  0.2057613E-02
    1       -1.507071   1.000000
    2       14.128740   0.000000
    3       14.959524   0.000000
    4       15.770373   0.000000
    5       17.731759   0.000000
    6       19.758415   0.000000
    7       29.885869   0.000000
    8       30.846578   0.000000
 
  0.3611111E+00  0.2500000E+00  0.2777778E-01  0.2057613E-02
    1       -0.738532   1.000000
    2       12.036782   0.000000
    3       14.428450   0.000000
    4       14.897571   0.000000
    5       17.868004   0.000000
    6       20.730697   0.000000
    7       29.227189   0.000000
    8       31.065530   0.000000
 
  0.4166667E+00  0.2500000E+00  0.2777778E-01  0.2057613E-02
    1        0.202618   1.000000
    2        9.984362   1.000000
    3       13.489707   0.000000
    4       14.683687   0.000000
    5       17.850912   0.000000
    6       22.293620   0.000000
    7       28.450861   0.000000
    8       30.984385   0.000000
 
  0.4722222E+00  0.2500000E+00  0.2777778E-01  0.2057613E-02
    1        1.312693   1.000000
    2        8.045733   1.000000
    3       12.597653   0.000000
    4       14.715747   0.000000
    5       17.933861   0.000000
    6       24.066098   0.000000
    7       27.721814   0.000000
    8       30.732927   0.000000
 
 -0.4722222E+00  0.2500000E+00  0.2777778E-01  0.2057613E-02
    1        2.583288   1.000000
    2        6.250262   1.000000
    3       11.845050   0.000000
    4       14.916377   0.000000
    5       18.166148   0.000000
    6       25.855621   0.000000
    7       27.133111   0.000000
    8       30.400951   0.000000
 
 -0.4166667E+00  0.2500000E+00  0.2777778E-01  0.2057613E-02
    1        3.921229   1.000000
    2        4.698923   1.000000
    3       11.249583   0.000000
    4       15.276252   0.000000
    5       18.562020   0.000000
    6       26.437314   0.000000
    7       27.719543   0.000000
    8       30.138126   0.000000
 
 -0.3611111E+00  0.2500000E+00  0.2777778E-01  0.2057613E-02
    1        3.038553   1.000000
    2        5.680913   1.000000
    3       10.820055   0.000000
    4       15.791091   0.000000
    5       19.119567   0.000000
    6       26.108523   0.000000
    7       28.533279   0.000000
    8       30.167445   0.000000
 
 -0.3055556E+00  0.2500000E+00  0.2777778E-01  0.2057613E-02
    1        1.718431   1.000000
    2        7.402258   1.000000
    3       10.569238   0.000000
    4       16.455129   0.000000
    5       19.832278   0.000000
    6       25.883484   0.000000
    7       28.121085   0.000000
    8       29.097660   0.000000
 
 -0.2500000E+00  0.2500000E+00  0.2777778E-01  0.2057613E-02
    1        0.552821   1.000000
    2        9.199865   1.000000
    3       10.566001   0.000000
    4       17.259814   0.000000
    5       20.690023   0.000000
    6       25.797995   0.000000
    7       26.645470   0.000000
    8       28.211706   0.000000
 
 -0.1944444E+00  0.2500000E+00  0.2777778E-01  0.2057613E-02
    1       -0.445264   1.000000
    2       10.262640   0.081562
    3       11.599294   0.000000
    4       18.185291   0.000000
    5       21.665953   0.000000
    6       24.970040   0.000000
    7       25.837032   0.000000
    8       27.350651   0.000000
 
 -0.1388889E+00  0.2500000E+00  0.2777778E-01  0.2057613E-02
    1       -1.271577   1.000000
    2       10.594162   0.000000
    3       13.639407   0.000000
    4       19.171214   0.000000
    5       22.648523   0.000000
    6       23.540951   0.000000
    7       25.729336   0.000000
    8       26.585641   0.000000
 
 -0.8333333E-01  0.2500000E+00  0.2777778E-01  0.2057613E-02
    1       -1.923370   1.000000
    2       11.005913   0.000000
    3       15.817017   0.000000
    4       19.934272   0.000000
    5       22.340024   0.000000
    6       23.835322   0.000000
    7       24.844876   0.000000
    8       26.701182   0.000000
 
 -0.2777778E-01  0.2500000E+00  0.2777778E-01  0.2057613E-02
    1       -2.398772   1.000000
    2       11.565031   0.000000
    3       17.879698   0.000000
    4       19.684928   0.000000
    5       22.640426   0.000000
    6       23.885874   0.000000
    7       24.432820   0.000000
    8       27.138307   0.000000
 
  0.3055556E+00  0.3055556E+00  0.2777778E-01  0.1028807E-02
    1       -0.974316   1.000000
    2       14.206757   0.000000
    3       14.559583   0.000000
    4       14.890040   0.000000
    5       16.554023   0.000000
    6       18.799241   0.000000
    7       31.343707   0.000000
    8       31.914342   0.000000
 
  0.3611111E+00  0.3055556E+00  0.2777778E-01  0.2057613E-02
    1       -0.266583   1.000000
    2       12.939148   0.000000
    3       13.419930   0.000000
    4       14.279868   0.000000
    5       16.874111   0.000000
    6       18.876967   0.000000
    7       31.123292   0.000000
    8       32.670358   0.000000
 
  0.4166667E+00  0.3055556E+00  0.2777778E-01  0.2057613E-02
    1        0.613951   1.000000
    2       11.251437   0.000000
    3       12.019015   0.000000
    4       14.087960   0.000000
    5       17.106961   0.000000
    6       20.050129   0.000000
    7       30.449400   0.000000
    8       32.770967   0.000000
 
  0.4722222E+00  0.3055556E+00  0.2777778E-01  0.2057613E-02
    1        1.663632   1.000000
    2        9.345321   1.000000
    3       10.998192   0.000000
    4       14.078395   0.000000
    5       17.217140   0.000000
    6       21.757186   0.000000
    7       29.737333   0.000000
    8       32.500745   0.000000
 
 -0.4722222E+00  0.3055556E+00  0.2777778E-01  0.2057613E-02
    1        2.876323   1.000000
    2        7.526158   1.000000
    3       10.162769   0.923660
    4       14.231478   0.000000
    5       17.424631   0.000000
    6       23.673544   0.000000
    7       29.082498   0.000000
    8       32.003713   0.000000
 
 -0.4166667E+00  0.3055556E+00  0.2777778E-01  0.2057613E-02
    1        4.226110   1.000000
    2        5.862711   1.000000
    3        9.500207   1.000000
    4       14.543800   0.000000
    5       17.780095   0.000000
    6       25.676381   0.000000
    7       28.543863   0.000000
    8       31.318778   0.000000
 
 -0.3611111E+00  0.3055556E+00  0.2777778E-01  0.2057613E-02
    1        4.231262   1.000000
    2        5.838619   1.000000
    3        9.020543   1.000000
    4       15.012773   0.000000
    5       18.293832   0.000000
    6       27.531783   0.000000
    7       28.252956   0.000000
    8       30.276725   0.000000
 
 -0.3055556E+00  0.3055556E+00  0.2777778E-01  0.2057613E-02
    1        2.876127   1.000000
    2        7.400903   1.000000
    3        8.796513   1.000000
    4       15.635072   0.000000
    5       18.964545   0.000000
    6       27.704842   0.000000
    7       28.634332   0.000000
    8       29.523271   0.000000
 
 -0.2500000E+00  0.3055556E+00  0.2777778E-01  0.2057613E-02
    1        1.661278   1.000000
    2        8.245280   1.000000
    3        9.629749   1.000000
    4       16.404312   0.000000
    5       19.784318   0.000000
    6       26.718794   0.000000
    7       27.585900   0.000000
    8       29.151428   0.000000
 
 -0.1944444E+00  0.3055556E+00  0.2777778E-01  0.2057613E-02
    1        0.610888   1.000000
    2        8.359618   1.000000
    3       11.498778   0.000000
    4       17.307895   0.000000
    5       20.731950   0.000000
    6       24.953216   0.000000
    7       27.220202   0.000000
    8       28.198761   0.000000
 
 -0.1388889E+00  0.3055556E+00  0.2777778E-01  0.2057613E-02
    1       -0.269485   1.000000
    2        8.554690   1.000000
    3       13.565781   0.000000
    4       18.308098   0.000000
    5       21.743790   0.000000
    6       23.376990   0.000000
    7       26.144985   0.000000
    8       28.058456   0.000000
 