<?xml version="1.0" encoding="ISO-8859-1"?>
<modeling>
 <generator>
  <i name="program" type="string">vasp </i>
  <i name="version" type="string">6.2.0  </i>
  <i name="subversion" type="string">18Jan21 (build Aug 12 2022 13:00:08) complex                          parallel </i>
  <i name="platform" type="string">LinuxIFC </i>
  <i name="date" type="string">2024 11 03 </i>
  <i name="time" type="string">21:58:09 </i>
 </generator>
 <incar>
  <i type="int" name="ISTART">     0</i>
  <i type="string" name="PREC">Accurate      (Accurate strictly avoids</i>
  <i type="logical" name="ADDGRID"> T  </i>
  <i type="int" name="ISPIN">     1</i>
  <i type="int" name="NELM">    90</i>
  <i type="int" name="NELMIN">     6</i>
  <i type="int" name="IBRION">     2</i>
  <i name="EDIFF">      0.00000100</i>
  <i name="EDIFFG">     -0.00200000</i>
  <i type="int" name="NSW">   100</i>
  <i type="int" name="ISIF">     3</i>
  <i type="int" name="ISYM">     2</i>
  <i name="ENCUT">    350.00000000</i>
  <i type="logical" name="LREAL"> F  </i>
  <i type="int" name="ISMEAR">     0</i>
  <i name="SIGMA">      0.05000000</i>
  <i type="logical" name="LWAVE"> F  </i>
  <i type="logical" name="LCHARG"> F  </i>
  <i type="logical" name="LASPH"> T  </i>
 </incar>
 <primitive_cell>
  <structure name="primitive_cell" >
   <crystal>
    <varray name="basis" >
     <v>       2.34739500       0.00000000       1.35526800 </v>
     <v>       0.78246500       2.21314500       1.35526800 </v>
     <v>       0.00000000       0.00000000       2.71053800 </v>
    </varray>
    <i name="volume">     14.08158510 </i>
    <varray name="rec_basis" >
     <v>       0.42600415      -0.15061523       0.00000000 </v>
     <v>       0.00000000       0.45184568       0.00000000 </v>
     <v>      -0.21300192      -0.15061511       0.36893045 </v>
    </varray>
   </crystal>
   <varray name="positions" >
    <v>       0.00000000       0.00000000       0.00000000 </v>
   </varray>
  </structure>
  <varray name="primitive_index" >
   <v type="int" >        1 </v>
  </varray>
 </primitive_cell>
 <kpoints>
  <generation param="Monkhorst-Pack">
   <v type="int" name="divisions">      18       18       18 </v>
   <v name="usershift">      0.00000000       0.00000000       0.00000000 </v>
   <v name="genvec1">      0.05555556       0.00000000       0.00000000 </v>
   <v name="genvec2">      0.00000000       0.05555556       0.00000000 </v>
   <v name="genvec3">      0.00000000       0.00000000       0.05555556 </v>
   <v name="shift">      0.50000000       0.50000000       0.50000000 </v>
  </generation>
  <varray name="kpointlist" >
   <v>       0.02777778       0.02777778       0.02777778 </v>
   <v>       0.08333333       0.02777778       0.02777778 </v>
   <v>       0.13888889       0.02777778       0.02777778 </v>
   <v>       0.19444444       0.02777778       0.02777778 </v>
   <v>       0.25000000       0.02777778       0.02777778 </v>
   <v>       0.30555556       0.02777778       0.02777778 </v>
   <v>       0.36111111       0.02777778       0.02777778 </v>
   <v>       0.41666667       0.02777778       0.02777778 </v>
   <v>       0.47222222       0.02777778       0.02777778 </v>
   <v>      -0.47222222       0.02777778       0.02777778 </v>
   <v>      -0.41666667       0.02777778       0.02777778 </v>
   <v>      -0.36111111       0.02777778       0.02777778 </v>
   <v>      -0.30555556       0.02777778       0.02777778 </v>
   <v>      -0.25000000       0.02777778       0.02777778 </v>
   <v>      -0.19444444       0.02777778       0.02777778 </v>
   <v>      -0.13888889       0.02777778       0.02777778 </v>
   <v>      -0.08333333       0.02777778       0.02777778 </v>
   <v>      -0.02777778       0.02777778       0.02777778 </v>
   <v>       0.08333333       0.08333333       0.02777778 </v>
   <v>       0.13888889       0.08333333       0.02777778 </v>
   <v>       0.19444444       0.08333333       0.02777778 </v>
   <v>       0.25000000       0.08333333       0.02777778 </v>
   <v>       0.30555556       0.08333333       0.02777778 </v>
   <v>       0.36111111       0.08333333       0.02777778 </v>
   <v>       0.41666667       0.08333333       0.02777778 </v>
   <v>       0.47222222       0.08333333       0.02777778 </v>
   <v>      -0.47222222       0.08333333       0.02777778 </v>
   <v>      -0.41666667       0.08333333       0.02777778 </v>
   <v>      -0.36111111       0.08333333       0.02777778 </v>
   <v>      -0.30555556       0.08333333       0.02777778 </v>
   <v>      -0.25000000       0.08333333       0.02777778 </v>
   <v>      -0.19444444       0.08333333       0.02777778 </v>
   <v>      -0.13888889       0.08333333       0.02777778 </v>
   <v>      -0.08333333       0.08333333       0.02777778 </v>
   <v>      -0.02777778       0.08333333       0.02777778 </v>
   <v>       0.13888889       0.13888889       0.02777778 </v>
   <v>       0.19444444       0.13888889       0.02777778 </v>
   <v>       0.25000000       0.13888889       0.02777778 </v>
   <v>       0.30555556       0.13888889       0.02777778 </v>
   <v>       0.36111111       0.13888889       0.02777778 </v>
   <v>       0.41666667       0.13888889       0.02777778 </v>
   <v>       0.47222222       0.13888889       0.02777778 </v>
   <v>      -0.47222222       0.13888889       0.02777778 </v>
   <v>      -0.41666667       0.13888889       0.02777778 </v>
   <v>      -0.36111111       0.13888889       0.02777778 </v>
   <v>      -0.30555556       0.13888889       0.02777778 </v>
   <v>      -0.25000000       0.13888889       0.02777778 </v>
   <v>      -0.19444444       0.13888889       0.02777778 </v>
   <v>      -0.13888889       0.13888889       0.02777778 </v>
   <v>      -0.08333333       0.13888889       0.02777778 </v>
   <v>      -0.02777778       0.13888889       0.02777778 </v>
   <v>       0.19444444       0.19444444       0.02777778 </v>
   <v>       0.25000000       0.19444444       0.02777778 </v>
   <v>       0.30555556       0.19444444       0.02777778 </v>
   <v>       0.36111111       0.19444444       0.02777778 </v>
   <v>       0.41666667       0.19444444       0.02777778 </v>
   <v>       0.47222222       0.19444444       0.02777778 </v>
   <v>      -0.47222222       0.19444444       0.02777778 </v>
   <v>      -0.41666667       0.19444444       0.02777778 </v>
   <v>      -0.36111111       0.19444444       0.02777778 </v>
   <v>      -0.30555556       0.19444444       0.02777778 </v>
   <v>      -0.25000000       0.19444444       0.02777778 </v>
   <v>      -0.19444444       0.19444444       0.02777778 </v>
   <v>      -0.13888889       0.19444444       0.02777778 </v>
   <v>      -0.08333333       0.19444444       0.02777778 </v>
   <v>      -0.02777778       0.19444444       0.02777778 </v>
   <v>       0.25000000       0.25000000       0.02777778 </v>
   <v>       0.30555556       0.25000000       0.02777778 </v>
   <v>       0.36111111       0.25000000       0.02777778 </v>
   <v>       0.41666667       0.25000000       0.02777778 </v>
   <v>       0.47222222       0.25000000       0.02777778 </v>
   <v>      -0.47222222       0.25000000       0.02777778 </v>
   <v>      -0.41666667       0.25000000       0.02777778 </v>
   <v>      -0.36111111       0.25000000       0.02777778 </v>
   <v>      -0.30555556       0.25000000       0.02777778 </v>
   <v>      -0.25000000       0.25000000       0.02777778 </v>
   <v>      -0.19444444       0.25000000       0.02777778 </v>
   <v>      -0.13888889       0.25000000       0.02777778 </v>
   <v>      -0.08333333       0.25000000       0.02777778 </v>
   <v>      -0.02777778       0.25000000       0.02777778 </v>
   <v>       0.30555556       0.30555556       0.02777778 </v>
   <v>       0.36111111       0.30555556       0.02777778 </v>
   <v>       0.41666667       0.30555556       0.02777778 </v>
   <v>       0.47222222       0.30555556       0.02777778 </v>
   <v>      -0.47222222       0.30555556       0.02777778 </v>
   <v>      -0.41666667       0.30555556       0.02777778 </v>
   <v>      -0.36111111       0.30555556       0.02777778 </v>
   <v>      -0.30555556       0.30555556       0.02777778 </v>
   <v>      -0.25000000       0.30555556       0.02777778 </v>
   <v>      -0.19444444       0.30555556       0.02777778 </v>
   <v>      -0.13888889       0.30555556       0.02777778 </v>
   <v>      -0.08333333       0.30555556       0.02777778 </v>
   <v>      -0.02777778       0.30555556       0.02777778 </v>
   <v>       0.36111111       0.36111111       0.02777778 </v>
   <v>       0.41666667       0.36111111       0.02777778 </v>
   <v>       0.47222222       0.36111111       0.02777778 </v>
   <v>      -0.47222222       0.36111111       0.02777778 </v>
   <v>      -0.41666667       0.36111111       0.02777778 </v>
   <v>      -0.36111111       0.36111111       0.02777778 </v>
   <v>      -0.30555556       0.36111111       0.02777778 </v>
   <v>      -0.25000000       0.36111111       0.02777778 </v>
   <v>      -0.19444444       0.36111111       0.02777778 </v>
   <v>      -0.13888889       0.36111111       0.02777778 </v>
   <v>      -0.08333333       0.36111111       0.02777778 </v>
   <v>      -0.02777778       0.36111111       0.02777778 </v>
   <v>       0.41666667       0.41666667       0.02777778 </v>
   <v>       0.47222222       0.41666667       0.02777778 </v>
   <v>      -0.47222222       0.41666667       0.02777778 </v>
   <v>      -0.41666667       0.41666667       0.02777778 </v>
   <v>      -0.36111111       0.41666667       0.02777778 </v>
   <v>      -0.30555556       0.41666667       0.02777778 </v>
   <v>      -0.25000000       0.41666667       0.02777778 </v>
   <v>      -0.19444444       0.41666667       0.02777778 </v>
   <v>      -0.13888889       0.41666667       0.02777778 </v>
   <v>      -0.08333333       0.41666667       0.02777778 </v>
   <v>      -0.02777778       0.41666667       0.02777778 </v>
   <v>       0.47222222       0.47222222       0.02777778 </v>
   <v>      -0.47222222       0.47222222       0.02777778 </v>
   <v>      -0.41666667       0.47222222       0.02777778 </v>
   <v>      -0.36111111       0.47222222       0.02777778 </v>
   <v>      -0.30555556       0.47222222       0.02777778 </v>
   <v>      -0.25000000       0.47222222       0.02777778 </v>
   <v>      -0.19444444       0.47222222       0.02777778 </v>
   <v>      -0.13888889       0.47222222       0.02777778 </v>
   <v>      -0.08333333       0.47222222       0.02777778 </v>
   <v>      -0.02777778       0.47222222       0.02777778 </v>
   <v>      -0.47222222      -0.47222222       0.02777778 </v>
   <v>      -0.41666667      -0.47222222       0.02777778 </v>
   <v>      -0.36111111      -0.47222222       0.02777778 </v>
   <v>      -0.30555556      -0.47222222       0.02777778 </v>
   <v>      -0.25000000      -0.47222222       0.02777778 </v>
   <v>      -0.19444444      -0.47222222       0.02777778 </v>
   <v>      -0.13888889      -0.47222222       0.02777778 </v>
   <v>      -0.08333333      -0.47222222       0.02777778 </v>
   <v>      -0.41666667      -0.41666667       0.02777778 </v>
   <v>      -0.36111111      -0.41666667       0.02777778 </v>
   <v>      -0.30555556      -0.41666667       0.02777778 </v>
   <v>      -0.25000000      -0.41666667       0.02777778 </v>
   <v>      -0.19444444      -0.41666667       0.02777778 </v>
   <v>      -0.13888889      -0.41666667       0.02777778 </v>
   <v>      -0.08333333      -0.41666667       0.02777778 </v>
   <v>      -0.36111111      -0.36111111       0.02777778 </v>
   <v>      -0.30555556      -0.36111111       0.02777778 </v>
   <v>      -0.25000000      -0.36111111       0.02777778 </v>
   <v>      -0.19444444      -0.36111111       0.02777778 </v>
   <v>      -0.13888889      -0.36111111       0.02777778 </v>
   <v>      -0.08333333      -0.36111111       0.02777778 </v>
   <v>      -0.30555556      -0.30555556       0.02777778 </v>
   <v>      -0.25000000      -0.30555556       0.02777778 </v>
   <v>      -0.19444444      -0.30555556       0.02777778 </v>
   <v>      -0.13888889      -0.30555556       0.02777778 </v>
   <v>      -0.08333333      -0.30555556       0.02777778 </v>
   <v>      -0.25000000      -0.25000000       0.02777778 </v>
   <v>      -0.19444444      -0.25000000       0.02777778 </v>
   <v>      -0.13888889      -0.25000000       0.02777778 </v>
   <v>      -0.08333333      -0.25000000       0.02777778 </v>
   <v>      -0.19444444      -0.19444444       0.02777778 </v>
   <v>      -0.13888889      -0.19444444       0.02777778 </v>
   <v>      -0.08333333      -0.19444444       0.02777778 </v>
   <v>      -0.13888889      -0.13888889       0.02777778 </v>
   <v>      -0.08333333      -0.13888889       0.02777778 </v>
   <v>      -0.08333333      -0.08333333       0.02777778 </v>
   <v>       0.08333333       0.08333333       0.08333333 </v>
   <v>       0.13888889       0.08333333       0.08333333 </v>
   <v>       0.19444444       0.08333333       0.08333333 </v>
   <v>       0.25000000       0.08333333       0.08333333 </v>
   <v>       0.30555556       0.08333333       0.08333333 </v>
   <v>       0.36111111       0.08333333       0.08333333 </v>
   <v>       0.41666667       0.08333333       0.08333333 </v>
   <v>       0.47222222       0.08333333       0.08333333 </v>
   <v>      -0.47222222       0.08333333       0.08333333 </v>
   <v>      -0.41666667       0.08333333       0.08333333 </v>
   <v>      -0.36111111       0.08333333       0.08333333 </v>
   <v>      -0.30555556       0.08333333       0.08333333 </v>
   <v>      -0.25000000       0.08333333       0.08333333 </v>
   <v>      -0.19444444       0.08333333       0.08333333 </v>
   <v>      -0.13888889       0.08333333       0.08333333 </v>
   <v>      -0.08333333       0.08333333       0.08333333 </v>
   <v>       0.13888889       0.13888889       0.08333333 </v>
   <v>       0.19444444       0.13888889       0.08333333 </v>
   <v>       0.25000000       0.13888889       0.08333333 </v>
   <v>       0.30555556       0.13888889       0.08333333 </v>
   <v>       0.36111111       0.13888889       0.08333333 </v>
   <v>       0.41666667       0.13888889       0.08333333 </v>
   <v>       0.47222222       0.13888889       0.08333333 </v>
   <v>      -0.47222222       0.13888889       0.08333333 </v>
   <v>      -0.41666667       0.13888889       0.08333333 </v>
   <v>      -0.36111111       0.13888889       0.08333333 </v>
   <v>      -0.30555556       0.13888889       0.08333333 </v>
   <v>      -0.25000000       0.13888889       0.08333333 </v>
   <v>      -0.19444444       0.13888889       0.08333333 </v>
   <v>      -0.13888889       0.13888889       0.08333333 </v>
   <v>      -0.08333333       0.13888889       0.08333333 </v>
   <v>       0.19444444       0.19444444       0.08333333 </v>
   <v>       0.25000000       0.19444444       0.08333333 </v>
   <v>       0.30555556       0.19444444       0.08333333 </v>
   <v>       0.36111111       0.19444444       0.08333333 </v>
   <v>       0.41666667       0.19444444       0.08333333 </v>
   <v>       0.47222222       0.19444444       0.08333333 </v>
   <v>      -0.47222222       0.19444444       0.08333333 </v>
   <v>      -0.41666667       0.19444444       0.08333333 </v>
   <v>      -0.36111111       0.19444444       0.08333333 </v>
   <v>      -0.30555556       0.19444444       0.08333333 </v>
   <v>      -0.25000000       0.19444444       0.08333333 </v>
   <v>      -0.19444444       0.19444444       0.08333333 </v>
   <v>      -0.13888889       0.19444444       0.08333333 </v>
   <v>      -0.08333333       0.19444444       0.08333333 </v>
   <v>       0.25000000       0.25000000       0.08333333 </v>
   <v>       0.30555556       0.25000000       0.08333333 </v>
   <v>       0.36111111       0.25000000       0.08333333 </v>
   <v>       0.41666667       0.25000000       0.08333333 </v>
   <v>       0.47222222       0.25000000       0.08333333 </v>
   <v>      -0.47222222       0.25000000       0.08333333 </v>
   <v>      -0.41666667       0.25000000       0.08333333 </v>
   <v>      -0.36111111       0.25000000       0.08333333 </v>
   <v>      -0.30555556       0.25000000       0.08333333 </v>
   <v>      -0.25000000       0.25000000       0.08333333 </v>
   <v>      -0.19444444       0.25000000       0.08333333 </v>
   <v>      -0.13888889       0.25000000       0.08333333 </v>
   <v>      -0.08333333       0.25000000       0.08333333 </v>
   <v>       0.30555556       0.30555556       0.08333333 </v>
   <v>       0.36111111       0.30555556       0.08333333 </v>
   <v>       0.41666667       0.30555556       0.08333333 </v>
   <v>       0.47222222       0.30555556       0.08333333 </v>
   <v>      -0.47222222       0.30555556       0.08333333 </v>
   <v>      -0.41666667       0.30555556       0.08333333 </v>
   <v>      -0.36111111       0.30555556       0.08333333 </v>
   <v>      -0.30555556       0.30555556       0.08333333 </v>
   <v>      -0.25000000       0.30555556       0.08333333 </v>
   <v>      -0.19444444       0.30555556       0.08333333 </v>
   <v>      -0.13888889       0.30555556       0.08333333 </v>
   <v>      -0.08333333       0.30555556       0.08333333 </v>
   <v>       0.36111111       0.36111111       0.08333333 </v>
   <v>       0.41666667       0.36111111       0.08333333 </v>
   <v>       0.47222222       0.36111111       0.08333333 </v>
   <v>      -0.47222222       0.36111111       0.08333333 </v>
   <v>      -0.41666667       0.36111111       0.08333333 </v>
   <v>      -0.36111111       0.36111111       0.08333333 </v>
   <v>      -0.30555556       0.36111111       0.08333333 </v>
   <v>      -0.25000000       0.36111111       0.08333333 </v>
   <v>      -0.19444444       0.36111111       0.08333333 </v>
   <v>      -0.13888889       0.36111111       0.08333333 </v>
   <v>      -0.08333333       0.36111111       0.08333333 </v>
   <v>       0.41666667       0.41666667       0.08333333 </v>
   <v>       0.47222222       0.41666667       0.08333333 </v>
   <v>      -0.47222222       0.41666667       0.08333333 </v>
   <v>      -0.41666667       0.41666667       0.08333333 </v>
   <v>      -0.36111111       0.41666667       0.08333333 </v>
   <v>      -0.30555556       0.41666667       0.08333333 </v>
   <v>      -0.25000000       0.41666667       0.08333333 </v>
   <v>      -0.19444444       0.41666667       0.08333333 </v>
   <v>      -0.13888889       0.41666667       0.08333333 </v>
   <v>      -0.08333333       0.41666667       0.08333333 </v>
   <v>       0.47222222       0.47222222       0.08333333 </v>
   <v>      -0.47222222       0.47222222       0.08333333 </v>
   <v>      -0.41666667       0.47222222       0.08333333 </v>
   <v>      -0.36111111       0.47222222       0.08333333 </v>
   <v>      -0.30555556       0.47222222       0.08333333 </v>
   <v>      -0.25000000       0.47222222       0.08333333 </v>
   <v>      -0.19444444       0.47222222       0.08333333 </v>
   <v>      -0.13888889       0.47222222       0.08333333 </v>
   <v>      -0.08333333       0.47222222       0.08333333 </v>
   <v>      -0.47222222      -0.47222222       0.08333333 </v>
   <v>      -0.41666667      -0.47222222       0.08333333 </v>
   <v>      -0.36111111      -0.47222222       0.08333333 </v>
   <v>      -0.30555556      -0.47222222       0.08333333 </v>
   <v>      -0.25000000      -0.47222222       0.08333333 </v>
   <v>      -0.19444444      -0.47222222       0.08333333 </v>
   <v>      -0.13888889      -0.47222222       0.08333333 </v>
   <v>      -0.41666667      -0.41666667       0.08333333 </v>
   <v>      -0.36111111      -0.41666667       0.08333333 </v>
   <v>      -0.30555556      -0.41666667       0.08333333 </v>
   <v>      -0.25000000      -0.41666667       0.08333333 </v>
   <v>      -0.19444444      -0.41666667       0.08333333 </v>
   <v>      -0.13888889      -0.41666667       0.08333333 </v>
   <v>      -0.36111111      -0.36111111       0.08333333 </v>
   <v>      -0.30555556      -0.36111111       0.08333333 </v>
   <v>      -0.25000000      -0.36111111       0.08333333 </v>
   <v>      -0.19444444      -0.36111111       0.08333333 </v>
   <v>      -0.13888889      -0.36111111       0.08333333 </v>
   <v>      -0.30555556      -0.30555556       0.08333333 </v>
   <v>      -0.25000000      -0.30555556       0.08333333 </v>
   <v>      -0.19444444      -0.30555556       0.08333333 </v>
   <v>      -0.13888889      -0.30555556       0.08333333 </v>
   <v>      -0.25000000      -0.25000000       0.08333333 </v>
   <v>      -0.19444444      -0.25000000       0.08333333 </v>
   <v>      -0.13888889      -0.25000000       0.08333333 </v>
   <v>      -0.19444444      -0.19444444       0.08333333 </v>
   <v>      -0.13888889      -0.19444444       0.08333333 </v>
   <v>      -0.13888889      -0.13888889       0.08333333 </v>
   <v>       0.13888889       0.13888889       0.13888889 </v>
   <v>       0.19444444       0.13888889       0.13888889 </v>
   <v>       0.25000000       0.13888889       0.13888889 </v>
   <v>       0.30555556       0.13888889       0.13888889 </v>
   <v>       0.36111111       0.13888889       0.13888889 </v>
   <v>       0.41666667       0.13888889       0.13888889 </v>
   <v>       0.47222222       0.13888889       0.13888889 </v>
   <v>      -0.47222222       0.13888889       0.13888889 </v>
   <v>      -0.41666667       0.13888889       0.13888889 </v>
   <v>      -0.36111111       0.13888889       0.13888889 </v>
   <v>      -0.30555556       0.13888889       0.13888889 </v>
   <v>      -0.25000000       0.13888889       0.13888889 </v>
   <v>      -0.19444444       0.13888889       0.13888889 </v>
   <v>      -0.13888889       0.13888889       0.13888889 </v>
   <v>       0.19444444       0.19444444       0.13888889 </v>
   <v>       0.25000000       0.19444444       0.13888889 </v>
   <v>       0.30555556       0.19444444       0.13888889 </v>
   <v>       0.36111111       0.19444444       0.13888889 </v>
   <v>       0.41666667       0.19444444       0.13888889 </v>
   <v>       0.47222222       0.19444444       0.13888889 </v>
   <v>      -0.47222222       0.19444444       0.13888889 </v>
   <v>      -0.41666667       0.19444444       0.13888889 </v>
   <v>      -0.36111111       0.19444444       0.13888889 </v>
   <v>      -0.30555556       0.19444444       0.13888889 </v>
   <v>      -0.25000000       0.19444444       0.13888889 </v>
   <v>      -0.19444444       0.19444444       0.13888889 </v>
   <v>      -0.13888889       0.19444444       0.13888889 </v>
   <v>       0.25000000       0.25000000       0.13888889 </v>
   <v>       0.30555556       0.25000000       0.13888889 </v>
   <v>       0.36111111       0.25000000       0.13888889 </v>
   <v>       0.41666667       0.25000000       0.13888889 </v>
   <v>       0.47222222       0.25000000       0.13888889 </v>
   <v>      -0.47222222       0.25000000       0.13888889 </v>
   <v>      -0.41666667       0.25000000       0.13888889 </v>
   <v>      -0.36111111       0.25000000       0.13888889 </v>
   <v>      -0.30555556       0.25000000       0.13888889 </v>
   <v>      -0.25000000       0.25000000       0.13888889 </v>
   <v>      -0.19444444       0.25000000       0.13888889 </v>
   <v>      -0.13888889       0.25000000       0.13888889 </v>
   <v>       0.30555556       0.30555556       0.13888889 </v>
   <v>       0.36111111       0.30555556       0.13888889 </v>
   <v>       0.41666667       0.30555556       0.13888889 </v>
   <v>       0.47222222       0.30555556       0.13888889 </v>
   <v>      -0.47222222       0.30555556       0.13888889 </v>
   <v>      -0.41666667       0.30555556       0.13888889 </v>
   <v>      -0.36111111       0.30555556       0.13888889 </v>
   <v>      -0.30555556       0.30555556       0.13888889 </v>
   <v>      -0.25000000       0.30555556       0.13888889 </v>
   <v>      -0.19444444       0.30555556       0.13888889 </v>
   <v>      -0.13888889       0.30555556       0.13888889 </v>
   <v>       0.36111111       0.36111111       0.13888889 </v>
   <v>       0.41666667       0.36111111       0.13888889 </v>
   <v>       0.47222222       0.36111111       0.13888889 </v>
   <v>      -0.47222222       0.36111111       0.13888889 </v>
   <v>      -0.41666667       0.36111111       0.13888889 </v>
   <v>      -0.36111111       0.36111111       0.13888889 </v>
   <v>      -0.30555556       0.36111111       0.13888889 </v>
   <v>      -0.25000000       0.36111111       0.13888889 </v>
   <v>      -0.19444444       0.36111111       0.13888889 </v>
   <v>      -0.13888889       0.36111111       0.13888889 </v>
   <v>       0.41666667       0.41666667       0.13888889 </v>
   <v>       0.47222222       0.41666667       0.13888889 </v>
   <v>      -0.47222222       0.41666667       0.13888889 </v>
   <v>      -0.41666667       0.41666667       0.13888889 </v>
   <v>      -0.36111111       0.41666667       0.13888889 </v>
   <v>      -0.30555556       0.41666667       0.13888889 </v>
   <v>      -0.25000000       0.41666667       0.13888889 </v>
   <v>      -0.19444444       0.41666667       0.13888889 </v>
   <v>      -0.13888889       0.41666667       0.13888889 </v>
   <v>       0.47222222       0.47222222       0.13888889 </v>
   <v>      -0.47222222       0.47222222       0.13888889 </v>
   <v>      -0.41666667       0.47222222       0.13888889 </v>
   <v>      -0.36111111       0.47222222       0.13888889 </v>
   <v>      -0.30555556       0.47222222       0.13888889 </v>
   <v>      -0.25000000       0.47222222       0.13888889 </v>
   <v>      -0.19444444       0.47222222       0.13888889 </v>
   <v>      -0.13888889       0.47222222       0.13888889 </v>
   <v>      -0.47222222      -0.47222222       0.13888889 </v>
   <v>      -0.41666667      -0.47222222       0.13888889 </v>
   <v>      -0.36111111      -0.47222222       0.13888889 </v>
   <v>      -0.30555556      -0.47222222       0.13888889 </v>
   <v>      -0.25000000      -0.47222222       0.13888889 </v>
   <v>      -0.19444444      -0.47222222       0.13888889 </v>
   <v>      -0.41666667      -0.41666667       0.13888889 </v>
   <v>      -0.36111111      -0.41666667       0.13888889 </v>
   <v>      -0.30555556      -0.41666667       0.13888889 </v>
   <v>      -0.25000000      -0.41666667       0.13888889 </v>
   <v>      -0.19444444      -0.41666667       0.13888889 </v>
   <v>      -0.36111111      -0.36111111       0.13888889 </v>
   <v>      -0.30555556      -0.36111111       0.13888889 </v>
   <v>      -0.25000000      -0.36111111       0.13888889 </v>
   <v>      -0.19444444      -0.36111111       0.13888889 </v>
   <v>      -0.30555556      -0.30555556       0.13888889 </v>
   <v>      -0.25000000      -0.30555556       0.13888889 </v>
   <v>      -0.19444444      -0.30555556       0.13888889 </v>
   <v>      -0.25000000      -0.25000000       0.13888889 </v>
   <v>      -0.19444444      -0.25000000       0.13888889 </v>
   <v>      -0.19444444      -0.19444444       0.13888889 </v>
   <v>       0.19444444       0.19444444       0.19444444 </v>
   <v>       0.25000000       0.19444444       0.19444444 </v>
   <v>       0.30555556       0.19444444       0.19444444 </v>
   <v>       0.36111111       0.19444444       0.19444444 </v>
   <v>       0.41666667       0.19444444       0.19444444 </v>
   <v>       0.47222222       0.19444444       0.19444444 </v>
   <v>      -0.47222222       0.19444444       0.19444444 </v>
   <v>      -0.41666667       0.19444444       0.19444444 </v>
   <v>      -0.36111111       0.19444444       0.19444444 </v>
   <v>      -0.30555556       0.19444444       0.19444444 </v>
   <v>      -0.25000000       0.19444444       0.19444444 </v>
   <v>      -0.19444444       0.19444444       0.19444444 </v>
   <v>       0.25000000       0.25000000       0.19444444 </v>
   <v>       0.30555556       0.25000000       0.19444444 </v>
   <v>       0.36111111       0.25000000       0.19444444 </v>
   <v>       0.41666667       0.25000000       0.19444444 </v>
   <v>       0.47222222       0.25000000       0.19444444 </v>
   <v>      -0.47222222       0.25000000       0.19444444 </v>
   <v>      -0.41666667       0.25000000       0.19444444 </v>
   <v>      -0.36111111       0.25000000       0.19444444 </v>
   <v>      -0.30555556       0.25000000       0.19444444 </v>
   <v>      -0.25000000       0.25000000       0.19444444 </v>
   <v>      -0.19444444       0.25000000       0.19444444 </v>
   <v>       0.30555556       0.30555556       0.19444444 </v>
   <v>       0.36111111       0.30555556       0.19444444 </v>
   <v>       0.41666667       0.30555556       0.19444444 </v>
   <v>       0.47222222       0.30555556       0.19444444 </v>
   <v>      -0.47222222       0.30555556       0.19444444 </v>
   <v>      -0.41666667       0.30555556       0.19444444 </v>
   <v>      -0.36111111       0.30555556       0.19444444 </v>
   <v>      -0.30555556       0.30555556       0.19444444 </v>
   <v>      -0.25000000       0.30555556       0.19444444 </v>
   <v>      -0.19444444       0.30555556       0.19444444 </v>
   <v>       0.36111111       0.36111111       0.19444444 </v>
   <v>       0.41666667       0.36111111       0.19444444 </v>
   <v>       0.47222222       0.36111111       0.19444444 </v>
   <v>      -0.47222222       0.36111111       0.19444444 </v>
   <v>      -0.41666667       0.36111111       0.19444444 </v>
   <v>      -0.36111111       0.36111111       0.19444444 </v>
   <v>      -0.30555556       0.36111111       0.19444444 </v>
   <v>      -0.25000000       0.36111111       0.19444444 </v>
   <v>      -0.19444444       0.36111111       0.19444444 </v>
   <v>       0.41666667       0.41666667       0.19444444 </v>
   <v>       0.47222222       0.41666667       0.19444444 </v>
   <v>      -0.47222222       0.41666667       0.19444444 </v>
   <v>      -0.41666667       0.41666667       0.19444444 </v>
   <v>      -0.36111111       0.41666667       0.19444444 </v>
   <v>      -0.30555556       0.41666667       0.19444444 </v>
   <v>      -0.25000000       0.41666667       0.19444444 </v>
   <v>      -0.19444444       0.41666667       0.19444444 </v>
   <v>       0.47222222       0.47222222       0.19444444 </v>
   <v>      -0.47222222       0.47222222       0.19444444 </v>
   <v>      -0.41666667       0.47222222       0.19444444 </v>
   <v>      -0.36111111       0.47222222       0.19444444 </v>
   <v>      -0.30555556       0.47222222       0.19444444 </v>
   <v>      -0.25000000       0.47222222       0.19444444 </v>
   <v>      -0.19444444       0.47222222       0.19444444 </v>
   <v>      -0.47222222      -0.47222222       0.19444444 </v>
   <v>      -0.41666667      -0.47222222       0.19444444 </v>
   <v>      -0.36111111      -0.47222222       0.19444444 </v>
   <v>      -0.30555556      -0.47222222       0.19444444 </v>
   <v>      -0.25000000      -0.47222222       0.19444444 </v>
   <v>      -0.41666667      -0.41666667       0.19444444 </v>
   <v>      -0.36111111      -0.41666667       0.19444444 </v>
   <v>      -0.30555556      -0.41666667       0.19444444 </v>
   <v>      -0.25000000      -0.41666667       0.19444444 </v>
   <v>      -0.36111111      -0.36111111       0.19444444 </v>
   <v>      -0.30555556      -0.36111111       0.19444444 </v>
   <v>      -0.25000000      -0.36111111       0.19444444 </v>
   <v>      -0.30555556      -0.30555556       0.19444444 </v>
   <v>      -0.25000000      -0.30555556       0.19444444 </v>
   <v>      -0.25000000      -0.25000000       0.19444444 </v>
   <v>       0.25000000       0.25000000       0.25000000 </v>
   <v>       0.30555556       0.25000000       0.25000000 </v>
   <v>       0.36111111       0.25000000       0.25000000 </v>
   <v>       0.41666667       0.25000000       0.25000000 </v>
   <v>       0.47222222       0.25000000       0.25000000 </v>
   <v>      -0.47222222       0.25000000       0.25000000 </v>
   <v>      -0.41666667       0.25000000       0.25000000 </v>
   <v>      -0.36111111       0.25000000       0.25000000 </v>
   <v>      -0.30555556       0.25000000       0.25000000 </v>
   <v>      -0.25000000       0.25000000       0.25000000 </v>
   <v>       0.30555556       0.30555556       0.25000000 </v>
   <v>       0.36111111       0.30555556       0.25000000 </v>
   <v>       0.41666667       0.30555556       0.25000000 </v>
   <v>       0.47222222       0.30555556       0.25000000 </v>
   <v>      -0.47222222       0.30555556       0.25000000 </v>
   <v>      -0.41666667       0.30555556       0.25000000 </v>
   <v>      -0.36111111       0.30555556       0.25000000 </v>
   <v>      -0.30555556       0.30555556       0.25000000 </v>
   <v>      -0.25000000       0.30555556       0.25000000 </v>
   <v>       0.36111111       0.36111111       0.25000000 </v>
   <v>       0.41666667       0.36111111       0.25000000 </v>
   <v>       0.47222222       0.36111111       0.25000000 </v>
   <v>      -0.47222222       0.36111111       0.25000000 </v>
   <v>      -0.41666667       0.36111111       0.25000000 </v>
   <v>      -0.36111111       0.36111111       0.25000000 </v>
   <v>      -0.30555556       0.36111111       0.25000000 </v>
   <v>      -0.25000000       0.36111111       0.25000000 </v>
   <v>       0.41666667       0.41666667       0.25000000 </v>
   <v>       0.47222222       0.41666667       0.25000000 </v>
   <v>      -0.47222222       0.41666667       0.25000000 </v>
   <v>      -0.41666667       0.41666667       0.25000000 </v>
   <v>      -0.36111111       0.41666667       0.25000000 </v>
   <v>      -0.30555556       0.41666667       0.25000000 </v>
   <v>      -0.25000000       0.41666667       0.25000000 </v>
   <v>       0.47222222       0.47222222       0.25000000 </v>
   <v>      -0.47222222       0.47222222       0.25000000 </v>
   <v>      -0.41666667       0.47222222       0.25000000 </v>
   <v>      -0.36111111       0.47222222       0.25000000 </v>
   <v>      -0.30555556       0.47222222       0.25000000 </v>
   <v>      -0.25000000       0.47222222       0.25000000 </v>
   <v>      -0.47222222      -0.47222222       0.25000000 </v>
   <v>      -0.41666667      -0.47222222       0.25000000 </v>
   <v>      -0.36111111      -0.47222222       0.25000000 </v>
   <v>      -0.30555556      -0.47222222       0.25000000 </v>
   <v>      -0.41666667      -0.41666667       0.25000000 </v>
   <v>      -0.36111111      -0.41666667       0.25000000 </v>
   <v>      -0.30555556      -0.41666667       0.25000000 </v>
   <v>      -0.36111111      -0.36111111       0.25000000 </v>
   <v>      -0.30555556      -0.36111111       0.25000000 </v>
   <v>      -0.30555556      -0.30555556       0.25000000 </v>
   <v>       0.30555556       0.30555556       0.30555556 </v>
   <v>       0.36111111       0.30555556       0.30555556 </v>
   <v>       0.41666667       0.30555556       0.30555556 </v>
   <v>       0.47222222       0.30555556       0.30555556 </v>
   <v>      -0.47222222       0.30555556       0.30555556 </v>
   <v>      -0.41666667       0.30555556       0.30555556 </v>
   <v>      -0.36111111       0.30555556       0.30555556 </v>
   <v>      -0.30555556       0.30555556       0.30555556 </v>
   <v>       0.36111111       0.36111111       0.30555556 </v>
   <v>       0.41666667       0.36111111       0.30555556 </v>
   <v>       0.47222222       0.36111111       0.30555556 </v>
   <v>      -0.47222222       0.36111111       0.30555556 </v>
   <v>      -0.41666667       0.36111111       0.30555556 </v>
   <v>      -0.36111111       0.36111111       0.30555556 </v>
   <v>      -0.30555556       0.36111111       0.30555556 </v>
   <v>       0.41666667       0.41666667       0.30555556 </v>
   <v>       0.47222222       0.41666667       0.30555556 </v>
   <v>      -0.47222222       0.41666667       0.30555556 </v>
   <v>      -0.41666667       0.41666667       0.30555556 </v>
   <v>      -0.36111111       0.41666667       0.30555556 </v>
   <v>      -0.30555556       0.41666667       0.30555556 </v>
   <v>       0.47222222       0.47222222       0.30555556 </v>
   <v>      -0.47222222       0.47222222       0.30555556 </v>
   <v>      -0.41666667       0.47222222       0.30555556 </v>
   <v>      -0.36111111       0.47222222       0.30555556 </v>
   <v>      -0.30555556       0.47222222       0.30555556 </v>
   <v>      -0.47222222      -0.47222222       0.30555556 </v>
   <v>      -0.41666667      -0.47222222       0.30555556 </v>
   <v>      -0.36111111      -0.47222222       0.30555556 </v>
   <v>      -0.41666667      -0.41666667       0.30555556 </v>
   <v>      -0.36111111      -0.41666667       0.30555556 </v>
   <v>      -0.36111111      -0.36111111       0.30555556 </v>
   <v>       0.36111111       0.36111111       0.36111111 </v>
   <v>       0.41666667       0.36111111       0.36111111 </v>
   <v>       0.47222222       0.36111111       0.36111111 </v>
   <v>      -0.47222222       0.36111111       0.36111111 </v>
   <v>      -0.41666667       0.36111111       0.36111111 </v>
   <v>      -0.36111111       0.36111111       0.36111111 </v>
   <v>       0.41666667       0.41666667       0.36111111 </v>
   <v>       0.47222222       0.41666667       0.36111111 </v>
   <v>      -0.47222222       0.41666667       0.36111111 </v>
   <v>      -0.41666667       0.41666667       0.36111111 </v>
   <v>      -0.36111111       0.41666667       0.36111111 </v>
   <v>       0.47222222       0.47222222       0.36111111 </v>
   <v>      -0.47222222       0.47222222       0.36111111 </v>
   <v>      -0.41666667       0.47222222       0.36111111 </v>
   <v>      -0.36111111       0.47222222       0.36111111 </v>
   <v>      -0.47222222      -0.47222222       0.36111111 </v>
   <v>      -0.41666667      -0.47222222       0.36111111 </v>
   <v>      -0.41666667      -0.41666667       0.36111111 </v>
   <v>       0.41666667       0.41666667       0.41666667 </v>
   <v>       0.47222222       0.41666667       0.41666667 </v>
   <v>      -0.47222222       0.41666667       0.41666667 </v>
   <v>      -0.41666667       0.41666667       0.41666667 </v>
   <v>       0.47222222       0.47222222       0.41666667 </v>
   <v>      -0.47222222       0.47222222       0.41666667 </v>
   <v>      -0.41666667       0.47222222       0.41666667 </v>
   <v>      -0.47222222      -0.47222222       0.41666667 </v>
   <v>       0.47222222       0.47222222       0.47222222 </v>
   <v>      -0.47222222       0.47222222       0.47222222 </v>
  </varray>
  <varray name="weights" >
   <v>       0.00034294 </v>
   <v>       0.00102881 </v>
   <v>       0.00102881 </v>
   <v>       0.00102881 </v>
   <v>       0.00102881 </v>
   <v>       0.00102881 </v>
   <v>       0.00102881 </v>
   <v>       0.00102881 </v>
   <v>       0.00102881 </v>
   <v>       0.00102881 </v>
   <v>       0.00102881 </v>
   <v>       0.00102881 </v>
   <v>       0.00102881 </v>
   <v>       0.00102881 </v>
   <v>       0.00102881 </v>
   <v>       0.00102881 </v>
   <v>       0.00102881 </v>
   <v>       0.00102881 </v>
   <v>       0.00102881 </v>
   <v>       0.00205761 </v>
   <v>       0.00205761 </v>
   <v>       0.00205761 </v>
   <v>       0.00205761 </v>
   <v>       0.00205761 </v>
   <v>       0.00205761 </v>
   <v>       0.00205761 </v>
   <v>       0.00205761 </v>
   <v>       0.00205761 </v>
   <v>       0.00205761 </v>
   <v>       0.00205761 </v>
   <v>       0.00205761 </v>
   <v>       0.00205761 </v>
   <v>       0.00205761 </v>
   <v>       0.00205761 </v>
   <v>       0.00205761 </v>
   <v>       0.00102881 </v>
   <v>       0.00205761 </v>
   <v>       0.00205761 </v>
   <v>       0.00205761 </v>
   <v>       0.00205761 </v>
   <v>       0.00205761 </v>
   <v>       0.00205761 </v>
   <v>       0.00205761 </v>
   <v>       0.00205761 </v>
   <v>       0.00205761 </v>
   <v>       0.00205761 </v>
   <v>       0.00205761 </v>
   <v>       0.00205761 </v>
   <v>       0.00205761 </v>
   <v>       0.00205761 </v>
   <v>       0.00205761 </v>
   <v>       0.00102881 </v>
   <v>       0.00205761 </v>
   <v>       0.00205761 </v>
   <v>       0.00205761 </v>
   <v>       0.00205761 </v>
   <v>       0.00205761 </v>
   <v>       0.00205761 </v>
   <v>       0.00205761 </v>
   <v>       0.00205761 </v>
   <v>       0.00205761 </v>
   <v>       0.00205761 </v>
   <v>       0.00205761 </v>
   <v>       0.00205761 </v>
   <v>       0.00205761 </v>
   <v>       0.00205761 </v>
   <v>       0.00102881 </v>
   <v>       0.00205761 </v>
   <v>       0.00205761 </v>
   <v>       0.00205761 </v>
   <v>       0.00205761 </v>
   <v>       0.00205761 </v>
   <v>       0.00205761 </v>
   <v>       0.00205761 </v>
   <v>       0.00205761 </v>
   <v>       0.00205761 </v>
   <v>       0.00205761 </v>
   <v>       0.00205761 </v>
   <v>       0.00205761 </v>
   <v>       0.00205761 </v>
   <v>       0.00102881 </v>
   <v>       0.00205761 </v>
   <v>       0.00205761 </v>
   <v>       0.00205761 </v>
   <v>       0.00205761 </v>
   <v>       0.00205761 </v>
   <v>       0.00205761 </v>
   <v>       0.00205761 </v>
   <v>       0.00205761 </v>
   <v>       0.00205761 </v>
   <v>       0.00205761 </v>
   <v>       0.00205761 </v>
   <v>       0.00205761 </v>
   <v>       0.00102881 </v>
   <v>       0.00205761 </v>
   <v>       0.00205761 </v>
   <v>       0.00205761 </v>
   <v>       0.00205761 </v>
   <v>       0.00205761 </v>
   <v>       0.00205761 </v>
   <v>       0.00205761 </v>
   <v>       0.00205761 </v>
   <v>       0.00205761 </v>
   <v>       0.00205761 </v>
   <v>       0.00205761 </v>
   <v>       0.00102881 </v>
   <v>       0.00205761 </v>
   <v>       0.00205761 </v>
   <v>       0.00205761 </v>
   <v>       0.00205761 </v>
   <v>       0.00205761 </v>
   <v>       0.00205761 </v>
   <v>       0.00205761 </v>
   <v>       0.00205761 </v>
   <v>       0.00205761 </v>
   <v>       0.00205761 </v>
   <v>       0.00102881 </v>
   <v>       0.00205761 </v>
   <v>       0.00205761 </v>
   <v>       0.00205761 </v>
   <v>       0.00205761 </v>
   <v>       0.00205761 </v>
   <v>       0.00205761 </v>
   <v>       0.00205761 </v>
   <v>       0.00205761 </v>
   <v>       0.00205761 </v>
   <v>       0.00102881 </v>
   <v>       0.00205761 </v>
   <v>       0.00205761 </v>
   <v>       0.00205761 </v>
   <v>       0.00205761 </v>
   <v>       0.00205761 </v>
   <v>       0.00205761 </v>
   <v>       0.00205761 </v>
   <v>       0.00102881 </v>
   <v>       0.00205761 </v>
   <v>       0.00205761 </v>
   <v>       0.00205761 </v>
   <v>       0.00205761 </v>
   <v>       0.00205761 </v>
   <v>       0.00205761 </v>
   <v>       0.00102881 </v>
   <v>       0.00205761 </v>
   <v>       0.00205761 </v>
   <v>       0.00205761 </v>
   <v>       0.00205761 </v>
   <v>       0.00205761 </v>
   <v>       0.00102881 </v>
   <v>       0.00205761 </v>
   <v>       0.00205761 </v>
   <v>       0.00205761 </v>
   <v>       0.00205761 </v>
   <v>       0.00102881 </v>
   <v>       0.00205761 </v>
   <v>       0.00205761 </v>
   <v>       0.00205761 </v>
   <v>       0.00102881 </v>
   <v>       0.00205761 </v>
   <v>       0.00205761 </v>
   <v>       0.00102881 </v>
   <v>       0.00205761 </v>
   <v>       0.00102881 </v>
   <v>       0.00034294 </v>
   <v>       0.00102881 </v>
   <v>       0.00102881 </v>
   <v>       0.00102881 </v>
   <v>       0.00102881 </v>
   <v>       0.00102881 </v>
   <v>       0.00102881 </v>
   <v>       0.00102881 </v>
   <v>       0.00102881 </v>
   <v>       0.00102881 </v>
   <v>       0.00102881 </v>
   <v>       0.00102881 </v>
   <v>       0.00102881 </v>
   <v>       0.00102881 </v>
   <v>       0.00102881 </v>
   <v>       0.00102881 </v>
   <v>       0.00102881 </v>
   <v>       0.00205761 </v>
   <v>       0.00205761 </v>
   <v>       0.00205761 </v>
   <v>       0.00205761 </v>
   <v>       0.00205761 </v>
   <v>       0.00205761 </v>
   <v>       0.00205761 </v>
   <v>       0.00205761 </v>
   <v>       0.00205761 </v>
   <v>       0.00205761 </v>
   <v>       0.00205761 </v>
   <v>       0.00205761 </v>
   <v>       0.00205761 </v>
   <v>       0.00205761 </v>
   <v>       0.00102881 </v>
   <v>       0.00205761 </v>
   <v>       0.00205761 </v>
   <v>       0.00205761 </v>
   <v>       0.00205761 </v>
   <v>       0.00205761 </v>
   <v>       0.00205761 </v>
   <v>       0.00205761 </v>
   <v>       0.00205761 </v>
   <v>       0.00205761 </v>
   <v>       0.00205761 </v>
   <v>       0.00205761 </v>
   <v>       0.00205761 </v>
   <v>       0.00205761 </v>
   <v>       0.00102881 </v>
   <v>       0.00205761 </v>
   <v>       0.00205761 </v>
   <v>       0.00205761 </v>
   <v>       0.00205761 </v>
   <v>       0.00205761 </v>
   <v>       0.00205761 </v>
   <v>       0.00205761 </v>
   <v>       0.00205761 </v>
   <v>       0.00205761 </v>
   <v>       0.00205761 </v>
   <v>       0.00205761 </v>
   <v>       0.00205761 </v>
   <v>       0.00102881 </v>
   <v>       0.00205761 </v>
   <v>       0.00205761 </v>
   <v>       0.00205761 </v>
   <v>       0.00205761 </v>
   <v>       0.00205761 </v>
   <v>       0.00205761 </v>
   <v>       0.00205761 </v>
   <v>       0.00205761 </v>
   <v>       0.00205761 </v>
   <v>       0.00205761 </v>
   <v>       0.00205761 </v>
   <v>       0.00102881 </v>
   <v>       0.00205761 </v>
   <v>       0.00205761 </v>
   <v>       0.00205761 </v>
   <v>       0.00205761 </v>
   <v>       0.00205761 </v>
   <v>       0.00205761 </v>
   <v>       0.00205761 </v>
   <v>       0.00205761 </v>
   <v>       0.00205761 </v>
   <v>       0.00205761 </v>
   <v>       0.00102881 </v>
   <v>       0.00205761 </v>
   <v>       0.00205761 </v>
   <v>       0.00205761 </v>
   <v>       0.00205761 </v>
   <v>       0.00205761 </v>
   <v>       0.00205761 </v>
   <v>       0.00205761 </v>
   <v>       0.00205761 </v>
   <v>       0.00205761 </v>
   <v>       0.00102881 </v>
   <v>       0.00205761 </v>
   <v>       0.00205761 </v>
   <v>       0.00205761 </v>
   <v>       0.00205761 </v>
   <v>       0.00205761 </v>
   <v>       0.00205761 </v>
   <v>       0.00205761 </v>
   <v>       0.00205761 </v>
   <v>       0.00102881 </v>
   <v>       0.00205761 </v>
   <v>       0.00205761 </v>
   <v>       0.00205761 </v>
   <v>       0.00205761 </v>
   <v>       0.00205761 </v>
   <v>       0.00205761 </v>
   <v>       0.00102881 </v>
   <v>       0.00205761 </v>
   <v>       0.00205761 </v>
   <v>       0.00205761 </v>
   <v>       0.00205761 </v>
   <v>       0.00205761 </v>
   <v>       0.00102881 </v>
   <v>       0.00205761 </v>
   <v>       0.00205761 </v>
   <v>       0.00205761 </v>
   <v>       0.00205761 </v>
   <v>       0.00102881 </v>
   <v>       0.00205761 </v>
   <v>       0.00205761 </v>
   <v>       0.00205761 </v>
   <v>       0.00102881 </v>
   <v>       0.00205761 </v>
   <v>       0.00205761 </v>
   <v>       0.00102881 </v>
   <v>       0.00205761 </v>
   <v>       0.00102881 </v>
   <v>       0.00034294 </v>
   <v>       0.00102881 </v>
   <v>       0.00102881 </v>
   <v>       0.00102881 </v>
   <v>       0.00102881 </v>
   <v>       0.00102881 </v>
   <v>       0.00102881 </v>
   <v>       0.00102881 </v>
   <v>       0.00102881 </v>
   <v>       0.00102881 </v>
   <v>       0.00102881 </v>
   <v>       0.00102881 </v>
   <v>       0.00102881 </v>
   <v>       0.00102881 </v>
   <v>       0.00102881 </v>
   <v>       0.00205761 </v>
   <v>       0.00205761 </v>
   <v>       0.00205761 </v>
   <v>       0.00205761 </v>
   <v>       0.00205761 </v>
   <v>       0.00205761 </v>
   <v>       0.00205761 </v>
   <v>       0.00205761 </v>
   <v>       0.00205761 </v>
   <v>       0.00205761 </v>
   <v>       0.00205761 </v>
   <v>       0.00205761 </v>
   <v>       0.00102881 </v>
   <v>       0.00205761 </v>
   <v>       0.00205761 </v>
   <v>       0.00205761 </v>
   <v>       0.00205761 </v>
   <v>       0.00205761 </v>
   <v>       0.00205761 </v>
   <v>       0.00205761 </v>
   <v>       0.00205761 </v>
   <v>       0.00205761 </v>
   <v>       0.00205761 </v>
   <v>       0.00205761 </v>
   <v>       0.00102881 </v>
   <v>       0.00205761 </v>
   <v>       0.00205761 </v>
   <v>       0.00205761 </v>
   <v>       0.00205761 </v>
   <v>       0.00205761 </v>
   <v>       0.00205761 </v>
   <v>       0.00205761 </v>
   <v>       0.00205761 </v>
   <v>       0.00205761 </v>
   <v>       0.00205761 </v>
   <v>       0.00102881 </v>
   <v>       0.00205761 </v>
   <v>       0.00205761 </v>
   <v>       0.00205761 </v>
   <v>       0.00205761 </v>
   <v>       0.00205761 </v>
   <v>       0.00205761 </v>
   <v>       0.00205761 </v>
   <v>       0.00205761 </v>
   <v>       0.00205761 </v>
   <v>       0.00102881 </v>
   <v>       0.00205761 </v>
   <v>       0.00205761 </v>
   <v>       0.00205761 </v>
   <v>       0.00205761 </v>
   <v>       0.00205761 </v>
   <v>       0.00205761 </v>
   <v>       0.00205761 </v>
   <v>       0.00205761 </v>
   <v>       0.00102881 </v>
   <v>       0.00205761 </v>
   <v>       0.00205761 </v>
   <v>       0.00205761 </v>
   <v>       0.00205761 </v>
   <v>       0.00205761 </v>
   <v>       0.00205761 </v>
   <v>       0.00205761 </v>
   <v>       0.00102881 </v>
   <v>       0.00205761 </v>
   <v>       0.00205761 </v>
   <v>       0.00205761 </v>
   <v>       0.00205761 </v>
   <v>       0.00205761 </v>
   <v>       0.00102881 </v>
   <v>       0.00205761 </v>
   <v>       0.00205761 </v>
   <v>       0.00205761 </v>
   <v>       0.00205761 </v>
   <v>       0.00102881 </v>
   <v>       0.00205761 </v>
   <v>       0.00205761 </v>
   <v>       0.00205761 </v>
   <v>       0.00102881 </v>
   <v>       0.00205761 </v>
   <v>       0.00205761 </v>
   <v>       0.00102881 </v>
   <v>       0.00205761 </v>
   <v>       0.00102881 </v>
   <v>       0.00034294 </v>
   <v>       0.00102881 </v>
   <v>       0.00102881 </v>
   <v>       0.00102881 </v>
   <v>       0.00102881 </v>
   <v>       0.00102881 </v>
   <v>       0.00102881 </v>
   <v>       0.00102881 </v>
   <v>       0.00102881 </v>
   <v>       0.00102881 </v>
   <v>       0.00102881 </v>
   <v>       0.00102881 </v>
   <v>       0.00102881 </v>
   <v>       0.00205761 </v>
   <v>       0.00205761 </v>
   <v>       0.00205761 </v>
   <v>       0.00205761 </v>
   <v>       0.00205761 </v>
   <v>       0.00205761 </v>
   <v>       0.00205761 </v>
   <v>       0.00205761 </v>
   <v>       0.00205761 </v>
   <v>       0.00205761 </v>
   <v>       0.00102881 </v>
   <v>       0.00205761 </v>
   <v>       0.00205761 </v>
   <v>       0.00205761 </v>
   <v>       0.00205761 </v>
   <v>       0.00205761 </v>
   <v>       0.00205761 </v>
   <v>       0.00205761 </v>
   <v>       0.00205761 </v>
   <v>       0.00205761 </v>
   <v>       0.00102881 </v>
   <v>       0.00205761 </v>
   <v>       0.00205761 </v>
   <v>       0.00205761 </v>
   <v>       0.00205761 </v>
   <v>       0.00205761 </v>
   <v>       0.00205761 </v>
   <v>       0.00205761 </v>
   <v>       0.00205761 </v>
   <v>       0.00102881 </v>
   <v>       0.00205761 </v>
   <v>       0.00205761 </v>
   <v>       0.00205761 </v>
   <v>       0.00205761 </v>
   <v>       0.00205761 </v>
   <v>       0.00205761 </v>
   <v>       0.00205761 </v>
   <v>       0.00102881 </v>
   <v>       0.00205761 </v>
   <v>       0.00205761 </v>
   <v>       0.00205761 </v>
   <v>       0.00205761 </v>
   <v>       0.00205761 </v>
   <v>       0.00205761 </v>
   <v>       0.00102881 </v>
   <v>       0.00205761 </v>
   <v>       0.00205761 </v>
   <v>       0.00205761 </v>
   <v>       0.00205761 </v>
   <v>       0.00102881 </v>
   <v>       0.00205761 </v>
   <v>       0.00205761 </v>
   <v>       0.00205761 </v>
   <v>       0.00102881 </v>
   <v>       0.00205761 </v>
   <v>       0.00205761 </v>
   <v>       0.00102881 </v>
   <v>       0.00205761 </v>
   <v>       0.00102881 </v>
   <v>       0.00034294 </v>
   <v>       0.00102881 </v>
   <v>       0.00102881 </v>
   <v>       0.00102881 </v>
   <v>       0.00102881 </v>
   <v>       0.00102881 </v>
   <v>       0.00102881 </v>
   <v>       0.00102881 </v>
   <v>       0.00102881 </v>
   <v>       0.00102881 </v>
   <v>       0.00102881 </v>
   <v>       0.00205761 </v>
   <v>       0.00205761 </v>
   <v>       0.00205761 </v>
   <v>       0.00205761 </v>
   <v>       0.00205761 </v>
   <v>       0.00205761 </v>
   <v>       0.00205761 </v>
   <v>       0.00205761 </v>
   <v>       0.00102881 </v>
   <v>       0.00205761 </v>
   <v>       0.00205761 </v>
   <v>       0.00205761 </v>
   <v>       0.00205761 </v>
   <v>       0.00205761 </v>
   <v>       0.00205761 </v>
   <v>       0.00205761 </v>
   <v>       0.00102881 </v>
   <v>       0.00205761 </v>
   <v>       0.00205761 </v>
   <v>       0.00205761 </v>
   <v>       0.00205761 </v>
   <v>       0.00205761 </v>
   <v>       0.00205761 </v>
   <v>       0.00102881 </v>
   <v>       0.00205761 </v>
   <v>       0.00205761 </v>
   <v>       0.00205761 </v>
   <v>       0.00205761 </v>
   <v>       0.00205761 </v>
   <v>       0.00102881 </v>
   <v>       0.00205761 </v>
   <v>       0.00205761 </v>
   <v>       0.00205761 </v>
   <v>       0.00102881 </v>
   <v>       0.00205761 </v>
   <v>       0.00205761 </v>
   <v>       0.00102881 </v>
   <v>       0.00205761 </v>
   <v>       0.00102881 </v>
   <v>       0.00034294 </v>
   <v>       0.00102881 </v>
   <v>       0.00102881 </v>
   <v>       0.00102881 </v>
   <v>       0.00102881 </v>
   <v>       0.00102881 </v>
   <v>       0.00102881 </v>
   <v>       0.00102881 </v>
   <v>       0.00102881 </v>
   <v>       0.00205761 </v>
   <v>       0.00205761 </v>
   <v>       0.00205761 </v>
   <v>       0.00205761 </v>
   <v>       0.00205761 </v>
   <v>       0.00205761 </v>
   <v>       0.00102881 </v>
   <v>       0.00205761 </v>
   <v>       0.00205761 </v>
   <v>       0.00205761 </v>
   <v>       0.00205761 </v>
   <v>       0.00205761 </v>
   <v>       0.00102881 </v>
   <v>       0.00205761 </v>
   <v>       0.00205761 </v>
   <v>       0.00205761 </v>
   <v>       0.00205761 </v>
   <v>       0.00102881 </v>
   <v>       0.00205761 </v>
   <v>       0.00205761 </v>
   <v>       0.00102881 </v>
   <v>       0.00205761 </v>
   <v>       0.00102881 </v>
   <v>       0.00034294 </v>
   <v>       0.00102881 </v>
   <v>       0.00102881 </v>
   <v>       0.00102881 </v>
   <v>       0.00102881 </v>
   <v>       0.00102881 </v>
   <v>       0.00102881 </v>
   <v>       0.00205761 </v>
   <v>       0.00205761 </v>
   <v>       0.00205761 </v>
   <v>       0.00205761 </v>
   <v>       0.00102881 </v>
   <v>       0.00205761 </v>
   <v>       0.00205761 </v>
   <v>       0.00205761 </v>
   <v>       0.00102881 </v>
   <v>       0.00205761 </v>
   <v>       0.00102881 </v>
   <v>       0.00034294 </v>
   <v>       0.00102881 </v>
   <v>       0.00102881 </v>
   <v>       0.00102881 </v>
   <v>       0.00102881 </v>
   <v>       0.00205761 </v>
   <v>       0.00205761 </v>
   <v>       0.00102881 </v>
   <v>       0.00034294 </v>
   <v>       0.00102881 </v>
  </varray>
 </kpoints>
 <parameters>
  <separator name="general" >
   <i type="string" name="SYSTEM">unknown system</i>
   <i type="logical" name="LCOMPAT"> F  </i>
  </separator>
  <separator name="electronic" >
   <i type="string" name="PREC">accura</i>
   <i name="ENMAX">    350.00000000</i>
   <i name="ENAUG">    322.06900000</i>
   <i name="EDIFF">      0.00000100</i>
   <i type="int" name="IALGO">    38</i>
   <i type="int" name="IWAVPR">    11</i>
   <i type="int" name="NBANDS">     8</i>
   <i type="int" name="NBANDSLOW">    -1</i>
   <i type="int" name="NBANDSHIGH">    -1</i>
   <i name="NELECT">      4.00000000</i>
   <i type="int" name="TURBO">     0</i>
   <i type="int" name="IRESTART">     0</i>
   <i type="int" name="NREBOOT">     0</i>
   <i type="int" name="NMIN">     0</i>
   <i name="EREF">      0.00000000</i>
   <separator name="electronic smearing" >
    <i type="int" name="ISMEAR">     0</i>
    <i name="SIGMA">      0.05000000</i>
    <i name="KSPACING">      0.50000000</i>
    <i type="logical" name="KGAMMA"> T  </i>
    <i type="logical" name="KBLOWUP"> T  </i>
   </separator>
   <separator name="electronic projectors" >
    <i type="logical" name="LREAL"> F  </i>
    <v name="ROPT">      0.00000000</v>
    <i type="int" name="LMAXPAW">  -100</i>
    <i type="int" name="LMAXMIX">     2</i>
    <i type="logical" name="NLSPLINE"> F  </i>
   </separator>
   <separator name="electronic startup" >
    <i type="int" name="ISTART">     0</i>
    <i type="int" name="ICHARG">     2</i>
    <i type="int" name="INIWAV">     1</i>
   </separator>
   <separator name="electronic spin" >
    <i type="int" name="ISPIN">     1</i>
    <i type="logical" name="LNONCOLLINEAR"> F  </i>
    <v name="MAGMOM">      1.00000000</v>
    <i name="NUPDOWN">     -1.00000000</i>
    <i type="logical" name="LSORBIT"> F  </i>
    <v name="SAXIS">      0.00000000      0.00000000      1.00000000</v>
    <i type="logical" name="LSPIRAL"> F  </i>
    <v name="QSPIRAL">      0.00000000      0.00000000      0.00000000</v>
    <i type="logical" name="LZEROZ"> F  </i>
   </separator>
   <separator name="electronic exchange-correlation" >
    <i type="logical" name="LASPH"> T  </i>
    <i type="logical" name="LMETAGGA"> F  </i>
   </separator>
   <separator name="electronic convergence" >
    <i type="int" name="NELM">    90</i>
    <i type="int" name="NELMDL">    -5</i>
    <i type="int" name="NELMIN">     6</i>
    <i name="ENINI">    350.00000000</i>
    <separator name="electronic convergence detail" >
     <i type="logical" name="LDIAG"> T  </i>
     <i type="logical" name="LSUBROT"> F  </i>
     <i name="WEIMIN">      0.00100000</i>
     <i name="EBREAK">      0.00000003</i>
     <i name="DEPER">      0.30000000</i>
     <i type="int" name="NRMM">     4</i>
     <i name="TIME">      0.40000000</i>
    </separator>
   </separator>
   <separator name="electronic mixer" >
    <i name="AMIX">      0.40000000</i>
    <i name="BMIX">      1.00000000</i>
    <i name="AMIN">      0.10000000</i>
    <i name="AMIX_MAG">      1.60000000</i>
    <i name="BMIX_MAG">      1.00000000</i>
    <separator name="electronic mixer details" >
     <i type="int" name="IMIX">     4</i>
     <i type="logical" name="MIXFIRST"> F  </i>
     <i type="int" name="MAXMIX">   -45</i>
     <i name="WC">    100.00000000</i>
     <i type="int" name="INIMIX">     1</i>
     <i type="int" name="MIXPRE">     1</i>
     <i type="int" name="MREMOVE">     5</i>
    </separator>
   </separator>
   <separator name="electronic dipolcorrection" >
    <i type="logical" name="LDIPOL"> F  </i>
    <i type="logical" name="LMONO"> F  </i>
    <i type="int" name="IDIPOL">     0</i>
    <i name="EPSILON">      1.00000000</i>
    <v name="DIPOL">   -100.00000000   -100.00000000   -100.00000000</v>
    <i name="EFIELD">      0.00000000</i>
   </separator>
  </separator>
  <separator name="grids" >
   <i type="int" name="NGX">    18</i>
   <i type="int" name="NGY">    18</i>
   <i type="int" name="NGZ">    18</i>
   <i type="int" name="NGXF">    36</i>
   <i type="int" name="NGYF">    36</i>
   <i type="int" name="NGZF">    36</i>
   <i type="logical" name="ADDGRID"> T  </i>
  </separator>
  <separator name="ionic" >
   <i type="int" name="NSW">   100</i>
   <i type="int" name="IBRION">     2</i>
   <i type="int" name="MDALGO">     0</i>
   <i type="int" name="ISIF">     3</i>
   <i name="PSTRESS">      0.00000000</i>
   <i name="EDIFFG">     -0.00200000</i>
   <i type="int" name="NFREE">     1</i>
   <i name="POTIM">      0.50000000</i>
   <i name="SMASS">     -3.00000000</i>
   <i name="SCALEE">      1.00000000</i>
  </separator>
  <separator name="ionic md" >
   <i name="TEBEG">      0.00010000</i>
   <i name="TEEND">      0.00010000</i>
   <i type="int" name="NBLOCK">     1</i>
   <i type="int" name="KBLOCK">   100</i>
   <i type="int" name="NPACO">   256</i>
   <i name="APACO">     16.00000000</i>
  </separator>
  <separator name="symmetry" >
   <i type="int" name="ISYM">     2</i>
   <i name="SYMPREC">      0.00001000</i>
  </separator>
  <separator name="dos" >
   <i type="int" name="LORBIT">     0</i>
   <v name="RWIGS">     -1.00000000</v>
   <i type="int" name="NEDOS">   301</i>
   <i name="EMIN">     10.00000000</i>
   <i name="EMAX">    -10.00000000</i>
   <i name="EFERMI">      0.00000000</i>
  </separator>
  <separator name="writing" >
   <i type="int" name="NWRITE">     2</i>
   <i type="logical" name="LWAVE"> F  </i>
   <i type="logical" name="LDOWNSAMPLE"> F  </i>
   <i type="logical" name="LCHARG"> F  </i>
   <i type="logical" name="LPARD"> F  </i>
   <i type="logical" name="LVTOT"> F  </i>
   <i type="logical" name="LVHAR"> F  </i>
   <i type="logical" name="LELF"> F  </i>
   <i type="logical" name="LOPTICS"> F  </i>
   <v name="STM">      0.00000000      0.00000000      0.00000000      0.00000000      0.00000000      0.00000000      0.00000000</v>
  </separator>
  <separator name="performance" >
   <i type="int" name="NPAR">     4</i>
   <i type="int" name="NSIM">     4</i>
   <i type="int" name="NBLK">    -1</i>
   <i type="logical" name="LPLANE"> T  </i>
   <i type="logical" name="LSCALAPACK"> T  </i>
   <i type="logical" name="LSCAAWARE"> F  </i>
   <i type="logical" name="LSCALU"> F  </i>
   <i type="logical" name="LASYNC"> F  </i>
   <i type="logical" name="LORBITALREAL"> F  </i>
  </separator>
  <separator name="miscellaneous" >
   <i type="int" name="IDIOT">     3</i>
   <i type="int" name="PHON_NSTRUCT">    -1</i>
   <i type="logical" name="LMUSIC"> F  </i>
   <v name="POMASS">     28.08500000</v>
   <v name="DARWINR">      0.00000000</v>
   <v name="DARWINV">      1.00000000</v>
   <i type="logical" name="LCORR"> T  </i>
  </separator>
  <i type="logical" name="GGA_COMPAT"> T  </i>
  <i type="logical" name="LBERRY"> F  </i>
  <i type="int" name="ICORELEVEL">     0</i>
  <i type="logical" name="LDAU"> F  </i>
  <i type="int" name="I_CONSTRAINED_M">     0</i>
  <separator name="electronic exchange-correlation" >
   <i type="string" name="GGA">--</i>
   <i type="int" name="VOSKOWN">     0</i>
   <i type="logical" name="LHFCALC"> F  </i>
   <i type="string" name="PRECFOCK"></i>
   <i type="logical" name="LSYMGRAD"> F  </i>
   <i type="logical" name="LHFONE"> F  </i>
   <i type="logical" name="LRHFCALC"> F  </i>
   <i type="logical" name="LTHOMAS"> F  </i>
   <i type="logical" name="LMODELHF"> F  </i>
   <i type="logical" name="LFOCKACE"> F  </i>
   <i name="ENCUT4O">     -1.00000000</i>
   <i type="int" name="EXXOEP">     0</i>
   <i type="int" name="FOURORBIT">     0</i>
   <i name="AEXX">      0.00000000</i>
   <i name="HFALPHA">      0.00000000</i>
   <i name="MCALPHA">      0.00000000</i>
   <i name="ALDAX">      1.00000000</i>
   <i name="AGGAX">      1.00000000</i>
   <i name="ALDAC">      1.00000000</i>
   <i name="AGGAC">      1.00000000</i>
   <i type="int" name="NKREDX">     1</i>
   <i type="int" name="NKREDY">     1</i>
   <i type="int" name="NKREDZ">     1</i>
   <i type="logical" name="SHIFTRED"> F  </i>
   <i type="logical" name="ODDONLY"> F  </i>
   <i type="logical" name="EVENONLY"> F  </i>
   <i type="int" name="LMAXFOCK">     0</i>
   <i type="int" name="NMAXFOCKAE">     0</i>
   <i type="logical" name="LFOCKAEDFT"> F  </i>
   <i name="HFSCREEN">      0.00000000</i>
   <i name="HFSCREENC">      0.00000000</i>
   <i type="int" name="NBANDSGWLOW">     0</i>
  </separator>
  <separator name="vdW DFT" >
   <i type="logical" name="LUSE_VDW"> F  </i>
   <i name="Zab_VDW">     -0.84910000</i>
   <i name="PARAM1">      0.12340000</i>
   <i name="PARAM2">      1.00000000</i>
   <i name="PARAM3">      0.00000000</i>
  </separator>
  <separator name="model GW" >
   <i type="int" name="MODEL_GW">     0</i>
   <i name="MODEL_EPS0">      8.44895106</i>
   <i name="MODEL_ALPHA">      1.00000000</i>
  </separator>
  <separator name="linear response parameters" >
   <i type="logical" name="LEPSILON"> F  </i>
   <i type="logical" name="LRPA"> F  </i>
   <i type="logical" name="LNABLA"> F  </i>
   <i type="logical" name="LVEL"> F  </i>
   <i type="int" name="KINTER">     0</i>
   <i name="CSHIFT">      0.10000000</i>
   <i name="OMEGAMAX">     -1.00000000</i>
   <i name="DEG_THRESHOLD">      0.00200000</i>
   <i name="RTIME">     -0.10000000</i>
   <i name="WPLASMAI">      0.00000000</i>
   <v name="DFIELD">      0.00000000      0.00000000      0.00000000</v>
   <v name="WPLASMA">      0.00000000      0.00000000      0.00000000      0.00000000      0.00000000      0.00000000      0.00000000      0.00000000      0.00000000</v>
  </separator>
  <separator name="orbital magnetization" >
   <i type="logical" name="NUCIND"> F  </i>
   <v name="MAGPOS">      0.00000000      0.00000000      0.00000000</v>
   <i type="logical" name="LNICSALL"> T  </i>
   <i type="logical" name="ORBITALMAG"> F  </i>
   <i type="logical" name="LMAGBLOCH"> F  </i>
   <i type="logical" name="LCHIMAG"> F  </i>
   <i type="logical" name="LGAUGE"> T  </i>
   <i type="int" name="MAGATOM">     0</i>
   <v name="MAGDIPOL">      0.00000000      0.00000000      0.00000000</v>
   <v name="AVECCONST">      0.00000000      0.00000000      0.00000000</v>
  </separator>
  <separator name="response functions" >
   <i type="logical" name="LFINITE_TEMPERATURE"> F  </i>
   <i type="logical" name="LADDER"> F  </i>
   <i type="logical" name="LRPAFORCE"> F  </i>
   <i type="logical" name="LFXC"> F  </i>
   <i type="logical" name="LHARTREE"> T  </i>
   <i type="int" name="IBSE">     0</i>
   <v type="int" name="KPOINT">    -1     0     0     0</v>
   <i type="logical" name="LTCTC"> F  </i>
   <i type="logical" name="LTCTE"> F  </i>
   <i type="logical" name="LTETE"> F  </i>
   <i type="logical" name="LTRIPLET"> F  </i>
   <i type="logical" name="LFXCEPS"> F  </i>
   <i type="logical" name="LFXHEG"> F  </i>
   <i type="int" name="NATURALO">     2</i>
   <i type="logical" name="LHOLEGF"> F  </i>
   <i type="logical" name="L2ORDER"> F  </i>
   <i type="logical" name="LDMP1"> F  </i>
   <i type="logical" name="LMP2LT"> F  </i>
   <i type="logical" name="LSMP2LT"> F  </i>
   <i type="logical" name="LGWLF"> F  </i>
   <i name="ENCUTGW">     -2.00000000</i>
   <i name="ENCUTGWSOFT">     -2.00000000</i>
   <i name="ENCUTLF">     -1.00000000</i>
   <i type="logical" name="LESF_SPLINES"> F  </i>
   <i type="int" name="LMAXMP2">    -1</i>
   <i name="SCISSOR">      0.00000000</i>
   <i type="int" name="NOMEGA">     0</i>
   <i type="int" name="NOMEGAR">     0</i>
   <i type="int" name="NBANDSGW">    -1</i>
   <i type="int" name="NBANDSO">    -1</i>
   <i type="int" name="NBANDSV">    -1</i>
   <i type="int" name="NELM">    90</i>
   <i type="int" name="NELMHF">     1</i>
   <i type="int" name="DIM">     3</i>
   <i type="int" name="IESPILON">     4</i>
   <i type="int" name="ANTIRES">     0</i>
   <i name="OMEGAMAX">    -30.00000000</i>
   <i name="OMEGAMIN">    -30.00000000</i>
   <i name="OMEGATL">   -200.00000000</i>
   <i type="int" name="OMEGAGRID">     0</i>
   <i name="CSHIFT">     -0.10000000</i>
   <i type="logical" name="LSELFENERGY"> F  </i>
   <i type="logical" name="LSPECTRAL"> F  </i>
   <i type="logical" name="LSPECTRALGW"> F  </i>
   <i type="logical" name="LSINGLES"> F  </i>
   <i type="logical" name="LFERMIGW"> F  </i>
   <i type="logical" name="ODDONLYGW"> F  </i>
   <i type="logical" name="EVENONLYGW"> F  </i>
   <i type="int" name="NKREDLFX">     1</i>
   <i type="int" name="NKREDLFY">     1</i>
   <i type="int" name="NKREDLFZ">     1</i>
   <i type="int" name="MAXMEM">  2800</i>
   <i type="int" name="TELESCOPE">     0</i>
   <i type="int" name="NTAUPAR">    -1</i>
   <i type="int" name="NOMEGAPAR">    -1</i>
   <i name="DAMP_NEWTON">      0.80000001</i>
   <i name="LAMBDA">      1.00000000</i>
  </separator>
  <separator name="External order field" >
   <i name="OFIELD_KAPPA">      0.00000000</i>
   <v name="OFIELD_K">      0.00000000      0.00000000      0.00000000</v>
   <i name="OFIELD_Q6_NEAR">      0.00000000</i>
   <i name="OFIELD_Q6_FAR">      0.00000000</i>
   <i name="OFIELD_A">      0.00000000</i>
  </separator>
 </parameters>
 <atominfo>
  <atoms>       1 </atoms>
  <types>       1 </types>
  <array name="atoms" >
   <dimension dim="1">ion</dimension>
   <field type="string">element</field>
   <field type="int">atomtype</field>
   <set>
    <rc><c>Si</c><c>   1</c></rc>
   </set>
  </array>
  <array name="atomtypes" >
   <dimension dim="1">type</dimension>
   <field type="int">atomspertype</field>
   <field type="string">element</field>
   <field>mass</field>
   <field>valence</field>
   <field type="string">pseudopotential</field>
   <set>
    <rc><c>   1</c><c>Si</c><c>     28.08500000</c><c>      4.00000000</c><c>  PAW_PBE Si 05Jan2001                  </c></rc>
   </set>
  </array>
 </atominfo>
 <structure name="initialpos" >
  <crystal>
   <varray name="basis" >
    <v>       2.34739500       0.00000000       1.35526800 </v>
    <v>       0.78246500       2.21314500       1.35526800 </v>
    <v>       0.00000000       0.00000000       2.71053800 </v>
   </varray>
   <i name="volume">     14.08158510 </i>
   <varray name="rec_basis" >
    <v>       0.42600415      -0.15061523       0.00000000 </v>
    <v>       0.00000000       0.45184568       0.00000000 </v>
    <v>      -0.21300192      -0.15061511       0.36893045 </v>
   </varray>
  </crystal>
  <varray name="positions" >
   <v>       0.00000000       0.00000000       0.00000000 </v>
  </varray>
 </structure>
 <calculation>
  <scstep>
   <time name="dav">    2.84    2.84</time>
   <time name="total">    3.03    3.03</time>
   <energy>
    <i name="alphaZ">      2.39057823 </i>
    <i name="ewald">   -137.78496289 </i>
    <i name="hartreedc">     -0.54229904 </i>
    <i name="XCdc">     -8.73348015 </i>
    <i name="pawpsdc">     88.12379961 </i>
    <i name="pawaedc">    -70.53051779 </i>
    <i name="eentropy">     -0.00053833 </i>
    <i name="bandstr">     20.70834489 </i>
    <i name="atom">    103.06562707 </i>
    <i name="e_fr_energy">     -3.30344839 </i>
    <i name="e_wo_entrp">     -3.30291007 </i>
    <i name="e_0_energy">     -3.30317923 </i>
   </energy>
  </scstep>
  <scstep>
   <time name="dav">    3.80    3.83</time>
   <time name="total">    3.81    3.84</time>
   <energy>
    <i name="e_fr_energy">     -4.89800677 </i>
    <i name="e_wo_entrp">     -4.89742758 </i>
    <i name="e_0_energy">     -4.89771718 </i>
   </energy>
  </scstep>
  <scstep>
   <time name="dav">    2.91    2.93</time>
   <time name="total">    2.92    2.93</time>
   <energy>
    <i name="e_fr_energy">     -4.90529642 </i>
    <i name="e_wo_entrp">     -4.90470838 </i>
    <i name="e_0_energy">     -4.90500240 </i>
   </energy>
  </scstep>
  <scstep>
   <time name="dav">    4.20    4.22</time>
   <time name="total">    4.21    4.23</time>
   <energy>
    <i name="e_fr_energy">     -4.90530182 </i>
    <i name="e_wo_entrp">     -4.90471377 </i>
    <i name="e_0_energy">     -4.90500780 </i>
   </energy>
  </scstep>
  <scstep>
   <time name="dav">    2.91    2.93</time>
   <time name="total">    3.06    3.08</time>
   <energy>
    <i name="e_fr_energy">     -4.90530182 </i>
    <i name="e_wo_entrp">     -4.90471377 </i>
    <i name="e_0_energy">     -4.90500780 </i>
   </energy>
  </scstep>
  <scstep>
   <time name="dav">    2.91    2.91</time>
   <time name="total">    3.24    3.26</time>
   <energy>
    <i name="e_fr_energy">     -4.89170391 </i>
    <i name="e_wo_entrp">     -4.89111794 </i>
    <i name="e_0_energy">     -4.89141093 </i>
   </energy>
  </scstep>
  <scstep>
   <time name="dav">    3.02    3.02</time>
   <time name="total">    3.35    3.36</time>
   <energy>
    <i name="e_fr_energy">     -4.88387705 </i>
    <i name="e_wo_entrp">     -4.88329042 </i>
    <i name="e_0_energy">     -4.88358373 </i>
   </energy>
  </scstep>
  <scstep>
   <time name="dav">    3.80    3.81</time>
   <time name="total">    4.13    4.14</time>
   <energy>
    <i name="e_fr_energy">     -4.88383829 </i>
    <i name="e_wo_entrp">     -4.88325155 </i>
    <i name="e_0_energy">     -4.88354492 </i>
   </energy>
  </scstep>
  <scstep>
   <time name="dav">    3.23    3.24</time>
   <time name="total">    3.42    3.44</time>
   <energy>
    <i name="alphaZ">      2.39057823 </i>
    <i name="ewald">   -137.78496289 </i>
    <i name="hartreedc">     -0.40643660 </i>
    <i name="XCdc">     -8.67136896 </i>
    <i name="pawpsdc">    317.15483061 </i>
    <i name="pawaedc">   -299.57364467 </i>
    <i name="eentropy">     -0.00058677 </i>
    <i name="bandstr">     18.94212538 </i>
    <i name="atom">    103.06562707 </i>
    <i name="e_fr_energy">     -4.88383860 </i>
    <i name="e_wo_entrp">     -4.88325183 </i>
    <i name="e_0_energy">     -4.88354522 </i>
   </energy>
  </scstep>
  <structure>
   <crystal>
    <varray name="basis" >
     <v>       2.34739500       0.00000000       1.35526800 </v>
     <v>       0.78246500       2.21314500       1.35526800 </v>
     <v>       0.00000000       0.00000000       2.71053800 </v>
    </varray>
    <i name="volume">     14.08158510 </i>
    <varray name="rec_basis" >
     <v>       0.42600415      -0.15061523       0.00000000 </v>
     <v>       0.00000000       0.45184568       0.00000000 </v>
     <v>      -0.21300192      -0.15061511       0.36893045 </v>
    </varray>
   </crystal>
   <varray name="positions" >
    <v>       0.00000000       0.00000000       0.00000000 </v>
   </varray>
  </structure>
  <varray name="forces" >
   <v>       0.00000000       0.00000000       0.00000000 </v>
  </varray>
  <varray name="stress" >
   <v>      21.74330460      -0.00000000      -0.00000926 </v>
   <v>      -0.00000000      21.74330008      -0.00000655 </v>
   <v>      -0.00000926      -0.00000655      21.74330026 </v>
  </varray>
  <energy>
   <i name="e_fr_energy">     -4.88383860 </i>
   <i name="e_wo_entrp">     -4.88325183 </i>
   <i name="e_0_energy">     -4.88354522 </i>
  </energy>
  <time name="totalsc">   33.38   34.25</time>
 </calculation>
 <calculation>
  <scstep>
   <time name="dav">    2.76    2.76</time>
   <time name="total">    3.09    3.10</time>
   <energy>
    <i name="alphaZ">      2.32566055 </i>
    <i name="ewald">   -136.52628697 </i>
    <i name="hartreedc">     -0.40266896 </i>
    <i name="XCdc">     -8.74316178 </i>
    <i name="pawpsdc">    317.18395809 </i>
    <i name="pawaedc">   -299.60249575 </i>
    <i name="eentropy">     -0.00063246 </i>
    <i name="bandstr">     17.81245452 </i>
    <i name="atom">    103.06562707 </i>
    <i name="e_fr_energy">     -4.88754569 </i>
    <i name="e_wo_entrp">     -4.88691323 </i>
    <i name="e_0_energy">     -4.88722946 </i>
   </energy>
  </scstep>
  <scstep>
   <time name="dav">    3.51    3.51</time>
   <time name="total">    3.83    3.86</time>
   <energy>
    <i name="e_fr_energy">     -4.88665344 </i>
    <i name="e_wo_entrp">     -4.88602152 </i>
    <i name="e_0_energy">     -4.88633748 </i>
   </energy>
  </scstep>
  <scstep>
   <time name="dav">    2.86    2.86</time>
   <time name="total">    3.18    3.20</time>
   <energy>
    <i name="e_fr_energy">     -4.88613202 </i>
    <i name="e_wo_entrp">     -4.88550093 </i>
    <i name="e_0_energy">     -4.88581648 </i>
   </energy>
  </scstep>
  <scstep>
   <time name="dav">    3.82    3.82</time>
   <time name="total">    4.14    4.16</time>
   <energy>
    <i name="e_fr_energy">     -4.88613124 </i>
    <i name="e_wo_entrp">     -4.88550015 </i>
    <i name="e_0_energy">     -4.88581569 </i>
   </energy>
  </scstep>
  <scstep>
   <time name="dav">    2.10    2.11</time>
   <time name="total">    2.43    2.44</time>
   <energy>
    <i name="e_fr_energy">     -4.88612791 </i>
    <i name="e_wo_entrp">     -4.88549683 </i>
    <i name="e_0_energy">     -4.88581237 </i>
   </energy>
  </scstep>
  <scstep>
   <time name="dav">    1.75    1.75</time>
   <time name="total">    1.94    1.95</time>
   <energy>
    <i name="alphaZ">      2.32566055 </i>
    <i name="ewald">   -136.52628697 </i>
    <i name="hartreedc">     -0.44568932 </i>
    <i name="XCdc">     -8.75278266 </i>
    <i name="pawpsdc">    298.88036145 </i>
    <i name="pawaedc">   -281.29409307 </i>
    <i name="eentropy">     -0.00063109 </i>
    <i name="bandstr">     17.86170589 </i>
    <i name="atom">    103.06562707 </i>
    <i name="e_fr_energy">     -4.88612814 </i>
    <i name="e_wo_entrp">     -4.88549706 </i>
    <i name="e_0_energy">     -4.88581260 </i>
   </energy>
  </scstep>
  <structure>
   <crystal>
    <varray name="basis" >
     <v>       2.36903632      -0.00000000       1.36776260 </v>
     <v>       0.78967877       2.23354863       1.36776260 </v>
     <v>      -0.00000001      -0.00000001       2.73552724 </v>
    </varray>
    <i name="volume">     14.47465355 </i>
    <varray name="rec_basis" >
     <v>       0.42211256      -0.14923934       0.00000000 </v>
     <v>       0.00000000       0.44771803       0.00000000 </v>
     <v>      -0.21105613      -0.14923923       0.36556024 </v>
    </varray>
   </crystal>
   <varray name="positions" >
    <v>       0.00000000       0.00000000      -0.00000000 </v>
   </varray>
  </structure>
  <varray name="forces" >
   <v>       0.00000000      -0.00000000      -0.00000000 </v>
  </varray>
  <varray name="stress" >
   <v>      -2.33279635      -0.00000000       0.00000101 </v>
   <v>      -0.00000000      -2.33279586       0.00000072 </v>
   <v>       0.00000101       0.00000072      -2.33279588 </v>
  </varray>
  <energy>
   <i name="e_fr_energy">     -4.88612814 </i>
   <i name="e_wo_entrp">     -4.88549706 </i>
   <i name="e_0_energy">     -4.88581260 </i>
  </energy>
  <time name="totalsc">   20.80   21.32</time>
 </calculation>
 <calculation>
  <scstep>
   <time name="dav">    2.77    2.77</time>
   <time name="total">    3.10    3.10</time>
   <energy>
    <i name="alphaZ">      2.33238328 </i>
    <i name="ewald">   -136.65771143 </i>
    <i name="hartreedc">     -0.44611460 </i>
    <i name="XCdc">     -8.74534619 </i>
    <i name="pawpsdc">    298.77685028 </i>
    <i name="pawaedc">   -281.19058734 </i>
    <i name="eentropy">     -0.00062765 </i>
    <i name="bandstr">     17.97935248 </i>
    <i name="atom">    103.06562707 </i>
    <i name="e_fr_energy">     -4.88617409 </i>
    <i name="e_wo_entrp">     -4.88554645 </i>
    <i name="e_0_energy">     -4.88586027 </i>
   </energy>
  </scstep>
  <scstep>
   <time name="dav">    3.54    3.54</time>
   <time name="total">    3.86    3.88</time>
   <energy>
    <i name="e_fr_energy">     -4.88616409 </i>
    <i name="e_wo_entrp">     -4.88553635 </i>
    <i name="e_0_energy">     -4.88585022 </i>
   </energy>
  </scstep>
  <scstep>
   <time name="dav">    2.80    2.80</time>
   <time name="total">    3.13    3.14</time>
   <energy>
    <i name="e_fr_energy">     -4.88615855 </i>
    <i name="e_wo_entrp">     -4.88553069 </i>
    <i name="e_0_energy">     -4.88584462 </i>
   </energy>
  </scstep>
  <scstep>
   <time name="dav">    1.68    1.68</time>
   <time name="total">    2.00    2.02</time>
   <energy>
    <i name="e_fr_energy">     -4.88615859 </i>
    <i name="e_wo_entrp">     -4.88553072 </i>
    <i name="e_0_energy">     -4.88584465 </i>
   </energy>
  </scstep>
  <scstep>
   <time name="dav">    1.63    1.63</time>
   <time name="total">    1.95    1.98</time>
   <energy>
    <i name="e_fr_energy">     -4.88615879 </i>
    <i name="e_wo_entrp">     -4.88553092 </i>
    <i name="e_0_energy">     -4.88584485 </i>
   </energy>
  </scstep>
  <scstep>
   <time name="dav">    1.64    1.64</time>
   <time name="total">    1.83    1.85</time>
   <energy>
    <i name="alphaZ">      2.33238328 </i>
    <i name="ewald">   -136.65771143 </i>
    <i name="hartreedc">     -0.44131402 </i>
    <i name="XCdc">     -8.74433063 </i>
    <i name="pawpsdc">    300.53396264 </i>
[...]
      <set comment="kpoint 559">
       <r>    3.5133    1.0000 </r>
       <r>    4.3071    1.0000 </r>
       <r>   12.7999    0.0000 </r>
       <r>   15.1493    0.0000 </r>
       <r>   19.8311    0.0000 </r>
       <r>   24.6111    0.0000 </r>
       <r>   28.0551    0.0000 </r>
       <r>   30.2869    0.0000 </r>
      </set>
      <set comment="kpoint 560">
       <r>    3.7478    1.0000 </r>
       <r>    4.5292    1.0000 </r>
       <r>   11.5779    0.0000 </r>
       <r>   15.9036    0.0000 </r>
       <r>   18.5822    0.0000 </r>
       <r>   26.1662    0.0000 </r>
       <r>   27.8799    0.0000 </r>
       <r>   30.2224    0.0000 </r>
      </set>
      <set comment="kpoint 561">
       <r>    0.7206    1.0000 </r>
       <r>    5.4626    1.0000 </r>
       <r>   18.7535    0.0000 </r>
       <r>   18.7535    0.0000 </r>
       <r>   21.4501    0.0000 </r>
       <r>   21.4501    0.0000 </r>
       <r>   23.4369    0.0000 </r>
       <r>   26.4545    0.0000 </r>
      </set>
      <set comment="kpoint 562">
       <r>    1.2418    1.0000 </r>
       <r>    4.9516    1.0000 </r>
       <r>   17.4220    0.0000 </r>
       <r>   18.7346    0.0000 </r>
       <r>   21.4162    0.0000 </r>
       <r>   21.4812    0.0000 </r>
       <r>   24.0293    0.0000 </r>
       <r>   27.1641    0.0000 </r>
      </set>
      <set comment="kpoint 563">
       <r>    1.9326    1.0000 </r>
       <r>    4.6149    1.0000 </r>
       <r>   15.5006    0.0000 </r>
       <r>   17.8126    0.0000 </r>
       <r>   20.5704    0.0000 </r>
       <r>   22.7271    0.0000 </r>
       <r>   25.3128    0.0000 </r>
       <r>   29.0874    0.0000 </r>
      </set>
      <set comment="kpoint 564">
       <r>    2.7835    1.0000 </r>
       <r>    4.4598    1.0000 </r>
       <r>   13.5044    0.0000 </r>
       <r>   16.8091    0.0000 </r>
       <r>   19.5473    0.0000 </r>
       <r>   24.3531    0.0000 </r>
       <r>   26.7811    0.0000 </r>
       <r>   31.4539    0.0000 </r>
      </set>
      <set comment="kpoint 565">
       <r>    1.6985    1.0000 </r>
       <r>    4.3874    1.0000 </r>
       <r>   18.0341    0.0000 </r>
       <r>   18.0707    0.0000 </r>
       <r>   20.6549    0.0000 </r>
       <r>   22.0654    0.0000 </r>
       <r>   24.1628    0.0000 </r>
       <r>   26.9585    0.0000 </r>
      </set>
      <set comment="kpoint 566">
       <r>    2.3160    1.0000 </r>
       <r>    4.0062    1.0000 </r>
       <r>   16.5641    0.0000 </r>
       <r>   17.2801    0.0000 </r>
       <r>   21.0725    0.0000 </r>
       <r>   22.0050    0.0000 </r>
       <r>   25.2616    0.0000 </r>
       <r>   28.2801    0.0000 </r>
      </set>
      <set comment="kpoint 567">
       <r>    3.0447    1.0000 </r>
       <r>    3.8566    1.0000 </r>
       <r>   14.7091    0.0000 </r>
       <r>   16.1558    0.0000 </r>
       <r>   20.7269    0.0000 </r>
       <r>   22.9300    0.0000 </r>
       <r>   26.7892    0.0000 </r>
       <r>   30.4139    0.0000 </r>
      </set>
      <set comment="kpoint 568">
       <r>    2.8094    1.0000 </r>
       <r>    3.6309    1.0000 </r>
       <r>   15.8934    0.0000 </r>
       <r>   17.3458    0.0000 </r>
       <r>   20.0592    0.0000 </r>
       <r>   23.0776    0.0000 </r>
       <r>   25.4909    0.0000 </r>
       <r>   28.8495    0.0000 </r>
      </set>
      <set comment="kpoint 569">
       <r>    2.0817    1.0000 </r>
       <r>    3.7784    1.0000 </r>
       <r>   18.7812    0.0000 </r>
       <r>   18.7813    0.0000 </r>
       <r>   21.1220    0.0000 </r>
       <r>   21.1220    0.0000 </r>
       <r>   23.5230    0.0000 </r>
       <r>   26.0670    0.0000 </r>
      </set>
      <set comment="kpoint 570">
       <r>    2.5737    1.0000 </r>
       <r>    3.4047    1.0000 </r>
       <r>   17.7035    0.0000 </r>
       <r>   18.3452    0.0000 </r>
       <r>   20.9244    0.0000 </r>
       <r>   21.6622    0.0000 </r>
       <r>   24.1330    0.0000 </r>
       <r>   26.8822    0.0000 </r>
      </set>
     </set>
    </set>
   </array>
  </eigenvalues>
  <separator name="orbital magnetization" >
   <v name="MAGDIPOLOUT">      0.00000000      0.00000000      0.00000000</v>
  </separator>
  <dos>
   <i name="efermi">     10.21333189 </i>
   <total>
    <array>
     <dimension dim="1">gridpoints</dimension>
     <dimension dim="2">spin</dimension>
     <field>energy</field>
     <field>total</field>
     <field>integrated</field>
     <set>
      <set comment="spin 1">
       <r>    -6.2820     0.0000     0.0000 </r>
       <r>    -6.1331     0.0000     0.0000 </r>
       <r>    -5.9842     0.0000     0.0000 </r>
       <r>    -5.8353     0.0000     0.0000 </r>
       <r>    -5.6864     0.0000     0.0000 </r>
       <r>    -5.5375     0.0000     0.0000 </r>
       <r>    -5.3886     0.0000     0.0000 </r>
       <r>    -5.2397     0.0000     0.0000 </r>
       <r>    -5.0908     0.0000     0.0000 </r>
       <r>    -4.9419     0.0000     0.0000 </r>
       <r>    -4.7930     0.0000     0.0000 </r>
       <r>    -4.6441     0.0000     0.0000 </r>
       <r>    -4.4952     0.0000     0.0000 </r>
       <r>    -4.3463     0.0000     0.0000 </r>
       <r>    -4.1974     0.0107     0.0016 </r>
       <r>    -4.0485     0.0392     0.0074 </r>
       <r>    -3.8996     0.0537     0.0154 </r>
       <r>    -3.7507     0.0717     0.0261 </r>
       <r>    -3.6018     0.0820     0.0383 </r>
       <r>    -3.4529     0.0930     0.0522 </r>
       <r>    -3.3040     0.0889     0.0654 </r>
       <r>    -3.1551     0.1146     0.0825 </r>
       <r>    -3.0061     0.0983     0.0971 </r>
       <r>    -2.8572     0.1373     0.1175 </r>
       <r>    -2.7083     0.1248     0.1361 </r>
       <r>    -2.5594     0.1356     0.1563 </r>
       <r>    -2.4105     0.1376     0.1768 </r>
       <r>    -2.2616     0.1476     0.1988 </r>
       <r>    -2.1127     0.1307     0.2182 </r>
       <r>    -1.9638     0.1843     0.2457 </r>
       <r>    -1.8149     0.1551     0.2688 </r>
       <r>    -1.6660     0.1667     0.2936 </r>
       <r>    -1.5171     0.1690     0.3188 </r>
       <r>    -1.3682     0.1772     0.3452 </r>
       <r>    -1.2193     0.1781     0.3717 </r>
       <r>    -1.0704     0.1995     0.4014 </r>
       <r>    -0.9215     0.1596     0.4252 </r>
       <r>    -0.7726     0.2433     0.4614 </r>
       <r>    -0.6237     0.1933     0.4902 </r>
       <r>    -0.4748     0.1727     0.5159 </r>
       <r>    -0.3259     0.2148     0.5479 </r>
       <r>    -0.1770     0.2274     0.5817 </r>
       <r>    -0.0281     0.2168     0.6140 </r>
       <r>     0.1208     0.2354     0.6491 </r>
       <r>     0.2697     0.2118     0.6806 </r>
       <r>     0.4186     0.2121     0.7122 </r>
       <r>     0.5675     0.2299     0.7464 </r>
       <r>     0.7164     0.2731     0.7871 </r>
       <r>     0.8653     0.2247     0.8205 </r>
       <r>     1.0142     0.2397     0.8562 </r>
       <r>     1.1631     0.2338     0.8910 </r>
       <r>     1.3120     0.2979     0.9354 </r>
       <r>     1.4609     0.2452     0.9719 </r>
       <r>     1.6098     0.2262     1.0056 </r>
       <r>     1.7587     0.2879     1.0485 </r>
       <r>     1.9076     0.2658     1.0880 </r>
       <r>     2.0565     0.2618     1.1270 </r>
       <r>     2.2054     0.3003     1.1717 </r>
       <r>     2.3543     0.2904     1.2150 </r>
       <r>     2.5032     0.2832     1.2572 </r>
       <r>     2.6521     0.3120     1.3036 </r>
       <r>     2.8010     0.2053     1.3342 </r>
       <r>     2.9499     0.3647     1.3885 </r>
       <r>     3.0988     0.2822     1.4305 </r>
       <r>     3.2477     0.3075     1.4763 </r>
       <r>     3.3966     0.2555     1.5143 </r>
       <r>     3.5455     0.2613     1.5532 </r>
       <r>     3.6944     0.2893     1.5963 </r>
       <r>     3.8433     0.3439     1.6475 </r>
       <r>     3.9923     0.3010     1.6923 </r>
       <r>     4.1412     0.2972     1.7366 </r>
       <r>     4.2901     0.3470     1.7883 </r>
       <r>     4.4390     0.2955     1.8323 </r>
       <r>     4.5879     0.3511     1.8845 </r>
       <r>     4.7368     0.3073     1.9303 </r>
       <r>     4.8857     0.3104     1.9765 </r>
       <r>     5.0346     0.4317     2.0408 </r>
       <r>     5.1835     0.3091     2.0868 </r>
       <r>     5.3324     0.3091     2.1328 </r>
       <r>     5.4813     0.3434     2.1840 </r>
       <r>     5.6302     0.3096     2.2301 </r>
       <r>     5.7791     0.3236     2.2783 </r>
       <r>     5.9280     0.3827     2.3352 </r>
       <r>     6.0769     0.2751     2.3762 </r>
       <r>     6.2258     0.4464     2.4427 </r>
       <r>     6.3747     0.3408     2.4934 </r>
       <r>     6.5236     0.3243     2.5417 </r>
       <r>     6.6725     0.4457     2.6081 </r>
       <r>     6.8214     0.3591     2.6616 </r>
       <r>     6.9703     0.2855     2.7041 </r>
       <r>     7.1192     0.3853     2.7614 </r>
       <r>     7.2681     0.3419     2.8124 </r>
       <r>     7.4170     0.3566     2.8655 </r>
       <r>     7.5659     0.5070     2.9409 </r>
       <r>     7.7148     0.2696     2.9811 </r>
       <r>     7.8637     0.4234     3.0441 </r>
       <r>     8.0126     0.2335     3.0789 </r>
       <r>     8.1615     0.4751     3.1496 </r>
       <r>     8.3104     0.4085     3.2105 </r>
       <r>     8.4593     0.5197     3.2879 </r>
       <r>     8.6082     0.3648     3.3422 </r>
       <r>     8.7571     0.3004     3.3869 </r>
       <r>     8.9060     0.3764     3.4429 </r>
       <r>     9.0549     0.4039     3.5031 </r>
       <r>     9.2038     0.4351     3.5679 </r>
       <r>     9.3527     0.4527     3.6353 </r>
       <r>     9.5016     0.4111     3.6965 </r>
       <r>     9.6505     0.3739     3.7522 </r>
       <r>     9.7994     0.4433     3.8182 </r>
       <r>     9.9483     0.4296     3.8821 </r>
       <r>    10.0972     0.3618     3.9360 </r>
       <r>    10.2461     0.5317     4.0152 </r>
       <r>    10.3950     0.3241     4.0634 </r>
       <r>    10.5439     0.4476     4.1301 </r>
       <r>    10.6928     0.5047     4.2052 </r>
       <r>    10.8417     0.4095     4.2662 </r>
       <r>    10.9907     0.4970     4.3402 </r>
       <r>    11.1396     0.3829     4.3972 </r>
       <r>    11.2885     0.4802     4.4687 </r>
       <r>    11.4374     0.4698     4.5387 </r>
       <r>    11.5863     0.3767     4.5948 </r>
       <r>    11.7352     0.5547     4.6774 </r>
       <r>    11.8841     0.4316     4.7417 </r>
       <r>    12.0330     0.4522     4.8090 </r>
       <r>    12.1819     0.5432     4.8899 </r>
       <r>    12.3308     0.4072     4.9505 </r>
       <r>    12.4797     0.5019     5.0252 </r>
       <r>    12.6286     0.5349     5.1049 </r>
       <r>    12.7775     0.4459     5.1713 </r>
       <r>    12.9264     0.4579     5.2395 </r>
       <r>    13.0753     0.6286     5.3331 </r>
       <r>    13.2242     0.4679     5.4027 </r>
       <r>    13.3731     0.5947     5.4913 </r>
       <r>    13.5220     0.5117     5.5675 </r>
       <r>    13.6709     0.6055     5.6576 </r>
       <r>    13.8198     0.5203     5.7351 </r>
       <r>    13.9687     0.5601     5.8185 </r>
       <r>    14.1176     0.5583     5.9016 </r>
       <r>    14.2665     0.4821     5.9734 </r>
       <r>    14.4154     0.6043     6.0634 </r>
       <r>    14.5643     0.3752     6.1193 </r>
       <r>    14.7132     0.5546     6.2019 </r>
       <r>    14.8621     0.5406     6.2824 </r>
       <r>    15.0110     0.4826     6.3542 </r>
       <r>    15.1599     0.4477     6.4209 </r>
       <r>    15.3088     0.5282     6.4995 </r>
       <r>    15.4577     0.3599     6.5531 </r>
       <r>    15.6066     0.5143     6.6297 </r>
       <r>    15.7555     0.4427     6.6956 </r>
       <r>    15.9044     0.5582     6.7788 </r>
       <r>    16.0533     0.3847     6.8361 </r>
       <r>    16.2022     0.4683     6.9058 </r>
       <r>    16.3511     0.4770     6.9768 </r>
       <r>    16.5000     0.4664     7.0463 </r>
       <r>    16.6489     0.4776     7.1174 </r>
       <r>    16.7978     0.5116     7.1935 </r>
       <r>    16.9467     0.3931     7.2521 </r>
       <r>    17.0956     0.4725     7.3224 </r>
       <r>    17.2445     0.5557     7.4052 </r>
       <r>    17.3934     0.5888     7.4929 </r>
       <r>    17.5423     0.3860     7.5503 </r>
       <r>    17.6912     0.4391     7.6157 </r>
       <r>    17.8402     0.6070     7.7061 </r>
       <r>    17.9891     0.5301     7.7850 </r>
       <r>    18.1380     0.4525     7.8524 </r>
       <r>    18.2869     0.5884     7.9400 </r>
       <r>    18.4358     0.5921     8.0282 </r>
       <r>    18.5847     0.4301     8.0922 </r>
       <r>    18.7336     0.5191     8.1695 </r>
       <r>    18.8825     0.5380     8.2496 </r>
       <r>    19.0314     0.4983     8.3238 </r>
       <r>    19.1803     0.6187     8.4160 </r>
       <r>    19.3292     0.6087     8.5066 </r>
       <r>    19.4781     0.4853     8.5788 </r>
       <r>    19.6270     0.4378     8.6440 </r>
       <r>    19.7759     0.6176     8.7360 </r>
       <r>    19.9248     0.5524     8.8183 </r>
       <r>    20.0737     0.5140     8.8948 </r>
       <r>    20.2226     0.5442     8.9758 </r>
       <r>    20.3715     0.6646     9.0748 </r>
       <r>    20.5204     0.3656     9.1292 </r>
       <r>    20.6693     0.7226     9.2368 </r>
       <r>    20.8182     0.5874     9.3243 </r>
       <r>    20.9671     0.6020     9.4139 </r>
       <r>    21.1160     0.6266     9.5072 </r>
       <r>    21.2649     0.6091     9.5979 </r>
       <r>    21.4138     0.6810     9.6993 </r>
       <r>    21.5627     0.5414     9.7799 </r>
       <r>    21.7116     0.5667     9.8643 </r>
       <r>    21.8605     0.5720     9.9495 </r>
       <r>    22.0094     0.6068    10.0398 </r>
       <r>    22.1583     0.6534    10.1371 </r>
       <r>    22.3072     0.3446    10.1884 </r>
       <r>    22.4561     0.6312    10.2824 </r>
       <r>    22.6050     0.5724    10.3676 </r>
       <r>    22.7539     0.6118    10.4587 </r>
       <r>    22.9028     0.5617    10.5424 </r>
       <r>    23.0517     0.5834    10.6293 </r>
       <r>    23.2006     0.5672    10.7137 </r>
       <r>    23.3495     0.5391    10.7940 </r>
       <r>    23.4984     0.7001    10.8982 </r>
       <r>    23.6473     0.6715    10.9982 </r>
       <r>    23.7962     0.5417    11.0789 </r>
       <r>    23.9451     0.9936    11.2269 </r>
       <r>    24.0940     0.6256    11.3200 </r>
       <r>    24.2429     0.5291    11.3988 </r>
       <r>    24.3918     0.6635    11.4976 </r>
       <r>    24.5407     0.6045    11.5876 </r>
       <r>    24.6896     0.6686    11.6872 </r>
       <r>    24.8386     0.6807    11.7885 </r>
       <r>    24.9875     0.5953    11.8772 </r>
       <r>    25.1364     0.6596    11.9754 </r>
       <r>    25.2853     0.5838    12.0623 </r>
       <r>    25.4342     0.5651    12.1465 </r>
       <r>    25.5831     0.5892    12.2342 </r>
       <r>    25.7320     0.7564    12.3468 </r>
       <r>    25.8809     0.6617    12.4453 </r>
       <r>    26.0298     0.7896    12.5629 </r>
       <r>    26.1787     0.7449    12.6738 </r>
       <r>    26.3276     0.5256    12.7521 </r>
       <r>    26.4765     0.5005    12.8266 </r>
       <r>    26.6254     0.6359    12.9213 </r>
       <r>    26.7743     0.8711    13.0510 </r>
       <r>    26.9232     0.6617    13.1495 </r>
       <r>    27.0721     0.3872    13.2072 </r>
       <r>    27.2210     0.5879    13.2947 </r>
       <r>    27.3699     0.6420    13.3903 </r>
       <r>    27.5188     0.6702    13.4901 </r>
       <r>    27.6677     0.6918    13.5931 </r>
       <r>    27.8166     0.4218    13.6559 </r>
       <r>    27.9655     0.4635    13.7250 </r>
       <r>    28.1144     0.6787    13.8260 </r>
       <r>    28.2633     0.6052    13.9161 </r>
       <r>    28.4122     0.5278    13.9947 </r>
       <r>    28.5611     0.4555    14.0626 </r>
       <r>    28.7100     0.5782    14.1487 </r>
       <r>    28.8589     0.5173    14.2257 </r>
       <r>    29.0078     0.4686    14.2955 </r>
       <r>    29.1567     0.5271    14.3740 </r>
       <r>    29.3056     0.4530    14.4414 </r>
       <r>    29.4545     0.5100    14.5173 </r>
       <r>    29.6034     0.5523    14.5996 </r>
       <r>    29.7523     0.2393    14.6352 </r>
       <r>    29.9012     0.8510    14.7619 </r>
       <r>    30.0501     0.5538    14.8444 </r>
       <r>    30.1990     0.4826    14.9162 </r>
       <r>    30.3479     0.5386    14.9964 </r>
       <r>    30.4968     0.4103    15.0575 </r>
       <r>    30.6457     0.5199    15.1349 </r>
       <r>    30.7946     0.4379    15.2002 </r>
       <r>    30.9435     0.2272    15.2340 </r>
       <r>    31.0924     0.4416    15.2997 </r>
       <r>    31.2413     0.2741    15.3406 </r>
       <r>    31.3902     0.3665    15.3951 </r>
       <r>    31.5391     0.2537    15.4329 </r>
       <r>    31.6881     0.1790    15.4596 </r>
       <r>    31.8370     0.3197    15.5072 </r>
       <r>    31.9859     0.2463    15.5438 </r>
       <r>    32.1348     0.1846    15.5713 </r>
       <r>    32.2837     0.1909    15.5998 </r>
       <r>    32.4326     0.2302    15.6340 </r>
       <r>    32.5815     0.2515    15.6715 </r>
       <r>    32.7304     0.1635    15.6958 </r>
       <r>    32.8793     0.1825    15.7230 </r>
       <r>    33.0282     0.1274    15.7420 </r>
       <r>    33.1771     0.2054    15.7726 </r>
       <r>    33.3260     0.0864    15.7854 </r>
       <r>    33.4749     0.1187    15.8031 </r>
       <r>    33.6238     0.2819    15.8451 </r>
       <r>    33.7727     0.0843    15.8576 </r>
       <r>    33.9216     0.0808    15.8697 </r>
       <r>    34.0705     0.0957    15.8839 </r>
       <r>    34.2194     0.1699    15.9092 </r>
       <r>    34.3683     0.0515    15.9169 </r>
       <r>    34.5172     0.0675    15.9269 </r>
       <r>    34.6661     0.0723    15.9377 </r>
       <r>    34.8150     0.1013    15.9528 </r>
       <r>    34.9639     0.0719    15.9635 </r>
       <r>    35.1128     0.0679    15.9736 </r>
       <r>    35.2617     0.0252    15.9774 </r>
       <r>    35.4106     0.0006    15.9775 </r>
       <r>    35.5595     0.0392    15.9833 </r>
       <r>    35.7084     0.0257    15.9871 </r>
       <r>    35.8573     0.0587    15.9959 </r>
       <r>    36.0062     0.0002    15.9959 </r>
       <r>    36.1551     0.0120    15.9977 </r>
       <r>    36.3040     0.0027    15.9981 </r>
       <r>    36.4529     0.0129    16.0000 </r>
       <r>    36.6018     0.0001    16.0000 </r>
       <r>    36.7507     0.0000    16.0000 </r>
       <r>    36.8996     0.0000    16.0000 </r>
       <r>    37.0485     0.0000    16.0000 </r>
       <r>    37.1974     0.0000    16.0000 </r>
       <r>    37.3463     0.0000    16.0000 </r>
       <r>    37.4952     0.0000    16.0000 </r>
       <r>    37.6441     0.0000    16.0000 </r>
       <r>    37.7930     0.0000    16.0000 </r>
       <r>    37.9419     0.0000    16.0000 </r>
       <r>    38.0908     0.0000    16.0000 </r>
       <r>    38.2397     0.0000    16.0000 </r>
       <r>    38.3886     0.0000    16.0000 </r>
      </set>
     </set>
    </array>
   </total>
  </dos>
 </calculation>
 <structure name="finalpos" >
  <crystal>
   <varray name="basis" >
    <v>       2.36675801      -0.00000000       1.36644722 </v>
    <v>       0.78891933       2.23140061       1.36644722 </v>
    <v>      -0.00000001      -0.00000001       2.73289647 </v>
   </varray>
   <i name="volume">     14.43293264 </i>
   <varray name="rec_basis" >
    <v>       0.42251890      -0.14938301       0.00000000 </v>
    <v>       0.00000000       0.44814902       0.00000000 </v>
    <v>      -0.21125929      -0.14938290       0.36591214 </v>
   </varray>
  </crystal>
  <varray name="positions" >
   <v>       0.00000000      -0.00000000      -0.00000000 </v>
  </varray>
 </structure>
</modeling>
