unknown system                          
           1
     2.347395    0.000000    1.355268
     0.782465    2.213145    1.355268
     0.000000    0.000000    2.710538
   Si
     1
Direct configuration=     1
   0.00000000  0.00000000  0.00000000
unknown system                          
           1
     2.369036   -0.000000    1.367763
     0.789679    2.233549    1.367763
    -0.000000   -0.000000    2.735527
   Si
     1
Direct configuration=     2
   0.00000000  0.00000000 -0.00000000
unknown system                          
           1
     2.366758   -0.000000    1.366447
     0.788919    2.231401    1.366447
    -0.000000   -0.000000    2.732896
   Si
     1
Direct configuration=     3
   0.00000000 -0.00000000 -0.00000000
