unknown system                          
   1.00000000000000     
     2.832634    0.000000    0.000000
     0.000000    2.832634    0.000000
     0.000000    0.000000    2.832634
   Fe
     2
Direct
  0.000000  0.000000  0.000000
  0.500000  0.500000  0.500000
 
   48   48   48
  192.51      189.85      182.07      169.77      153.87      135.49      115.85      96.120      77.332      60.310    
  45.621      33.573      24.224      17.422      12.837      10.019      8.4447      7.5717      6.9430      6.4526    
  6.0940      5.8478      5.6914      5.6059      5.5788      5.6059      5.6914      5.8478      6.0940      6.4526    
  6.9430      7.5717      8.4447      10.019      12.837      17.422      24.224      33.573      45.621      60.310    
  77.332      96.120      115.85      135.49      153.87      169.77      182.07      189.85      189.85      187.23    
  179.57      167.46      151.80      133.70      114.34      94.882      76.349      59.552      45.057      33.168    
  23.948      17.245      12.734      9.9671      8.4225      7.5615      6.9357      6.4481      6.0917      5.8470    
  5.6915      5.6065      5.5796      5.6065      5.6915      5.8470      6.0917      6.4481      6.9357      7.5615    
  8.4225      9.9671      12.734      17.245      23.948      33.168      45.057      59.552      76.349      94.882    
  114.34      133.70      151.80      167.46      179.57      187.23      182.07      179.57      172.27      160.71    
  145.75      128.44      109.90      91.248      73.460      57.325      43.397      31.979      23.138      16.729    
  12.436      9.8168      8.3585      7.5308      6.9138      6.4345      6.0847      5.8446      5.6920      5.6084    
  5.5819      5.6084      5.6920      5.8446      6.0847      6.4345      6.9138      7.5308      8.3585      9.8168    
  12.436      16.729      23.138      31.979      43.397      57.325      73.460      91.248      109.90      128.44    
  145.75      160.71      172.27      179.57      169.77      167.46      160.71      150.02      136.16      120.08    
  102.84      85.452      68.845      53.764      40.743      30.081      21.850      15.915      11.970      9.5851    
  8.2599      7.4794      6.8776      6.4123      6.0734      5.8408      5.6927      5.6115      5.5857      5.6115    
  5.6927      5.8408      6.0734      6.4123      6.8776      7.4794      8.2599      9.5851      11.970      15.915    
  21.850      30.081      40.743      53.764      68.845      85.452      102.84      120.08      136.16      150.02    
  160.71      167.46      153.87      151.80      145.75      136.16      123.69      109.20      93.618      77.869    
  62.795      49.092      37.264      27.601      20.179      14.870      11.382      9.2977      8.1363      7.4068    
  6.8273      6.3818      6.0581      5.8357      5.6939      5.6159      5.5910      5.6159      5.6939      5.8357    
  6.0581      6.3818      6.8273      7.4068      8.1363      9.2977      11.382      14.870      20.179      27.601    
  37.264      49.092      62.795      77.869      93.618      109.20      123.69      136.16      145.75      151.80    
  135.49      133.70      128.44      120.08      109.20      96.519      82.842      68.982      55.692      43.604    
  33.187      24.712      18.251      13.683      10.727      8.9847      7.9959      7.3137      6.7641      6.3440    
  6.0392      5.8295      5.6954      5.6213      5.5977      5.6213      5.6954      5.8295      6.0392      6.3440    
  6.7641      7.3137      7.9959      8.9847      10.727      13.683      18.251      24.712      33.187      43.604    
  55.692      68.982      82.842      96.519      109.20      120.08      128.44      133.70      115.85      114.34    
  109.90      102.84      93.618      82.842      71.186      59.347      47.984      37.657      28.787      21.620    
  16.216      12.456      10.068      8.6739      7.8404      7.2016      6.6894      6.2999      6.0175      5.8225    
  5.6971      5.6275      5.6052      5.6275      5.6971      5.8225      6.0175      6.2999      6.6894      7.2016    
  7.8404      8.6739      10.068      12.456      16.216      21.620      28.787      37.657      47.984      59.347    
  71.186      82.842      93.618      102.84      109.90      114.34      96.120      94.882      91.248      85.452    
  77.869      68.982      59.347      49.550      40.150      31.632      24.362      18.549      14.233      11.291    
  9.4603      8.3826      7.6633      7.0739      6.6058      6.2511      5.9934      5.8147      5.6989      5.6341    
  5.6133      5.6341      5.6989      5.8147      5.9934      6.2511      6.6058      7.0739      7.6633      8.3826    
  9.4603      11.291      14.233      18.549      24.362      31.632      40.150      49.550      59.347      68.982    
  77.869      85.452      91.248      94.882      77.332      76.349      73.460      68.845      62.795      55.692    
  47.984      40.150      32.655      25.905      20.201      15.710      12.445      10.272      8.9376      8.1089    
  7.4666      6.9352      6.5161      6.1990      5.9677      5.8060      5.7002      5.6406      5.6214      5.6406    
  5.7002      5.8060      5.9677      6.1990      6.5161      6.9352      7.4666      8.1089      8.9376      10.272    
  12.445      15.710      20.201      25.905      32.655      40.150      47.984      55.692      62.795      68.845    
  73.460      76.349      60.310      59.552      57.325      53.764      49.092      43.604      37.657      31.632    
  25.905      20.800      16.552      13.276      10.956      9.4470      8.5041      7.8296      7.2581      6.7906    
  6.4235      6.1452      5.9408      5.7963      5.7007      5.6463      5.6286      5.6463      5.7007      5.7963    
  5.9408      6.1452      6.4235      6.7906      7.2581      7.8296      8.5041      9.4470      10.956      13.276    
  16.552      20.800      25.905      31.632      37.657      43.604      49.092      53.764      57.325      59.552    
  45.621      45.057      43.397      40.743      37.264      33.187      28.787      24.362      20.201      16.552    
  13.580      11.350      9.8126      8.8139      8.1240      7.5410      7.0469      6.6457      6.3310      6.0910    
  5.9130      5.7854      5.6998      5.6505      5.6344      5.6505      5.6998      5.7854      5.9130      6.0910    
  6.3310      6.6457      7.0469      7.5410      8.1240      8.8139      9.8126      11.350      13.580      16.552    
  20.201      24.362      28.787      33.187      37.264      40.743      43.397      45.057      33.573      33.168    
  31.979      30.081      27.601      24.712      21.620      18.549      15.710      13.276      11.350      9.9462    
  8.9873      8.3161      7.7513      7.2563      6.8413      6.5054      6.2410      6.0376      5.8845      5.7731    
  5.6970      5.6527      5.6381      5.6527      5.6970      5.7731      5.8845      6.0376      6.2410      6.5054    
  6.8413      7.2563      7.7513      8.3161      8.9873      9.9462      11.350      13.276      15.710      18.549    
  21.620      24.712      27.601      30.081      31.979      33.168      24.224      23.948      23.138      21.850    
  20.179      18.251      16.216      14.233      12.445      10.956      9.8126      8.9873      8.3831      7.8634    
  7.3936      6.9871      6.6481      6.3735      6.1556      5.9857      5.8555      5.7590      5.6920      5.6525    
  5.6394      5.6525      5.6920      5.7590      5.8555      5.9857      6.1556      6.3735      6.6481      6.9871    
  7.3936      7.8634      8.3831      8.9873      9.8126      10.956      12.445      14.233      16.216      18.251    
  20.179      21.850      23.138      23.948      17.422      17.245      16.729      15.915      14.870      13.683    
  12.456      11.291      10.272      9.4470      8.8139      8.3161      7.8634      7.4414      7.0650      6.7417    
  6.4722      6.2524      6.0758      5.9356      5.8260      5.7431      5.6847      5.6497      5.6381      5.6497    
  5.6847      5.7431      5.8260      5.9356      6.0758      6.2524      6.4722      6.7417      7.0650      7.4414    
  7.8634      8.3161      8.8139      9.4470      10.272      11.291      12.456      13.683      14.870      15.915    
  16.729      17.245      12.837      12.734      12.436      11.970      11.382      10.727      10.068      9.4603    
  8.9376      8.5041      8.1240      7.7513      7.3936      7.0650      6.7743      6.5249      6.3158      6.1432    
  6.0020      5.8875      5.7961      5.7256      5.6751      5.6446      5.6344      5.6446      5.6751      5.7256    
  5.7961      5.8875      6.0020      6.1432      6.3158      6.5249      6.7743      7.0650      7.3936      7.7513    
  8.1240      8.5041      8.9376      9.4603      10.068      10.727      11.382      11.970      12.436      12.734    
  10.019      9.9671      9.8168      9.5851      9.2977      8.9847      8.6739      8.3826      8.1089      7.8296    
  7.5410      7.2563      6.9871      6.7417      6.5249      6.3379      6.1791      6.0456      5.9341      5.8415    
  5.7660      5.7067      5.6636      5.6374      5.6286      5.6374      5.6636      5.7067      5.7660      5.8415    
  5.9341      6.0456      6.1791      6.3379      6.5249      6.7417      6.9871      7.2563      7.5410      7.8296    
  8.1089      8.3826      8.6739      8.9847      9.2977      9.5851      9.8168      9.9671      8.4447      8.4225    
  8.3585      8.2599      8.1363      7.9959      7.8404      7.6633      7.4666      7.2581      7.0469      6.8413    
  6.6481      6.4722      6.3158      6.1791      6.0609      5.9591      5.8719      5.7978      5.7361      5.6869    
  5.6509      5.6288      5.6214      5.6288      5.6509      5.6869      5.7361      5.7978      5.8719      5.9591    
  6.0609      6.1791      6.3158      6.4722      6.6481      6.8413      7.0469      7.2581      7.4666      7.6633    
  7.8404      7.9959      8.1363      8.2599      8.3585      8.4225      7.5717      7.5615      7.5308      7.4794    
  7.4068      7.3137      7.2016      7.0739      6.9352      6.7906      6.6457      6.5054      6.3735      6.2524    
  6.1432      6.0456      5.9591      5.8826      5.8152      5.7567      5.7071      5.6671      5.6376      5.6195    
  5.6133      5.6195      5.6376      5.6671      5.7071      5.7567      5.8152      5.8826      5.9591      6.0456    
  6.1432      6.2524      6.3735      6.5054      6.6457      6.7906      6.9352      7.0739      7.2016      7.3137    
  7.4068      7.4794      7.5308      7.5615      6.9430      6.9357      6.9138      6.8776      6.8273      6.7641    
  6.6894      6.6058      6.5161      6.4235      6.3310      6.2410      6.1556      6.0758      6.0020      5.9341    
  5.8719      5.8152      5.7640      5.7186      5.6796      5.6480      5.6245      5.6101      5.6052      5.6101    
  5.6245      5.6480      5.6796      5.7186      5.7640      5.8152      5.8719      5.9341      6.0020      6.0758    
  6.1556      6.2410      6.3310      6.4235      6.5161      6.6058      6.6894      6.7641      6.8273      6.8776    
  6.9138      6.9357      6.4526      6.4481      6.4345      6.4123      6.3818      6.3440      6.2999      6.2511    
  6.1990      6.1452      6.0910      6.0376      5.9857      5.9356      5.8875      5.8415      5.7978      5.7567    
  5.7186      5.6843      5.6546      5.6304      5.6124      5.6014      5.5977      5.6014      5.6124      5.6304    
  5.6546      5.6843      5.7186      5.7567      5.7978      5.8415      5.8875      5.9356      5.9857      6.0376    
  6.0910      6.1452      6.1990      6.2511      6.2999      6.3440      6.3818      6.4123      6.4345      6.4481    
  6.0940      6.0917      6.0847      6.0734      6.0581      6.0392      6.0175      5.9934      5.9677      5.9408    
  5.9130      5.8845      5.8555      5.8260      5.7961      5.7660      5.7361      5.7071      5.6796      5.6546    
  5.6328      5.6150      5.6019      5.5938      5.5910      5.5938      5.6019      5.6150      5.6328      5.6546    
  5.6796      5.7071      5.7361      5.7660      5.7961      5.8260      5.8555      5.8845      5.9130      5.9408    
  5.9677      5.9934      6.0175      6.0392      6.0581      6.0734      6.0847      6.0917      5.8478      5.8470    
  5.8446      5.8408      5.8357      5.8295      5.8225      5.8147      5.8060      5.7963      5.7854      5.7731    
  5.7590      5.7431      5.7256      5.7067      5.6869      5.6671      5.6480      5.6304      5.6150      5.6025    
  5.5933      5.5876      5.5857      5.5876      5.5933      5.6025      5.6150      5.6304      5.6480      5.6671    
  5.6869      5.7067      5.7256      5.7431      5.7590      5.7731      5.7854      5.7963      5.8060      5.8147    
  5.8225      5.8295      5.8357      5.8408      5.8446      5.8470      5.6914      5.6915      5.6920      5.6927    
  5.6939      5.6954      5.6971      5.6989      5.7002      5.7007      5.6998      5.6970      5.6920      5.6847    
  5.6751      5.6636      5.6509      5.6376      5.6245      5.6124      5.6019      5.5933      5.5870      5.5832    
  5.5819      5.5832      5.5870      5.5933      5.6019      5.6124      5.6245      5.6376      5.6509      5.6636    
  5.6751      5.6847      5.6920      5.6970      5.6998      5.7007      5.7002      5.6989      5.6971      5.6954    
  5.6939      5.6927      5.6920      5.6915      5.6059      5.6065      5.6084      5.6115      5.6159      5.6213    
  5.6275      5.6341      5.6406      5.6463      5.6505      5.6527      5.6525      5.6497      5.6446      5.6374    
  5.6288      5.6195      5.6101      5.6014      5.5938      5.5876      5.5832      5.5805      5.5796      5.5805    
  5.5832      5.5876      5.5938      5.6014      5.6101      5.6195      5.6288      5.6374      5.6446      5.6497    
  5.6525      5.6527      5.6505      5.6463      5.6406      5.6341      5.6275      5.6213      5.6159      5.6115    
  5.6084      5.6065      5.5788      5.5796      5.5819      5.5857      5.5910      5.5977      5.6052      5.6133    
  5.6214      5.6286      5.6344      5.6381      5.6394      5.6381      5.6344      5.6286      5.6214      5.6133    
  5.6052      5.5977      5.5910      5.5857      5.5819      5.5796      5.5788      5.5796      5.5819      5.5857    
  5.5910      5.5977      5.6052      5.6133      5.6214      5.6286      5.6344      5.6381      5.6394      5.6381    
  5.6344      5.6286      5.6214      5.6133      5.6052      5.5977      5.5910      5.5857      5.5819      5.5796    
  5.6059      5.6065      5.6084      5.6115      5.6159      5.6213      5.6275      5.6341      5.6406      5.6463    
  5.6505      5.6527      5.6525      5.6497      5.6446      5.6374      5.6288      5.6195      5.6101      5.6014    
  5.5938      5.5876      5.5832      5.5805      5.5796      5.5805      5.5832      5.5876      5.5938      5.6014    
  5.6101      5.6195      5.6288      5.6374      5.6446      5.6497      5.6525      5.6527      5.6505      5.6463    
  5.6406      5.6341      5.6275      5.6213      5.6159      5.6115      5.6084      5.6065      5.6914      5.6915    
  5.6920      5.6927      5.6939      5.6954      5.6971      5.6989      5.7002      5.7007      5.6998      5.6970    
  5.6920      5.6847      5.6751      5.6636      5.6509      5.6376      5.6245      5.6124      5.6019      5.5933    
  5.5870      5.5832      5.5819      5.5832      5.5870      5.5933      5.6019      5.6124      5.6245      5.6376    
  5.6509      5.6636      5.6751      5.6847      5.6920      5.6970      5.6998      5.7007      5.7002      5.6989    
  5.6971      5.6954      5.6939      5.6927      5.6920      5.6915      5.8478      5.8470      5.8446      5.8408    
  5.8357      5.8295      5.8225      5.8147      5.8060      5.7963      5.7854      5.7731      5.7590      5.7431    
  5.7256      5.7067      5.6869      5.6671      5.6480      5.6304      5.6150      5.6025      5.5933      5.5876    
  5.5857      5.5876      5.5933      5.6025      5.6150      5.6304      5.6480      5.6671      5.6869      5.7067    
  5.7256      5.7431      5.7590      5.7731      5.7854      5.7963      5.8060      5.8147      5.8225      5.8295    
  5.8357      5.8408      5.8446      5.8470      6.0940      6.0917      6.0847      6.0734      6.0581      6.0392    
  6.0175      5.9934      5.9677      5.9408      5.9130      5.8845      5.8555      5.8260      5.7961      5.7660    
  5.7361      5.7071      5.6796      5.6546      5.6328      5.6150      5.6019      5.5938      5.5910      5.5938    
  5.6019      5.6150      5.6328      5.6546      5.6796      5.7071      5.7361      5.7660      5.7961      5.8260    
  5.8555      5.8845      5.9130      5.9408      5.9677      5.9934      6.0175      6.0392      6.0581      6.0734    
  6.0847      6.0917      6.4526      6.4481      6.4345      6.4123      6.3818      6.3440      6.2999      6.2511    
  6.1990      6.1452      6.0910      6.0376      5.9857      5.9356      5.8875      5.8415      5.7978      5.7567    
  5.7186      5.6843      5.6546      5.6304      5.6124      5.6014      5.5977      5.6014      5.6124      5.6304    
  5.6546      5.6843      5.7186      5.7567      5.7978      5.8415      5.8875      5.9356      5.9857      6.0376    
  6.0910      6.1452      6.1990      6.2511      6.2999      6.3440      6.3818      6.4123      6.4345      6.4481    
  6.9430      6.9357      6.9138      6.8776      6.8273      6.7641      6.6894      6.6058      6.5161      6.4235    
  6.3310      6.2410      6.1556      6.0758      6.0020      5.9341      5.8719      5.8152      5.7640      5.7186    
  5.6796      5.6480      5.6245      5.6101      5.6052      5.6101      5.6245      5.6480      5.6796      5.7186    
  5.7640      5.8152      5.8719      5.9341      6.0020      6.0758      6.1556      6.2410      6.3310      6.4235    
  6.5161      6.6058      6.6894      6.7641      6.8273      6.8776      6.9138      6.9357      7.5717      7.5615    
  7.5308      7.4794      7.4068      7.3137      7.2016      7.0739      6.9352      6.7906      6.6457      6.5054    
  6.3735      6.2524      6.1432      6.0456      5.9591      5.8826      5.8152      5.7567      5.7071      5.6671    
  5.6376      5.6195      5.6133      5.6195      5.6376      5.6671      5.7071      5.7567      5.8152      5.8826    
  5.9591      6.0456      6.1432      6.2524      6.3735      6.5054      6.6457      6.7906      6.9352      7.0739    
  7.2016      7.3137      7.4068      7.4794      7.5308      7.5615      8.4447      8.4225      8.3585      8.2599    
  8.1363      7.9959      7.8404      7.6633      7.4666      7.2581      7.0469      6.8413      6.6481      6.4722    
  6.3158      6.1791      6.0609      5.9591      5.8719      5.7978      5.7361      5.6869      5.6509      5.6288    
  5.6214      5.6288      5.6509      5.6869      5.7361      5.7978      5.8719      5.9591      6.0609      6.1791    
  6.3158      6.4722      6.6481      6.8413      7.0469      7.2581      7.4666      7.6633      7.8404      7.9959    
  8.1363      8.2599      8.3585      8.4225      10.019      9.9671      9.8168      9.5851      9.2977      8.9847    
  8.6739      8.3826      8.1089      7.8296      7.5410      7.2563      6.9871      6.7417      6.5249      6.3379    
  6.1791      6.0456      5.9341      5.8415      5.7660      5.7067      5.6636      5.6374      5.6286      5.6374    
  5.6636      5.7067      5.7660      5.8415      5.9341      6.0456      6.1791      6.3379      6.5249      6.7417    
  6.9871      7.2563      7.5410      7.8296      8.1089      8.3826      8.6739      8.9847      9.2977      9.5851    
  9.8168      9.9671      12.837      12.734      12.436      11.970      11.382      10.727      10.068      9.4603    
  8.9376      8.5041      8.1240      7.7513      7.3936      7.0650      6.7743      6.5249      6.3158      6.1432    
  6.0020      5.8875      5.7961      5.7256      5.6751      5.6446      5.6344      5.6446      5.6751      5.7256    
  5.7961      5.8875      6.0020      6.1432      6.3158      6.5249      6.7743      7.0650      7.3936      7.7513    
  8.1240      8.5041      8.9376      9.4603      10.068      10.727      11.382      11.970      12.436      12.734    
  17.422      17.245      16.729      15.915      14.870      13.683      12.456      11.291      10.272      9.4470    
  8.8139      8.3161      7.8634      7.4414      7.0650      6.7417      6.4722      6.2524      6.0758      5.9356    
  5.8260      5.7431      5.6847      5.6497      5.6381      5.6497      5.6847      5.7431      5.8260      5.9356    
  6.0758      6.2524      6.4722      6.7417      7.0650      7.4414      7.8634      8.3161      8.8139      9.4470    
  10.272      11.291      12.456      13.683      14.870      15.915      16.729      17.245      24.224      23.948    
  23.138      21.850      20.179      18.251      16.216      14.233      12.445      10.956      9.8126      8.9873    
  8.3831      7.8634      7.3936      6.9871      6.6481      6.3735      6.1556      5.9857      5.8555      5.7590    
  5.6920      5.6525      5.6394      5.6525      5.6920      5.7590      5.8555      5.9857      6.1556      6.3735    
  6.6481      6.9871      7.3936      7.8634      8.3831      8.9873      9.8126      10.956      12.445      14.233    
  16.216      18.251      20.179      21.850      23.138      23.948      33.573      33.168      31.979      30.081    
  27.601      24.712      21.620      18.549      15.710      13.276      11.350      9.9462      8.9873      8.3161    
  7.7513      7.2563      6.8413      6.5054      6.2410      6.0376      5.8845      5.7731      5.6970      5.6527    
  5.6381      5.6527      5.6970      5.7731      5.8845      6.0376      6.2410      6.5054      6.8413      7.2563    
  7.7513      8.3161      8.9873      9.9462      11.350      13.276      15.710      18.549      21.620      24.712    
  27.601      30.081      31.979      33.168      45.621      45.057      43.397      40.743      37.264      33.187    
  28.787      24.362      20.201      16.552      13.580      11.350      9.8126      8.8139      8.1240      7.5410    
  7.0469      6.6457      6.3310      6.0910      5.9130      5.7854      5.6998      5.6505      5.6344      5.6505    
  5.6998      5.7854      5.9130      6.0910      6.3310      6.6457      7.0469      7.5410      8.1240      8.8139    
  9.8126      11.350      13.580      16.552      20.201      24.362      28.787      33.187      37.264      40.743    
  43.397      45.057      60.310      59.552      57.325      53.764      49.092      43.604      37.657      31.632    
  25.905      20.800      16.552      13.276      10.956      9.4470      8.5041      7.8296      7.2581      6.7906    
  6.4235      6.1452      5.9408      5.7963      5.7007      5.6463      5.6286      5.6463      5.7007      5.7963    
  5.9408      6.1452      6.4235      6.7906      7.2581      7.8296      8.5041      9.4470      10.956      13.276    
  16.552      20.800      25.905      31.632      37.657      43.604      49.092      53.764      57.325      59.552    
  77.332      76.349      73.460      68.845      62.795      55.692      47.984      40.150      32.655      25.905    
  20.201      15.710      12.445      10.272      8.9376      8.1089      7.4666      6.9352      6.5161      6.1990    
  5.9677      5.8060      5.7002      5.6406      5.6214      5.6406      5.7002      5.8060      5.9677      6.1990    
  6.5161      6.9352      7.4666      8.1089      8.9376      10.272      12.445      15.710      20.201      25.905    
  32.655      40.150      47.984      55.692      62.795      68.845      73.460      76.349      96.120      94.882    
  91.248      85.452      77.869      68.982      59.347      49.550      40.150      31.632      24.362      18.549    
  14.233      11.291      9.4603      8.3826      7.6633      7.0739      6.6058      6.2511      5.9934      5.8147    
  5.6989      5.6341      5.6133      5.6341      5.6989      5.8147      5.9934      6.2511      6.6058      7.0739    
  7.6633      8.3826      9.4603      11.291      14.233      18.549      24.362      31.632      40.150      49.550    
  59.347      68.982      77.869      85.452      91.248      94.882      115.85      114.34      109.90      102.84    
  93.618      82.842      71.186      59.347      47.984      37.657      28.787      21.620      16.216      12.456    
  10.068      8.6739      7.8404      7.2016      6.6894      6.2999      6.0175      5.8225      5.6971      5.6275    
  5.6052      5.6275      5.6971      5.8225      6.0175      6.2999      6.6894      7.2016      7.8404      8.6739    
  10.068      12.456      16.216      21.620      28.787      37.657      47.984      59.347      71.186      82.842    
  93.618      102.84      109.90      114.34      135.49      133.70      128.44      120.08      109.20      96.519    
  82.842      68.982      55.692      43.604      33.187      24.712      18.251      13.683      10.727      8.9847    
  7.9959      7.3137      6.7641      6.3440      6.0392      5.8295      5.6954      5.6213      5.5977      5.6213    
  5.6954      5.8295      6.0392      6.3440      6.7641      7.3137      7.9959      8.9847      10.727      13.683    
  18.251      24.712      33.187      43.604      55.692      68.982      82.842      96.519      109.20      120.08    
  128.44      133.70      153.87      151.80      145.75      136.16      123.69      109.20      93.618      77.869    
  62.795      49.092      37.264      27.601      20.179      14.870      11.382      9.2977      8.1363      7.4068    
  6.8273      6.3818      6.0581      5.8357      5.6939      5.6159      5.5910      5.6159      5.6939      5.8357    
  6.0581      6.3818      6.8273      7.4068      8.1363      9.2977      11.382      14.870      20.179      27.601    
  37.264      49.092      62.795      77.869      93.618      109.20      123.69      136.16      145.75      151.80    
  169.77      167.46      160.71      150.02      136.16      120.08      102.84      85.452      68.845      53.764    
  40.743      30.081      21.850      15.915      11.970      9.5851      8.2599      7.4794      6.8776      6.4123    
  6.0734      5.8408      5.6927      5.6115      5.5857      5.6115      5.6927      5.8408      6.0734      6.4123    
  6.8776      7.4794      8.2599      9.5851      11.970      15.915      21.850      30.081      40.743      53.764    
  68.845      85.452      102.84      120.08      136.16      150.02      160.71      167.46      182.07      179.57    
  172.27      160.71      145.75      128.44      109.90      91.248      73.460      57.325      43.397      31.979    
  23.138      16.729      12.436      9.8168      8.3585      7.5308      6.9138      6.4345      6.0847      5.8446    
  5.6920      5.6084      5.5819      5.6084      5.6920      5.8446      6.0847      6.4345      6.9138      7.5308    
  8.3585      9.8168      12.436      16.729      23.138      31.979      43.397      57.325      73.460      91.248    
  109.90      128.44      145.75      160.71      172.27      179.57      189.85      187.23      179.57      167.46    
  151.80      133.70      114.34      94.882      76.349      59.552      45.057      33.168      23.948      17.245    
  12.734      9.9671      8.4225      7.5615      6.9357      6.4481      6.0917      5.8470      5.6915      5.6065    
  5.5796      5.6065      5.6915      5.8470      6.0917      6.4481      6.9357      7.5615      8.4225      9.9671    
  12.734      17.245      23.948      33.168      45.057      59.552      76.349      94.882      114.34      133.70    
  151.80      167.46      179.57      187.23      189.85      187.23      179.57      167.46      151.80      133.70    
  114.34      94.882      76.349      59.552      45.057      33.168      23.948      17.245      12.734      9.9671    
  8.4225      7.5615      6.9357      6.4481      6.0917      5.8470      5.6915      5.6065      5.5796      5.6065    
  5.6915      5.8470      6.0917      6.4481      6.9357      7.5615      8.4225      9.9671      12.734      17.245    
  23.948      33.168      45.057      59.552      76.349      94.882      114.34      133.70      151.80      167.46    
  179.57      187.23      187.23      184.65      177.11      165.19      149.77      131.93      112.85      93.660    
  75.378      58.804      44.499      32.768      23.675      17.071      12.634      9.9162      8.4009      7.5514    
  6.9285      6.4437      6.0895      5.8463      5.6918      5.6073      5.5805      5.6073      5.6918      5.8463    
  6.0895      6.4437      6.9285      7.5514      8.4009      9.9162      12.634      17.071      23.675      32.768    
  44.499      58.804      75.378      93.660      112.85      131.93      149.77      165.19      177.11      184.65    
  179.57      177.11      169.92      158.54      143.81      126.74      108.47      90.073      72.525      56.604    
  42.859      31.593      22.876      16.563      12.341      9.7693      8.3386      7.5212      6.9071      6.4306    
  6.0830      5.8443      5.6926      5.6095      5.5832      5.6095      5.6926      5.8443      6.0830      6.4306    
  6.9071      7.5212      8.3386      9.7693      12.341      16.563      22.876      31.593      42.859      56.604    
  72.525      90.073      108.47      126.74      143.81      158.54      169.92      177.11      167.46      165.19    