unknown system                          
   1.00000000000000     
     2.832634    0.000000    0.000000
     0.000000    2.832634    0.000000
     0.000000    0.000000    2.832634
   Fe
     2
Direct
  0.000000  0.000000  0.000000
  0.500000  0.500000  0.500000
 
   48   48   48
 0.19250905820E+03 0.18984710727E+03 0.18206892803E+03 0.16977211525E+03 0.15387204732E+03
 0.13549479397E+03 0.11585240705E+03 0.96120063047E+02 0.77332373508E+02 0.60310196617E+02
 0.45621472257E+02 0.33572748741E+02 0.24224319094E+02 0.17421586851E+02 0.12837056541E+02
 0.10019151849E+02 0.84446998154E+01 0.75716561416E+01 0.69429682960E+01 0.64526063694E+01
 0.60940239748E+01 0.58477727179E+01 0.56914157666E+01 0.56058798039E+01 0.55787853925E+01
 0.56058798039E+01 0.56914157666E+01 0.58477727179E+01 0.60940239748E+01 0.64526063694E+01
 0.69429682960E+01 0.75716561416E+01 0.84446998154E+01 0.10019151849E+02 0.12837056541E+02
 0.17421586851E+02 0.24224319094E+02 0.33572748741E+02 0.45621472257E+02 0.60310196617E+02
 0.77332373508E+02 0.96120063047E+02 0.11585240705E+03 0.13549479397E+03 0.15387204732E+03
 0.16977211525E+03 0.18206892803E+03 0.18984710727E+03 0.18984710727E+03 0.18722706013E+03
 0.17957053107E+03 0.16746358400E+03 0.15180442649E+03 0.13369895350E+03 0.11433895953E+03
 0.94881886060E+02 0.76348919859E+02 0.59552488726E+02 0.45056721234E+02 0.33167850622E+02
 0.23947945720E+02 0.17245052903E+02 0.12734426381E+02 0.99670977824E+01 0.84224927923E+01
 0.75614558166E+01 0.69356795912E+01 0.64480660588E+01 0.60916813765E+01 0.58469623577E+01
 0.56915488097E+01 0.56065038018E+01 0.55795591702E+01 0.56065038018E+01 0.56915488097E+01
 0.58469623577E+01 0.60916813765E+01 0.64480660588E+01 0.69356795912E+01 0.75614558166E+01
 0.84224927923E+01 0.99670977824E+01 0.12734426381E+02 0.17245052903E+02 0.23947945720E+02
 0.33167850622E+02 0.45056721234E+02 0.59552488726E+02 0.76348919859E+02 0.94881886060E+02
 0.11433895953E+03 0.13369895350E+03 0.15180442649E+03 0.16746358400E+03 0.17957053107E+03
 0.18722706013E+03 0.18206892803E+03 0.17957053107E+03 0.17226723445E+03 0.16071183577E+03
 0.14575298537E+03 0.12843833990E+03 0.10990116403E+03 0.91247556585E+02 0.73459662150E+02
 0.57325134598E+02 0.43396529299E+02 0.31978522624E+02 0.23137692819E+02 0.16729239701E+02
 0.12436090907E+02 0.98167930724E+01 0.83585066342E+01 0.75308393596E+01 0.69138341693E+01
 0.64345293946E+01 0.60847296946E+01 0.58445786943E+01 0.56919691427E+01 0.56083806762E+01
 0.55818800021E+01 0.56083806762E+01 0.56919691427E+01 0.58445786943E+01 0.60847296946E+01
 0.64345293946E+01 0.69138341693E+01 0.75308393596E+01 0.83585066342E+01 0.98167930724E+01
 0.12436090907E+02 0.16729239701E+02 0.23137692819E+02 0.31978522624E+02 0.43396529299E+02
 0.57325134598E+02 0.73459662150E+02 0.91247556585E+02 0.10990116403E+03 0.12843833990E+03
 0.14575298537E+03 0.16071183577E+03 0.17226723445E+03 0.17957053107E+03 0.16977211525E+03
 0.16746358400E+03 0.16071183577E+03 0.15001840333E+03 0.13615555602E+03 0.12008110326E+03
 0.10283783214E+03 0.85452124432E+02 0.68844930555E+02 0.53764223822E+02 0.40742832858E+02
 0.30080958788E+02 0.21850197335E+02 0.15915286768E+02 0.11970205417E+02 0.95851242047E+01
 0.82599339649E+01 0.74794014818E+01 0.68775674751E+01 0.64122721593E+01 0.60733965994E+01
 0.58407537014E+01 0.56927269089E+01 0.56115108556E+01 0.55857320878E+01 0.56115108556E+01
 0.56927269089E+01 0.58407537014E+01 0.60733965994E+01 0.64122721593E+01 0.68775674751E+01
 0.74794014818E+01 0.82599339649E+01 0.95851242047E+01 0.11970205417E+02 0.15915286768E+02
 0.21850197335E+02 0.30080958788E+02 0.40742832858E+02 0.53764223822E+02 0.68844930555E+02
 0.85452124432E+02 0.10283783214E+03 0.12008110326E+03 0.13615555602E+03 0.15001840333E+03
 0.16071183577E+03 0.16746358400E+03 0.15387204732E+03 0.15180442649E+03 0.14575298537E+03
 0.13615555602E+03 0.12368941667E+03 0.10920044281E+03 0.93618275956E+02 0.77868844258E+02
 0.62794783283E+02 0.49091573104E+02 0.37263628395E+02 0.27601446316E+02 0.20179071954E+02
 0.14870318912E+02 0.11381565410E+02 0.92977302690E+01 0.81363316156E+01 0.74068329696E+01
 0.68273190170E+01 0.63818175766E+01 0.60580560562E+01 0.58356747057E+01 0.56938646644E+01
 0.56158524735E+01 0.55910464788E+01 0.56158524735E+01 0.56938646644E+01 0.58356747057E+01
 0.60580560562E+01 0.63818175766E+01 0.68273190170E+01 0.74068329696E+01 0.81363316156E+01
 0.92977302690E+01 0.11381565410E+02 0.14870318912E+02 0.20179071954E+02 0.27601446316E+02
 0.37263628395E+02 0.49091573104E+02 0.62794783283E+02 0.77868844258E+02 0.93618275956E+02
 0.10920044281E+03 0.12368941667E+03 0.13615555602E+03 0.14575298537E+03 0.15180442649E+03
 0.13549479397E+03 0.13369895350E+03 0.12843833990E+03 0.12008110326E+03 0.10920044281E+03
 0.96519179533E+02 0.82841763688E+02 0.68981623263E+02 0.55691662542E+02 0.43604456612E+02
 0.33186865494E+02 0.24712102309E+02 0.18251033246E+02 0.13683300850E+02 0.10727180828E+02
 0.89846771927E+01 0.79958962638E+01 0.73136531824E+01 0.67640570169E+01 0.63439918396E+01
 0.60392107090E+01 0.58295411384E+01 0.56953684008E+01 0.56212728228E+01 0.55976532124E+01
 0.56212728228E+01 0.56953684008E+01 0.58295411384E+01 0.60392107090E+01 0.63439918396E+01
 0.67640570169E+01 0.73136531824E+01 0.79958962638E+01 0.89846771927E+01 0.10727180828E+02
 0.13683300850E+02 0.18251033246E+02 0.24712102309E+02 0.33186865494E+02 0.43604456612E+02
 0.55691662542E+02 0.68981623263E+02 0.82841763688E+02 0.96519179533E+02 0.10920044281E+03
 0.12008110326E+03 0.12843833990E+03 0.13369895350E+03 0.11585240705E+03 0.11433895953E+03
 0.10990116403E+03 0.10283783214E+03 0.93618275956E+02 0.82841763688E+02 0.71185729596E+02
 0.59347368498E+02 0.47983912023E+02 0.37657068276E+02 0.28786909305E+02 0.21620100763E+02
 0.16216488611E+02 0.12456425933E+02 0.10068493044E+02 0.86738504527E+01 0.78404251514E+01
 0.72016218393E+01 0.66894388641E+01 0.62999402677E+01 0.60174546886E+01 0.58225151991E+01
 0.56971206991E+01 0.56275062552E+01 0.56052412235E+01 0.56275062552E+01 0.56971206991E+01
 0.58225151991E+01 0.60174546886E+01 0.62999402677E+01 0.66894388641E+01 0.72016218393E+01
 0.78404251514E+01 0.86738504527E+01 0.10068493044E+02 0.12456425933E+02 0.16216488611E+02
 0.21620100763E+02 0.28786909305E+02 0.37657068276E+02 0.47983912023E+02 0.59347368498E+02
 0.71185729596E+02 0.82841763688E+02 0.93618275956E+02 0.10283783214E+03 0.10990116403E+03
 0.11433895953E+03 0.96120063047E+02 0.94881886060E+02 0.91247556585E+02 0.85452124432E+02
 0.77868844258E+02 0.68981623263E+02 0.59347368498E+02 0.49550084639E+02 0.40149985652E+02
 0.31632304143E+02 0.24361694440E+02 0.18548598957E+02 0.14233337435E+02 0.11291449201E+02
 0.94602696442E+01 0.83825640966E+01 0.76633434817E+01 0.70739493799E+01 0.66058270415E+01
 0.62510770048E+01 0.59934158226E+01 0.58146768804E+01 0.56988709132E+01 0.56341348710E+01
 0.56133426852E+01 0.56341348710E+01 0.56988709132E+01 0.58146768804E+01 0.59934158226E+01
 0.62510770048E+01 0.66058270415E+01 0.70739493799E+01 0.76633434817E+01 0.83825640966E+01
 0.94602696442E+01 0.11291449201E+02 0.14233337435E+02 0.18548598957E+02 0.24361694440E+02
 0.31632304143E+02 0.40149985652E+02 0.49550084639E+02 0.59347368498E+02 0.68981623263E+02
 0.77868844258E+02 0.85452124432E+02 0.91247556585E+02 0.94881886060E+02 0.77332373508E+02
 0.76348919859E+02 0.73459662150E+02 0.68844930555E+02 0.62794783283E+02 0.55691662542E+02
 0.47983912023E+02 0.40149985652E+02 0.32655139127E+02 0.25904845245E+02 0.20201261756E+02
 0.15710160790E+02 0.12445011973E+02 0.10272262181E+02 0.89376439404E+01 0.81088693302E+01
 0.74665826133E+01 0.69351502085E+01 0.65161299142E+01 0.61989657706E+01 0.59676856670E+01
 0.58059948363E+01 0.57002339328E+01 0.56406029214E+01 0.56213523943E+01 0.56406029214E+01
 0.57002339328E+01 0.58059948363E+01 0.59676856670E+01 0.61989657706E+01 0.65161299142E+01
 0.69351502085E+01 0.74665826133E+01 0.81088693302E+01 0.89376439404E+01 0.10272262181E+02
 0.12445011973E+02 0.15710160790E+02 0.20201261756E+02 0.25904845245E+02 0.32655139127E+02
 0.40149985652E+02 0.47983912023E+02 0.55691662542E+02 0.62794783283E+02 0.68844930555E+02
 0.73459662150E+02 0.76348919859E+02 0.60310196617E+02 0.59552488726E+02 0.57325134598E+02
 0.53764223822E+02 0.49091573104E+02 0.43604456612E+02 0.37657068276E+02 0.31632304143E+02
 0.25904845245E+02 0.20799521211E+02 0.16551550305E+02 0.13276423758E+02 0.10956332256E+02
 0.94469725153E+01 0.85041127320E+01 0.78295778596E+01 0.72581475423E+01 0.67905631933E+01
 0.64234974528E+01 0.61451561092E+01 0.59407540037E+01 0.57963231014E+01 0.57007228135E+01
 0.56462674148E+01 0.56285837636E+01 0.56462674148E+01 0.57007228135E+01 0.57963231014E+01
 0.59407540037E+01 0.61451561092E+01 0.64234974528E+01 0.67905631933E+01 0.72581475423E+01
 0.78295778596E+01 0.85041127320E+01 0.94469725153E+01 0.10956332256E+02 0.13276423758E+02
 0.16551550305E+02 0.20799521211E+02 0.25904845245E+02 0.31632304143E+02 0.37657068276E+02
 0.43604456612E+02 0.49091573104E+02 0.53764223822E+02 0.57325134598E+02 0.59552488726E+02
 0.45621472257E+02 0.45056721234E+02 0.43396529299E+02 0.40742832858E+02 0.37263628395E+02
 0.33186865494E+02 0.28786909305E+02 0.24361694440E+02 0.20201261756E+02 0.16551550305E+02
 0.13579941185E+02 0.11350111229E+02 0.98125615336E+01 0.88139471460E+01 0.81239923942E+01
 0.75410092280E+01 0.70468960231E+01 0.66456674387E+01 0.63309503358E+01 0.60910175991E+01
 0.59129670990E+01 0.57854290287E+01 0.56998126493E+01 0.56504781681E+01 0.56343533795E+01
 0.56504781681E+01 0.56998126493E+01 0.57854290287E+01 0.59129670990E+01 0.60910175991E+01
 0.63309503358E+01 0.66456674387E+01 0.70468960231E+01 0.75410092280E+01 0.81239923942E+01
 0.88139471460E+01 0.98125615336E+01 0.11350111229E+02 0.13579941185E+02 0.16551550305E+02
 0.20201261756E+02 0.24361694440E+02 0.28786909305E+02 0.33186865494E+02 0.37263628395E+02
 0.40742832858E+02 0.43396529299E+02 0.45056721234E+02 0.33572748741E+02 0.33167850622E+02
 0.31978522624E+02 0.30080958788E+02 0.27601446316E+02 0.24712102309E+02 0.21620100763E+02
 0.18548598957E+02 0.15710160790E+02 0.13276423758E+02 0.11350111229E+02 0.99461564437E+01
 0.89872786062E+01 0.83161017410E+01 0.77512782240E+01 0.72563224646E+01 0.68412600208E+01
 0.65053768722E+01 0.62410399076E+01 0.60376166660E+01 0.58845242276E+01 0.57730505341E+01
 0.56970251755E+01 0.56526726814E+01 0.56380782910E+01 0.56526726814E+01 0.56970251755E+01
 0.57730505341E+01 0.58845242276E+01 0.60376166660E+01 0.62410399076E+01 0.65053768722E+01
 0.68412600208E+01 0.72563224646E+01 0.77512782240E+01 0.83161017410E+01 0.89872786062E+01
 0.99461564437E+01 0.11350111229E+02 0.13276423758E+02 0.15710160790E+02 0.18548598957E+02
 0.21620100763E+02 0.24712102309E+02 0.27601446316E+02 0.30080958788E+02 0.31978522624E+02
 0.33167850622E+02 0.24224319094E+02 0.23947945720E+02 0.23137692819E+02 0.21850197335E+02
 0.20179071954E+02 0.18251033246E+02 0.16216488611E+02 0.14233337435E+02 0.12445011973E+02
 0.10956332256E+02 0.98125615336E+01 0.89872786062E+01 0.83830764021E+01 0.78634313349E+01
 0.73935653345E+01 0.69870868234E+01 0.66481413647E+01 0.63734895064E+01 0.61556220962E+01
 0.59856671935E+01 0.58555162635E+01 0.57589726805E+01 0.56920176161E+01 0.56524666098E+01
 0.56393660715E+01 0.56524666098E+01 0.56920176161E+01 0.57589726805E+01 0.58555162635E+01
 0.59856671935E+01 0.61556220962E+01 0.63734895064E+01 0.66481413647E+01 0.69870868234E+01
 0.73935653345E+01 0.78634313349E+01 0.83830764021E+01 0.89872786062E+01 0.98125615336E+01
 0.10956332256E+02 0.12445011973E+02 0.14233337435E+02 0.16216488611E+02 0.18251033246E+02
 0.20179071954E+02 0.21850197335E+02 0.23137692819E+02 0.23947945720E+02 0.17421586851E+02
 0.17245052903E+02 0.16729239701E+02 0.15915286768E+02 0.14870318912E+02 0.13683300850E+02
 0.12456425933E+02 0.11291449201E+02 0.10272262181E+02 0.94469725153E+01 0.88139471460E+01
 0.83161017410E+01 0.78634313349E+01 0.74413562203E+01 0.70649799822E+01 0.67417198692E+01
 0.64722243143E+01 0.62524066085E+01 0.60757897765E+01 0.59355634126E+01 0.58259975897E+01
 0.57431073659E+01 0.56846569259E+01 0.56497204625E+01 0.56380782910E+01 0.56497204625E+01
 0.56846569259E+01 0.57431073659E+01 0.58259975897E+01 0.59355634126E+01 0.60757897765E+01
 0.62524066085E+01 0.64722243143E+01 0.67417198692E+01 0.70649799822E+01 0.74413562203E+01
 0.78634313349E+01 0.83161017410E+01 0.88139471460E+01 0.94469725153E+01 0.10272262181E+02
 0.11291449201E+02 0.12456425933E+02 0.13683300850E+02 0.14870318912E+02 0.15915286768E+02
 0.16729239701E+02 0.17245052903E+02 0.12837056541E+02 0.12734426381E+02 0.12436090907E+02
 0.11970205417E+02 0.11381565410E+02 0.10727180828E+02 0.10068493044E+02 0.94602696442E+01
 0.89376439404E+01 0.85041127320E+01 0.81239923942E+01 0.77512782240E+01 0.73935653345E+01
 0.70649799822E+01 0.67742997011E+01 0.65249112862E+01 0.63158059408E+01 0.61431517564E+01
 0.60019617098E+01 0.58874803791E+01 0.57960726501E+01 0.57255575856E+01 0.56750627441E+01
 0.56445677371E+01 0.56343533795E+01 0.56445677371E+01 0.56750627441E+01 0.57255575856E+01
 0.57960726501E+01 0.58874803791E+01 0.60019617098E+01 0.61431517564E+01 0.63158059408E+01
 0.65249112862E+01 0.67742997011E+01 0.70649799822E+01 0.73935653345E+01 0.77512782240E+01
 0.81239923942E+01 0.85041127320E+01 0.89376439404E+01 0.94602696442E+01 0.10068493044E+02
 0.10727180828E+02 0.11381565410E+02 0.11970205417E+02 0.12436090907E+02 0.12734426381E+02
 0.10019151849E+02 0.99670977824E+01 0.98167930724E+01 0.95851242047E+01 0.92977302690E+01
 0.89846771927E+01 0.86738504527E+01 0.83825640966E+01 0.81088693302E+01 0.78295778596E+01
 0.75410092280E+01 0.72563224646E+01 0.69870868234E+01 0.67417198692E+01 0.65249112862E+01
 0.63378578057E+01 0.61790981555E+01 0.60456414610E+01 0.59340877685E+01 0.58415109588E+01
 0.57659742117E+01 0.57066503168E+01 0.56636087810E+01 0.56373980198E+01 0.56285837636E+01
 0.56373980198E+01 0.56636087810E+01 0.57066503168E+01 0.57659742117E+01 0.58415109588E+01
 0.59340877685E+01 0.60456414610E+01 0.61790981555E+01 0.63378578057E+01 0.65249112862E+01
 0.67417198692E+01 0.69870868234E+01 0.72563224646E+01 0.75410092280E+01 0.78295778596E+01
 0.81088693302E+01 0.83825640966E+01 0.86738504527E+01 0.89846771927E+01 0.92977302690E+01
 0.95851242047E+01 0.98167930724E+01 0.99670977824E+01 0.84446998154E+01 0.84224927923E+01
 0.83585066342E+01 0.82599339649E+01 0.81363316156E+01 0.79958962638E+01 0.78404251514E+01
 0.76633434817E+01 0.74665826133E+01 0.72581475423E+01 0.70468960231E+01 0.68412600208E+01
 0.66481413647E+01 0.64722243143E+01 0.63158059408E+01 0.61790981555E+01 0.60608515414E+01
 0.59591089955E+01 0.58719087719E+01 0.57978021759E+01 0.57361127568E+01 0.56869290004E+01
 0.56508815184E+01 0.56287986136E+01 0.56213523943E+01 0.56287986136E+01 0.56508815184E+01
 0.56869290004E+01 0.57361127568E+01 0.57978021759E+01 0.58719087719E+01 0.59591089955E+01
 0.60608515414E+01 0.61790981555E+01 0.63158059408E+01 0.64722243143E+01 0.66481413647E+01
 0.68412600208E+01 0.70468960231E+01 0.72581475423E+01 0.74665826133E+01 0.76633434817E+01
 0.78404251514E+01 0.79958962638E+01 0.81363316156E+01 0.82599339649E+01 0.83585066342E+01
 0.84224927923E+01 0.75716561416E+01 0.75614558166E+01 0.75308393596E+01 0.74794014818E+01
 0.74068329696E+01 0.73136531824E+01 0.72016218393E+01 0.70739493799E+01 0.69351502085E+01
 0.67905631933E+01 0.66456674387E+01 0.65053768722E+01 0.63734895064E+01 0.62524066085E+01
 0.61431517564E+01 0.60456414610E+01 0.59591089955E+01 0.58825670015E+01 0.58152062928E+01
 0.57566579478E+01 0.57070844537E+01 0.56671061936E+01 0.56376047741E+01 0.56194674302E+01
 0.56133426852E+01 0.56194674302E+01 0.56376047741E+01 0.56671061936E+01 0.57070844537E+01
 0.57566579478E+01 0.58152062928E+01 0.58825670015E+01 0.59591089955E+01 0.60456414610E+01
 0.61431517564E+01 0.62524066085E+01 0.63734895064E+01 0.65053768722E+01 0.66456674387E+01
 0.67905631933E+01 0.69351502085E+01 0.70739493799E+01 0.72016218393E+01 0.73136531824E+01
 0.74068329696E+01 0.74794014818E+01 0.75308393596E+01 0.75614558166E+01 0.69429682960E+01
 0.69356795912E+01 0.69138341693E+01 0.68775674751E+01 0.68273190170E+01 0.67640570169E+01
 0.66894388641E+01 0.66058270415E+01 0.65161299142E+01 0.64234974528E+01 0.63309503358E+01
 0.62410399076E+01 0.61556220962E+01 0.60757897765E+01 0.60019617098E+01 0.59340877685E+01
 0.58719087719E+01 0.58152062928E+01 0.57639895078E+01 0.57185870609E+01 0.56796364906E+01
 0.56479868086E+01 0.56245464628E+01 0.56101159068E+01 0.56052412235E+01 0.56101159068E+01
 0.56245464628E+01 0.56479868086E+01 0.56796364906E+01 0.57185870609E+01 0.57639895078E+01
 0.58152062928E+01 0.58719087719E+01 0.59340877685E+01 0.60019617098E+01 0.60757897765E+01
 0.61556220962E+01 0.62410399076E+01 0.63309503358E+01 0.64234974528E+01 0.65161299142E+01
 0.66058270415E+01 0.66894388641E+01 0.67640570169E+01 0.68273190170E+01 0.68775674751E+01
 0.69138341693E+01 0.69356795912E+01 0.64526063694E+01 0.64480660588E+01 0.64345293946E+01
 0.64122721593E+01 0.63818175766E+01 0.63439918396E+01 0.62999402677E+01 0.62510770048E+01
 0.61989657706E+01 0.61451561092E+01 0.60910175991E+01 0.60376166660E+01 0.59856671935E+01
 0.59355634126E+01 0.58874803791E+01 0.58415109588E+01 0.57978021759E+01 0.57566579478E+01
 0.57185870609E+01 0.56842908369E+01 0.56545998871E+01 0.56303796525E+01 0.56124276932E+01
 0.56013821429E+01 0.55976532124E+01 0.56013821429E+01 0.56124276932E+01 0.56303796525E+01
 0.56545998871E+01 0.56842908369E+01 0.57185870609E+01 0.57566579478E+01 0.57978021759E+01
 0.58415109588E+01 0.58874803791E+01 0.59355634126E+01 0.59856671935E+01 0.60376166660E+01
 0.60910175991E+01 0.61451561092E+01 0.61989657706E+01 0.62510770048E+01 0.62999402677E+01
 0.63439918396E+01 0.63818175766E+01 0.64122721593E+01 0.64345293946E+01 0.64480660588E+01
 0.60940239748E+01 0.60916813765E+01 0.60847296946E+01 0.60733965994E+01 0.60580560562E+01
 0.60392107090E+01 0.60174546886E+01 0.59934158226E+01 0.59676856670E+01 0.59407540037E+01
 0.59129670990E+01 0.58845242276E+01 0.58555162635E+01 0.58259975897E+01 0.57960726501E+01
 0.57659742117E+01 0.57361127568E+01 0.57070844537E+01 0.56796364906E+01 0.56545998871E+01
 0.56328076036E+01 0.56150172809E+01 0.56018529510E+01 0.55937709862E+01 0.55910464788E+01
 0.55937709862E+01 0.56018529510E+01 0.56150172809E+01 0.56328076036E+01 0.56545998871E+01
 0.56796364906E+01 0.57070844537E+01 0.57361127568E+01 0.57659742117E+01 0.57960726501E+01
 0.58259975897E+01 0.58555162635E+01 0.58845242276E+01 0.59129670990E+01 0.59407540037E+01
 0.59676856670E+01 0.59934158226E+01 0.60174546886E+01 0.60392107090E+01 0.60580560562E+01
 0.60733965994E+01 0.60847296946E+01 0.60916813765E+01 0.58477727179E+01 0.58469623577E+01
 0.58445786943E+01 0.58407537014E+01 0.58356747057E+01 0.58295411384E+01 0.58225151991E+01
 0.58146768804E+01 0.58059948363E+01 0.57963231014E+01 0.57854290287E+01 0.57730505341E+01
 0.57589726805E+01 0.57431073659E+01 0.57255575856E+01 0.57066503168E+01 0.56869290004E+01
 0.56671061936E+01 0.56479868086E+01 0.56303796525E+01 0.56150172809E+01 0.56025003315E+01
 0.55932735903E+01 0.55876302396E+01 0.55857320878E+01 0.55876302396E+01 0.55932735903E+01
 0.56025003315E+01 0.56150172809E+01 0.56303796525E+01 0.56479868086E+01 0.56671061936E+01
 0.56869290004E+01 0.57066503168E+01 0.57255575856E+01 0.57431073659E+01 0.57589726805E+01
 0.57730505341E+01 0.57854290287E+01 0.57963231014E+01 0.58059948363E+01 0.58146768804E+01
 0.58225151991E+01 0.58295411384E+01 0.58356747057E+01 0.58407537014E+01 0.58445786943E+01
 0.58469623577E+01 0.56914157666E+01 0.56915488097E+01 0.56919691427E+01 0.56927269089E+01
 0.56938646644E+01 0.56953684008E+01 0.56971206991E+01 0.56988709132E+01 0.57002339328E+01
 0.57007228135E+01 0.56998126493E+01 0.56970251755E+01 0.56920176161E+01 0.56846569259E+01
 0.56750627441E+01 0.56636087810E+01 0.56508815184E+01 0.56376047741E+01 0.56245464628E+01
 0.56124276932E+01 0.56018529510E+01 0.55932735903E+01 0.55869868692E+01 0.55831623482E+01
 0.55818800021E+01 0.55831623482E+01 0.55869868692E+01 0.55932735903E+01 0.56018529510E+01
 0.56124276932E+01 0.56245464628E+01 0.56376047741E+01 0.56508815184E+01 0.56636087810E+01
 0.56750627441E+01 0.56846569259E+01 0.56920176161E+01 0.56970251755E+01 0.56998126493E+01
 0.57007228135E+01 0.57002339328E+01 0.56988709132E+01 0.56971206991E+01 0.56953684008E+01
 0.56938646644E+01 0.56927269089E+01 0.56919691427E+01 0.56915488097E+01 0.56058798039E+01
 0.56065038018E+01 0.56083806762E+01 0.56115108556E+01 0.56158524735E+01 0.56212728228E+01
 0.56275062552E+01 0.56341348710E+01 0.56406029214E+01 0.56462674148E+01 0.56504781681E+01
 0.56526726814E+01 0.56524666098E+01 0.56497204625E+01 0.56445677371E+01 0.56373980198E+01
 0.56287986136E+01 0.56194674302E+01 0.56101159068E+01 0.56013821429E+01 0.55937709862E+01
 0.55876302396E+01 0.55831623482E+01 0.55804614406E+01 0.55795591702E+01 0.55804614406E+01
 0.55831623482E+01 0.55876302396E+01 0.55937709862E+01 0.56013821429E+01 0.56101159068E+01
 0.56194674302E+01 0.56287986136E+01 0.56373980198E+01 0.56445677371E+01 0.56497204625E+01
 0.56524666098E+01 0.56526726814E+01 0.56504781681E+01 0.56462674148E+01 0.56406029214E+01
 0.56341348710E+01 0.56275062552E+01 0.56212728228E+01 0.56158524735E+01 0.56115108556E+01
 0.56083806762E+01 0.56065038018E+01 0.55787853925E+01 0.55795591702E+01 0.55818800021E+01
 0.55857320878E+01 0.55910464788E+01 0.55976532124E+01 0.56052412235E+01 0.56133426852E+01
 0.56213523943E+01 0.56285837636E+01 0.56343533795E+01 0.56380782910E+01 0.56393660715E+01
 0.56380782910E+01 0.56343533795E+01 0.56285837636E+01 0.56213523943E+01 0.56133426852E+01
 0.56052412235E+01 0.55976532124E+01 0.55910464788E+01 0.55857320878E+01 0.55818800021E+01
 0.55795591702E+01 0.55787853925E+01 0.55795591702E+01 0.55818800021E+01 0.55857320878E+01
 0.55910464788E+01 0.55976532124E+01 0.56052412235E+01 0.56133426852E+01 0.56213523943E+01
 0.56285837636E+01 0.56343533795E+01 0.56380782910E+01 0.56393660715E+01 0.56380782910E+01
 0.56343533795E+01 0.56285837636E+01 0.56213523943E+01 0.56133426852E+01 0.56052412235E+01
 0.55976532124E+01 0.55910464788E+01 0.55857320878E+01 0.55818800021E+01 0.55795591702E+01
 0.56058798039E+01 0.56065038018E+01 0.56083806762E+01 0.56115108556E+01 0.56158524735E+01
 0.56212728228E+01 0.56275062552E+01 0.56341348710E+01 0.56406029214E+01 0.56462674148E+01
 0.56504781681E+01 0.56526726814E+01 0.56524666098E+01 0.56497204625E+01 0.56445677371E+01
 0.56373980198E+01 0.56287986136E+01 0.56194674302E+01 0.56101159068E+01 0.56013821429E+01
 0.55937709862E+01 0.55876302396E+01 0.55831623482E+01 0.55804614406E+01 0.55795591702E+01
 0.55804614406E+01 0.55831623482E+01 0.55876302396E+01 0.55937709862E+01 0.56013821429E+01
 0.56101159068E+01 0.56194674302E+01 0.56287986136E+01 0.56373980198E+01 0.56445677371E+01
 0.56497204625E+01 0.56524666098E+01 0.56526726814E+01 0.56504781681E+01 0.56462674148E+01
 0.56406029214E+01 0.56341348710E+01 0.56275062552E+01 0.56212728228E+01 0.56158524735E+01
 0.56115108556E+01 0.56083806762E+01 0.56065038018E+01 0.56914157666E+01 0.56915488097E+01
 0.56919691427E+01 0.56927269089E+01 0.56938646644E+01 0.56953684008E+01 0.56971206991E+01
 0.56988709132E+01 0.57002339328E+01 0.57007228135E+01 0.56998126493E+01 0.56970251755E+01
 0.56920176161E+01 0.56846569259E+01 0.56750627441E+01 0.56636087810E+01 0.56508815184E+01
 0.56376047741E+01 0.56245464628E+01 0.56124276932E+01 0.56018529510E+01 0.55932735903E+01
 0.55869868692E+01 0.55831623482E+01 0.55818800021E+01 0.55831623482E+01 0.55869868692E+01
 0.55932735903E+01 0.56018529510E+01 0.56124276932E+01 0.56245464628E+01 0.56376047741E+01
 0.56508815184E+01 0.56636087810E+01 0.56750627441E+01 0.56846569259E+01 0.56920176161E+01
 0.56970251755E+01 0.56998126493E+01 0.57007228135E+01 0.57002339328E+01 0.56988709132E+01
 0.56971206991E+01 0.56953684008E+01 0.56938646644E+01 0.56927269089E+01 0.56919691427E+01
 0.56915488097E+01 0.58477727179E+01 0.58469623577E+01 0.58445786943E+01 0.58407537014E+01
 0.58356747057E+01 0.58295411384E+01 0.58225151991E+01 0.58146768804E+01 0.58059948363E+01
 0.57963231014E+01 0.57854290287E+01 0.57730505341E+01 0.57589726805E+01 0.57431073659E+01
 0.57255575856E+01 0.57066503168E+01 0.56869290004E+01 0.56671061936E+01 0.56479868086E+01
 0.56303796525E+01 0.56150172809E+01 0.56025003315E+01 0.55932735903E+01 0.55876302396E+01
 0.55857320878E+01 0.55876302396E+01 0.55932735903E+01 0.56025003315E+01 0.56150172809E+01
 0.56303796525E+01 0.56479868086E+01 0.56671061936E+01 0.56869290004E+01 0.57066503168E+01
 0.57255575856E+01 0.57431073659E+01 0.57589726805E+01 0.57730505341E+01 0.57854290287E+01
 0.57963231014E+01 0.58059948363E+01 0.58146768804E+01 0.58225151991E+01 0.58295411384E+01
 0.58356747057E+01 0.58407537014E+01 0.58445786943E+01 0.58469623577E+01 0.60940239748E+01
 0.60916813765E+01 0.60847296946E+01 0.60733965994E+01 0.60580560562E+01 0.60392107090E+01
 0.60174546886E+01 0.59934158226E+01 0.59676856670E+01 0.59407540037E+01 0.59129670990E+01
 0.58845242276E+01 0.58555162635E+01 0.58259975897E+01 0.57960726501E+01 0.57659742117E+01
 0.57361127568E+01 0.57070844537E+01 0.56796364906E+01 0.56545998871E+01 0.56328076036E+01
 0.56150172809E+01 0.56018529510E+01 0.55937709862E+01 0.55910464788E+01 0.55937709862E+01
 0.56018529510E+01 0.56150172809E+01 0.56328076036E+01 0.56545998871E+01 0.56796364906E+01
 0.57070844537E+01 0.57361127568E+01 0.57659742117E+01 0.57960726501E+01 0.58259975897E+01
 0.58555162635E+01 0.58845242276E+01 0.59129670990E+01 0.59407540037E+01 0.59676856670E+01
 0.59934158226E+01 0.60174546886E+01 0.60392107090E+01 0.60580560562E+01 0.60733965994E+01
 0.60847296946E+01 0.60916813765E+01 0.64526063694E+01 0.64480660588E+01 0.64345293946E+01
 0.64122721593E+01 0.63818175766E+01 0.63439918396E+01 0.62999402677E+01 0.62510770048E+01
 0.61989657706E+01 0.61451561092E+01 0.60910175991E+01 0.60376166660E+01 0.59856671935E+01
 0.59355634126E+01 0.58874803791E+01 0.58415109588E+01 0.57978021759E+01 0.57566579478E+01
 0.57185870609E+01 0.56842908369E+01 0.56545998871E+01 0.56303796525E+01 0.56124276932E+01
 0.56013821429E+01 0.55976532124E+01 0.56013821429E+01 0.56124276932E+01 0.56303796525E+01
 0.56545998871E+01 0.56842908369E+01 0.57185870609E+01 0.57566579478E+01 0.57978021759E+01
 0.58415109588E+01 0.58874803791E+01 0.59355634126E+01 0.59856671935E+01 0.60376166660E+01
 0.60910175991E+01 0.61451561092E+01 0.61989657706E+01 0.62510770048E+01 0.62999402677E+01
 0.63439918396E+01 0.63818175766E+01 0.64122721593E+01 0.64345293946E+01 0.64480660588E+01
 0.69429682960E+01 0.69356795912E+01 0.69138341693E+01 0.68775674751E+01 0.68273190170E+01
 0.67640570169E+01 0.66894388641E+01 0.66058270415E+01 0.65161299142E+01 0.64234974528E+01
 0.63309503358E+01 0.62410399076E+01 0.61556220962E+01 0.60757897765E+01 0.60019617098E+01
 0.59340877685E+01 0.58719087719E+01 0.58152062928E+01 0.57639895078E+01 0.57185870609E+01
 0.56796364906E+01 0.56479868086E+01 0.56245464628E+01 0.56101159068E+01 0.56052412235E+01
 0.56101159068E+01 0.56245464628E+01 0.56479868086E+01 0.56796364906E+01 0.57185870609E+01
 0.57639895078E+01 0.58152062928E+01 0.58719087719E+01 0.59340877685E+01 0.60019617098E+01
 0.60757897765E+01 0.61556220962E+01 0.62410399076E+01 0.63309503358E+01 0.64234974528E+01
 0.65161299142E+01 0.66058270415E+01 0.66894388641E+01 0.67640570169E+01 0.68273190170E+01
 0.68775674751E+01 0.69138341693E+01 0.69356795912E+01 0.75716561416E+01 0.75614558166E+01
 0.75308393596E+01 0.74794014818E+01 0.74068329696E+01 0.73136531824E+01 0.72016218393E+01
 0.70739493799E+01 0.69351502085E+01 0.67905631933E+01 0.66456674387E+01 0.65053768722E+01
 0.63734895064E+01 0.62524066085E+01 0.61431517564E+01 0.60456414610E+01 0.59591089955E+01
 0.58825670015E+01 0.58152062928E+01 0.57566579478E+01 0.57070844537E+01 0.56671061936E+01
 0.56376047741E+01 0.56194674302E+01 0.56133426852E+01 0.56194674302E+01 0.56376047741E+01
 0.56671061936E+01 0.57070844537E+01 0.57566579478E+01 0.58152062928E+01 0.58825670015E+01
 0.59591089955E+01 0.60456414610E+01 0.61431517564E+01 0.62524066085E+01 0.63734895064E+01
 0.65053768722E+01 0.66456674387E+01 0.67905631933E+01 0.69351502085E+01 0.70739493799E+01
 0.72016218393E+01 0.73136531824E+01 0.74068329696E+01 0.74794014818E+01 0.75308393596E+01
 0.75614558166E+01 0.84446998154E+01 0.84224927923E+01 0.83585066342E+01 0.82599339649E+01
 0.81363316156E+01 0.79958962638E+01 0.78404251514E+01 0.76633434817E+01 0.74665826133E+01
 0.72581475423E+01 0.70468960231E+01 0.68412600208E+01 0.66481413647E+01 0.64722243143E+01
 0.63158059408E+01 0.61790981555E+01 0.60608515414E+01 0.59591089955E+01 0.58719087719E+01
 0.57978021759E+01 0.57361127568E+01 0.56869290004E+01 0.56508815184E+01 0.56287986136E+01
 0.56213523943E+01 0.56287986136E+01 0.56508815184E+01 0.56869290004E+01 0.57361127568E+01
 0.57978021759E+01 0.58719087719E+01 0.59591089955E+01 0.60608515414E+01 0.61790981555E+01
 0.63158059408E+01 0.64722243143E+01 0.66481413647E+01 0.68412600208E+01 0.70468960231E+01
 0.72581475423E+01 0.74665826133E+01 0.76633434817E+01 0.78404251514E+01 0.79958962638E+01
 0.81363316156E+01 0.82599339649E+01 0.83585066342E+01 0.84224927923E+01 0.10019151849E+02
 0.99670977824E+01 0.98167930724E+01 0.95851242047E+01 0.92977302690E+01 0.89846771927E+01
 0.86738504527E+01 0.83825640966E+01 0.81088693302E+01 0.78295778596E+01 0.75410092280E+01
 0.72563224646E+01 0.69870868234E+01 0.67417198692E+01 0.65249112862E+01 0.63378578057E+01
 0.61790981555E+01 0.60456414610E+01 0.59340877685E+01 0.58415109588E+01 0.57659742117E+01
 0.57066503168E+01 0.56636087810E+01 0.56373980198E+01 0.56285837636E+01 0.56373980198E+01
 0.56636087810E+01 0.57066503168E+01 0.57659742117E+01 0.58415109588E+01 0.59340877685E+01
 0.60456414610E+01 0.61790981555E+01 0.63378578057E+01 0.65249112862E+01 0.67417198692E+01
 0.69870868234E+01 0.72563224646E+01 0.75410092280E+01 0.78295778596E+01 0.81088693302E+01
 0.83825640966E+01 0.86738504527E+01 0.89846771927E+01 0.92977302690E+01 0.95851242047E+01