   2   2   1   0
  0.1136426E+02  0.2832634E-09  0.2832634E-09  0.2832634E-09  0.5000000E-15
  1.000000000000000E-004
  CAR 
 unknown system                          
     27.77287971     -4.49847703  301      5.78981165      1.00000000
     -4.498  0.0000E+00  0.0000E+00  0.0000E+00  0.0000E+00
     -4.391  0.0000E+00  0.0000E+00  0.0000E+00  0.0000E+00
     -4.283  0.0000E+00  0.0000E+00  0.0000E+00  0.0000E+00
     -4.176 -0.2903E-31  0.0000E+00 -0.3123E-32  0.0000E+00
     -4.068 -0.1684E-27  0.0000E+00 -0.1812E-28  0.0000E+00
     -3.961 -0.5451E-24 -0.2587E-29 -0.5866E-25 -0.2782E-30
     -3.853 -0.9839E-21 -0.1114E-25 -0.1059E-21 -0.1199E-26
     -3.745 -0.9893E-18 -0.2679E-22 -0.1065E-18 -0.2883E-23
     -3.638 -0.5366E-15 -0.3589E-19 -0.5783E-16 -0.3863E-20
     -3.530 -0.1655E-12 -0.2677E-16 -0.1787E-13 -0.2883E-17
     -3.423 -0.2822E-10 -0.1072E-13 -0.3054E-11 -0.1156E-14
     -3.315 -0.2645E-08 -0.2447E-11 -0.2876E-09 -0.2644E-12
     -3.208 -0.1351E-06 -0.3078E-09 -0.1482E-07 -0.3337E-10
     -3.100 -0.3709E-05 -0.2120E-07 -0.4138E-06 -0.2314E-08
     -2.992 -0.5311E-04 -0.7911E-06 -0.6127E-05 -0.8741E-07
     -2.885 -0.3702E-03 -0.1566E-04 -0.4595E-04 -0.1772E-05
     -2.777 -0.9817E-03 -0.1575E-03 -0.1516E-03 -0.1872E-04
     -2.670  0.8934E-03 -0.7117E-03 -0.5546E-04 -0.9527E-04
     -2.562  0.8875E-02 -0.6759E-03  0.8992E-03 -0.1680E-03
     -2.455  0.1627E-01  0.4362E-02  0.2649E-02  0.3012E-03
     -2.347  0.2349E-01  0.1337E-01  0.5176E-02  0.1739E-02
     -2.239  0.4379E-01  0.1859E-01  0.9887E-02  0.3738E-02
     -2.132  0.5406E-01  0.3216E-01  0.1570E-01  0.7198E-02
     -2.024  0.4790E-01  0.5205E-01  0.2086E-01  0.1280E-01
     -1.917  0.5143E-01  0.5032E-01  0.2639E-01  0.1821E-01
     -1.809  0.5278E-01  0.4782E-01  0.3207E-01  0.2335E-01
     -1.702  0.6072E-01  0.5233E-01  0.3860E-01  0.2898E-01
     -1.594  0.7433E-01  0.5320E-01  0.4659E-01  0.3471E-01
     -1.486  0.8830E-01  0.6646E-01  0.5609E-01  0.4186E-01
     -1.379  0.1102E+00  0.7583E-01  0.6795E-01  0.5001E-01
     -1.271  0.9424E-01  0.9476E-01  0.7809E-01  0.6021E-01
     -1.164  0.6150E-01  0.1095E+00  0.8470E-01  0.7198E-01
     -1.056  0.6035E-01  0.7986E-01  0.9119E-01  0.8057E-01
     -0.949  0.8831E-01  0.5466E-01  0.1007E+00  0.8645E-01
     -0.841  0.1207E+00  0.6060E-01  0.1137E+00  0.9297E-01
     -0.733  0.1509E+00  0.9130E-01  0.1299E+00  0.1028E+00
     -0.626  0.1731E+00  0.1191E+00  0.1485E+00  0.1156E+00
     -0.518  0.1318E+00  0.1467E+00  0.1627E+00  0.1314E+00
     -0.411  0.8749E-01  0.1699E+00  0.1721E+00  0.1497E+00
     -0.303  0.1086E+00  0.1240E+00  0.1838E+00  0.1630E+00
     -0.196  0.1386E+00  0.7057E-01  0.1987E+00  0.1706E+00
     -0.088  0.1542E+00  0.8335E-01  0.2153E+00  0.1796E+00
      0.020  0.1860E+00  0.1251E+00  0.2353E+00  0.1930E+00
      0.127  0.2011E+00  0.1431E+00  0.2570E+00  0.2084E+00
      0.235  0.1993E+00  0.1635E+00  0.2784E+00  0.2260E+00
      0.342  0.2246E+00  0.1733E+00  0.3025E+00  0.2446E+00
      0.450  0.2681E+00  0.1517E+00  0.3314E+00  0.2610E+00
      0.557  0.2596E+00  0.1533E+00  0.3593E+00  0.2774E+00
      0.665  0.2268E+00  0.1859E+00  0.3837E+00  0.2974E+00
      0.773  0.2560E+00  0.2225E+00  0.4113E+00  0.3214E+00
      0.880  0.4845E+00  0.2218E+00  0.4634E+00  0.3452E+00
      0.988  0.8838E+00  0.1704E+00  0.5584E+00  0.3636E+00
      1.095  0.1120E+01  0.1267E+00  0.6789E+00  0.3772E+00
      1.203  0.1116E+01  0.1447E+00  0.7989E+00  0.3928E+00
      1.310  0.1094E+01  0.2340E+00  0.9166E+00  0.4179E+00
      1.418  0.1314E+01  0.3219E+00  0.1058E+01  0.4526E+00
      1.526  0.1750E+01  0.3431E+00  0.1246E+01  0.4895E+00
      1.633  0.1943E+01  0.3052E+00  0.1455E+01  0.5223E+00
      1.741  0.1784E+01  0.2590E+00  0.1647E+01  0.5502E+00
      1.848  0.1585E+01  0.2937E+00  0.1817E+01  0.5817E+00
      1.956  0.1344E+01  0.4170E+00  0.1962E+01  0.6266E+00
      2.063  0.1054E+01  0.4668E+00  0.2075E+01  0.6768E+00
      2.171  0.8955E+00  0.4590E+00  0.2172E+01  0.7262E+00
      2.279  0.9063E+00  0.5576E+00  0.2269E+01  0.7862E+00
      2.386  0.1548E+01  0.7386E+00  0.2436E+01  0.8656E+00
      2.494  0.2759E+01  0.8562E+00  0.2732E+01  0.9577E+00
      2.601  0.3221E+01  0.8069E+00  0.3079E+01  0.1045E+01
      2.709  0.2604E+01  0.6570E+00  0.3359E+01  0.1115E+01
      2.816  0.2020E+01  0.6383E+00  0.3576E+01  0.1184E+01
      2.924  0.2003E+01  0.8805E+00  0.3792E+01  0.1279E+01
      3.032  0.2232E+01  0.1128E+01  0.4032E+01  0.1400E+01
      3.139  0.2494E+01  0.1222E+01  0.4300E+01  0.1531E+01
      3.247  0.2797E+01  0.1312E+01  0.4601E+01  0.1673E+01
      3.354  0.2885E+01  0.1298E+01  0.4912E+01  0.1812E+01
      3.462  0.2514E+01  0.1044E+01  0.5182E+01  0.1925E+01
      3.569  0.1756E+01  0.7965E+00  0.5371E+01  0.2010E+01
      3.677  0.1078E+01  0.6982E+00  0.5487E+01  0.2085E+01
      3.785  0.8158E+00  0.6243E+00  0.5575E+01  0.2152E+01
      3.892  0.8224E+00  0.7067E+00  0.5663E+01  0.2228E+01
      4.000  0.8477E+00  0.1242E+01  0.5754E+01  0.2362E+01
      4.107  0.9355E+00  0.2134E+01  0.5855E+01  0.2592E+01
      4.215  0.1105E+01  0.2724E+01  0.5974E+01  0.2885E+01
      4.322  0.1431E+01  0.2610E+01  0.6128E+01  0.3165E+01
      4.430  0.2067E+01  0.2359E+01  0.6350E+01  0.3419E+01
      4.538  0.2714E+01  0.2368E+01  0.6642E+01  0.3674E+01
      4.645  0.3394E+01  0.2327E+01  0.7007E+01  0.3924E+01
      4.753  0.4267E+01  0.2232E+01  0.7466E+01  0.4164E+01
      4.860  0.4936E+01  0.2328E+01  0.7997E+01  0.4415E+01
      4.968  0.4854E+01  0.2451E+01  0.8519E+01  0.4679E+01
      5.075  0.3822E+01  0.2397E+01  0.8930E+01  0.4936E+01
      5.183  0.2583E+01  0.2175E+01  0.9208E+01  0.5170E+01
      5.291  0.1822E+01  0.1859E+01  0.9404E+01  0.5370E+01
      5.398  0.1499E+01  0.1430E+01  0.9565E+01  0.5524E+01
      5.506  0.1542E+01  0.9492E+00  0.9731E+01  0.5626E+01
      5.613  0.1650E+01  0.7117E+00  0.9909E+01  0.5703E+01
      5.721  0.1609E+01  0.6595E+00  0.1008E+02  0.5774E+01
      5.828  0.1524E+01  0.5090E+00  0.1025E+02  0.5829E+01
      5.936  0.1378E+01  0.3332E+00  0.1039E+02  0.5864E+01
      6.043  0.1087E+01  0.4165E+00  0.1051E+02  0.5909E+01
      6.151  0.6580E+00  0.6656E+00  0.1058E+02  0.5981E+01
      6.259  0.3270E+00  0.7060E+00  0.1062E+02  0.6057E+01
      6.366  0.2068E+00  0.6922E+00  0.1064E+02  0.6131E+01
      6.474  0.1563E+00  0.8667E+00  0.1066E+02  0.6224E+01
      6.581  0.1961E+00  0.1129E+01  0.1068E+02  0.6346E+01
      6.689  0.3396E+00  0.1454E+01  0.1071E+02  0.6502E+01
      6.796  0.4107E+00  0.1683E+01  0.1076E+02  0.6683E+01
      6.904  0.3460E+00  0.1698E+01  0.1079E+02  0.6866E+01
      7.012  0.2848E+00  0.1888E+01  0.1083E+02  0.7069E+01
      7.119  0.2729E+00  0.2460E+01  0.1085E+02  0.7334E+01
      7.227  0.3238E+00  0.2840E+01  0.1089E+02  0.7639E+01
      7.334  0.3742E+00  0.2643E+01  0.1093E+02  0.7924E+01
      7.442  0.3561E+00  0.2437E+01  0.1097E+02  0.8186E+01
      7.549  0.2986E+00  0.2993E+01  0.1100E+02  0.8508E+01
      7.657  0.1944E+00  0.4269E+01  0.1102E+02  0.8967E+01
      7.765  0.1147E+00  0.4834E+01  0.1103E+02  0.9487E+01
      7.872  0.1290E+00  0.3728E+01  0.1105E+02  0.9888E+01
      7.980  0.1957E+00  0.2259E+01  0.1107E+02  0.1013E+02
      8.087  0.3101E+00  0.1635E+01  0.1110E+02  0.1031E+02
      8.195  0.4388E+00  0.1487E+01  0.1115E+02  0.1047E+02
      8.302  0.4168E+00  0.1114E+01  0.1119E+02  0.1059E+02
      8.410  0.2625E+00  0.5675E+00  0.1122E+02  0.1065E+02
      8.518  0.1871E+00  0.2926E+00  0.1124E+02  0.1068E+02
      8.625  0.2339E+00  0.3777E+00  0.1127E+02  0.1072E+02
      8.733  0.2832E+00  0.5625E+00  0.1130E+02  0.1078E+02
      8.840  0.2554E+00  0.6232E+00  0.1133E+02  0.1085E+02
      8.948  0.1973E+00  0.5124E+00  0.1135E+02  0.1090E+02
      9.055  0.1909E+00  0.2948E+00  0.1137E+02  0.1093E+02
      9.163  0.2688E+00  0.2237E+00  0.1140E+02  0.1096E+02
      9.271  0.3730E+00  0.3168E+00  0.1144E+02  0.1099E+02
      9.378  0.3150E+00  0.3364E+00  0.1147E+02  0.1103E+02
      9.486  0.1513E+00  0.3330E+00  0.1149E+02  0.1106E+02
      9.593  0.1020E+00  0.3778E+00  0.1150E+02  0.1110E+02
      9.701  0.1135E+00  0.3765E+00  0.1151E+02  0.1115E+02
      9.808  0.7245E-01  0.3269E+00  0.1152E+02  0.1118E+02
      9.916  0.5359E-01  0.3104E+00  0.1152E+02  0.1121E+02
     10.024  0.1788E+00  0.3680E+00  0.1154E+02  0.1125E+02
     10.131  0.3459E+00  0.3607E+00  0.1158E+02  0.1129E+02
     10.239  0.3734E+00  0.2813E+00  0.1162E+02  0.1132E+02
     10.346  0.3470E+00  0.2368E+00  0.1166E+02  0.1135E+02
     10.454  0.2995E+00  0.2402E+00  0.1169E+02  0.1137E+02
     10.561  0.1839E+00  0.3160E+00  0.1171E+02  0.1141E+02
     10.669  0.1303E+00  0.3667E+00  0.1172E+02  0.1145E+02
     10.777  0.1481E+00  0.2670E+00  0.1174E+02  0.1148E+02
     10.884  0.1319E+00  0.1478E+00  0.1175E+02  0.1149E+02
     10.992  0.7979E-01  0.1391E+00  0.1176E+02  0.1151E+02
     11.099  0.4896E-01  0.1730E+00  0.1177E+02  0.1153E+02
     11.207  0.4530E-01  0.2041E+00  0.1177E+02  0.1155E+02
     11.314  0.9664E-01  0.2291E+00  0.1178E+02  0.1157E+02
     11.422  0.1964E+00  0.2863E+00  0.1180E+02  0.1160E+02
     11.530  0.2204E+00  0.3785E+00  0.1183E+02  0.1164E+02
     11.637  0.1299E+00  0.3778E+00  0.1184E+02  0.1168E+02
     11.745  0.4920E-01  0.2635E+00  0.1185E+02  0.1171E+02
     11.852  0.4363E-01  0.1702E+00  0.1185E+02  0.1173E+02
     11.960  0.8482E-01  0.1401E+00  0.1186E+02  0.1175E+02
     12.067  0.1684E+00  0.9689E-01  0.1188E+02  0.1176E+02
     12.175  0.1973E+00  0.4056E-01  0.1190E+02  0.1176E+02
     12.283  0.1106E+00  0.3338E-01  0.1191E+02  0.1176E+02
     12.390  0.6192E-01  0.6840E-01  0.1192E+02  0.1177E+02
     12.498  0.1059E+00  0.1580E+00  0.1193E+02  0.1179E+02
     12.605  0.1265E+00  0.2686E+00  0.1194E+02  0.1182E+02
     12.713  0.1010E+00  0.2520E+00  0.1195E+02  0.1184E+02
     12.820  0.6051E-01  0.1441E+00  0.1196E+02  0.1186E+02
     12.928  0.1205E-01  0.1290E+00  0.1196E+02  0.1187E+02
     13.036 -0.2745E-02  0.1528E+00  0.1196E+02  0.1189E+02
     13.143  0.7747E-01  0.1126E+00  0.1197E+02  0.1190E+02
     13.251  0.2393E+00  0.8200E-01  0.1200E+02  0.1191E+02
     13.358  0.3549E+00  0.1007E+00  0.1203E+02  0.1192E+02
     13.466  0.3823E+00  0.1037E+00  0.1207E+02  0.1193E+02
     13.573  0.4159E+00  0.6351E-01  0.1212E+02  0.1194E+02
     13.681  0.4495E+00  0.5317E-01  0.1217E+02  0.1195E+02
     13.789  0.4627E+00  0.7801E-01  0.1222E+02  0.1195E+02
     13.896  0.5539E+00  0.6365E-01  0.1228E+02  0.1196E+02
     14.004  0.6382E+00  0.1771E-01  0.1235E+02  0.1196E+02
     14.111  0.5565E+00 -0.4640E-02  0.1241E+02  0.1196E+02
     14.219  0.4161E+00 -0.9139E-03  0.1245E+02  0.1196E+02
     14.326  0.2983E+00  0.1785E-01  0.1248E+02  0.1196E+02
     14.434  0.2318E+00  0.1397E+00  0.1251E+02  0.1198E+02
     14.542  0.2346E+00  0.4406E+00  0.1253E+02  0.1203E+02
     14.649  0.2723E+00  0.6380E+00  0.1256E+02  0.1210E+02
     14.757  0.3213E+00  0.4990E+00  0.1260E+02  0.1215E+02
     14.864  0.3136E+00  0.4090E+00  0.1263E+02  0.1219E+02
     14.972  0.2736E+00  0.6076E+00  0.1266E+02  0.1226E+02
     15.079  0.2814E+00  0.7566E+00  0.1269E+02  0.1234E+02
     15.187  0.3002E+00  0.7060E+00  0.1272E+02  0.1242E+02
     15.295  0.3637E+00  0.5515E+00  0.1276E+02  0.1248E+02
     15.402  0.4590E+00  0.3751E+00  0.1281E+02  0.1252E+02
     15.510  0.4805E+00  0.2786E+00  0.1286E+02  0.1255E+02
     15.617  0.4657E+00  0.2153E+00  0.1291E+02  0.1257E+02
     15.725  0.4054E+00  0.1434E+00  0.1296E+02  0.1258E+02
     15.832  0.2930E+00  0.1674E+00  0.1299E+02  0.1260E+02
     15.940  0.2134E+00  0.3257E+00  0.1301E+02  0.1264E+02
     16.048  0.2283E+00  0.5266E+00  0.1304E+02  0.1269E+02
     16.155  0.2950E+00  0.6067E+00  0.1307E+02  0.1276E+02
     16.263  0.3806E+00  0.4845E+00  0.1311E+02  0.1281E+02
     16.370  0.4737E+00  0.3668E+00  0.1316E+02  0.1285E+02
     16.478  0.4634E+00  0.4377E+00  0.1321E+02  0.1290E+02
     16.585  0.3567E+00  0.5682E+00  0.1325E+02  0.1296E+02
     16.693  0.3043E+00  0.5300E+00  0.1328E+02  0.1302E+02
     16.801  0.3979E+00  0.3367E+00  0.1332E+02  0.1305E+02
     16.908  0.6044E+00  0.1714E+00  0.1339E+02  0.1307E+02
     17.016  0.6923E+00  0.1612E+00  0.1346E+02  0.1309E+02
     17.123  0.5025E+00  0.3054E+00  0.1352E+02  0.1312E+02
     17.231  0.2464E+00  0.4302E+00  0.1354E+02  0.1317E+02
     17.338  0.1407E+00  0.4261E+00  0.1356E+02  0.1321E+02
     17.446  0.1609E+00  0.3921E+00  0.1358E+02  0.1326E+02
     17.554  0.2273E+00  0.4312E+00  0.1360E+02  0.1330E+02
     17.661  0.2624E+00  0.5805E+00  0.1363E+02  0.1336E+02
     17.769  0.2528E+00  0.7000E+00  0.1366E+02  0.1344E+02
     17.876  0.2810E+00  0.6309E+00  0.1369E+02  0.1351E+02
     17.984  0.3541E+00  0.4625E+00  0.1372E+02  0.1356E+02
     18.091  0.4152E+00  0.2631E+00  0.1377E+02  0.1359E+02
     18.199  0.4816E+00  0.7656E-01  0.1382E+02  0.1359E+02
     18.307  0.5947E+00  0.5301E-01  0.1388E+02  0.1360E+02
     18.414  0.6318E+00  0.1948E+00  0.1395E+02  0.1362E+02
     18.522  0.4600E+00  0.2986E+00  0.1400E+02  0.1365E+02
     18.629  0.2411E+00  0.2982E+00  0.1403E+02  0.1368E+02
     18.737  0.1568E+00  0.3794E+00  0.1404E+02  0.1373E+02
     18.844  0.2081E+00  0.5498E+00  0.1407E+02  0.1378E+02
     18.952  0.3154E+00  0.5634E+00  0.1410E+02  0.1384E+02
     19.060  0.3208E+00  0.4741E+00  0.1414E+02  0.1390E+02
     19.167  0.2236E+00  0.5225E+00  0.1416E+02  0.1395E+02
     19.275  0.2144E+00  0.5324E+00  0.1418E+02  0.1401E+02
     19.382  0.2843E+00  0.3375E+00  0.1421E+02  0.1405E+02
     19.490  0.2841E+00  0.1833E+00  0.1424E+02  0.1407E+02
     19.597  0.2564E+00  0.1826E+00  0.1427E+02  0.1408E+02
     19.705  0.2703E+00  0.2505E+00  0.1430E+02  0.1411E+02
     19.813  0.3163E+00  0.3248E+00  0.1433E+02  0.1415E+02
     19.920  0.4160E+00  0.3380E+00  0.1438E+02  0.1418E+02
     20.028  0.5078E+00  0.2999E+00  0.1443E+02  0.1422E+02
     20.135  0.5274E+00  0.2425E+00  0.1449E+02  0.1424E+02
     20.243  0.4565E+00  0.2092E+00  0.1454E+02  0.1426E+02
     20.350  0.3070E+00  0.2574E+00  0.1457E+02  0.1429E+02
     20.458  0.2179E+00  0.3251E+00  0.1460E+02  0.1433E+02
     20.566  0.2158E+00  0.3798E+00  0.1462E+02  0.1437E+02
     20.673  0.1642E+00  0.5222E+00  0.1464E+02  0.1442E+02
     20.781  0.9415E-01  0.6430E+00  0.1465E+02  0.1449E+02
     20.888  0.1390E+00  0.4939E+00  0.1466E+02  0.1455E+02
     20.996  0.2915E+00  0.2302E+00  0.1469E+02  0.1457E+02
     21.103  0.3982E+00  0.1748E+00  0.1474E+02  0.1459E+02
     21.211  0.3606E+00  0.2655E+00  0.1477E+02  0.1462E+02
     21.319  0.2474E+00  0.2375E+00  0.1480E+02  0.1464E+02
     21.426  0.1702E+00  0.1536E+00  0.1482E+02  0.1466E+02
     21.534  0.2197E+00  0.2106E+00  0.1484E+02  0.1468E+02
     21.641  0.3428E+00  0.3054E+00  0.1488E+02  0.1472E+02
     21.749  0.4045E+00  0.3484E+00  0.1492E+02  0.1475E+02
     21.856  0.4143E+00  0.3314E+00  0.1497E+02  0.1479E+02
     21.964  0.3947E+00  0.2218E+00  0.1501E+02  0.1481E+02
     22.072  0.3684E+00  0.1666E+00  0.1505E+02  0.1483E+02
     22.179  0.3611E+00  0.2699E+00  0.1509E+02  0.1486E+02
     22.287  0.2800E+00  0.3921E+00  0.1512E+02  0.1490E+02
     22.394  0.1573E+00  0.4059E+00  0.1514E+02  0.1495E+02
     22.502  0.2256E+00  0.3521E+00  0.1516E+02  0.1498E+02
     22.609  0.3866E+00  0.3717E+00  0.1520E+02  0.1502E+02
     22.717  0.3765E+00  0.4306E+00  0.1524E+02  0.1507E+02
     22.825  0.2830E+00  0.3637E+00  0.1527E+02  0.1511E+02
     22.932  0.2372E+00  0.2330E+00  0.1530E+02  0.1513E+02
     23.040  0.3094E+00  0.2041E+00  0.1533E+02  0.1516E+02
     23.147  0.5065E+00  0.2636E+00  0.1539E+02  0.1518E+02
     23.255  0.5491E+00  0.3169E+00  0.1545E+02  0.1522E+02
     23.362  0.3498E+00  0.3422E+00  0.1548E+02  0.1526E+02
     23.470  0.2520E+00  0.3898E+00  0.1551E+02  0.1530E+02
     23.578  0.3236E+00  0.4088E+00  0.1554E+02  0.1534E+02
     23.685  0.4157E+00  0.3529E+00  0.1559E+02  0.1538E+02
     23.793  0.5269E+00  0.3811E+00  0.1565E+02  0.1542E+02
     23.900  0.5584E+00  0.4773E+00  0.1571E+02  0.1547E+02
     24.008  0.4995E+00  0.5129E+00  0.1576E+02  0.1553E+02
     24.115  0.4123E+00  0.5614E+00  0.1580E+02  0.1559E+02
     24.223  0.3021E+00  0.6072E+00  0.1584E+02  0.1565E+02
     24.331  0.2688E+00  0.5196E+00  0.1587E+02  0.1571E+02
     24.438  0.2710E+00  0.4045E+00  0.1589E+02  0.1575E+02
     24.546  0.2068E+00  0.3840E+00  0.1592E+02  0.1579E+02
     24.653  0.1391E+00  0.3784E+00  0.1593E+02  0.1583E+02
     24.761  0.8934E-01  0.3347E+00  0.1594E+02  0.1587E+02
     24.868  0.2458E-01  0.2444E+00  0.1594E+02  0.1590E+02
     24.976 -0.6508E-03  0.1555E+00  0.1594E+02  0.1591E+02
     25.084  0.6022E-01  0.1355E+00  0.1595E+02  0.1593E+02
     25.191  0.1603E+00  0.1116E+00  0.1597E+02  0.1594E+02
     25.299  0.1852E+00  0.4576E-01  0.1599E+02  0.1594E+02
     25.406  0.1053E+00 -0.3638E-02  0.1600E+02  0.1594E+02
     25.514  0.1959E-01  0.1613E-01  0.1600E+02  0.1595E+02
     25.621 -0.7372E-02  0.1178E+00  0.1600E+02  0.1596E+02
     25.729 -0.4253E-02  0.2020E+00  0.1600E+02  0.1598E+02
     25.837 -0.7981E-03  0.1534E+00  0.1600E+02  0.1600E+02
     25.944 -0.7155E-04  0.4622E-01  0.1600E+02  0.1600E+02
     26.052 -0.3329E-05 -0.4208E-02  0.1600E+02  0.1600E+02
     26.159 -0.8296E-07 -0.6375E-02  0.1600E+02  0.1600E+02
     26.267 -0.1125E-08 -0.1664E-02  0.1600E+02  0.1600E+02
     26.374 -0.8378E-11 -0.2020E-03  0.1600E+02  0.1600E+02
     26.482 -0.3440E-13 -0.1284E-04  0.1600E+02  0.1600E+02
     26.590 -0.8601E-16 -0.4425E-06  0.1600E+02  0.1600E+02
     26.697  0.0000E+00 -0.8374E-08  0.1600E+02  0.1600E+02
     26.805  0.0000E+00 -0.8753E-10  0.1600E+02  0.1600E+02
     26.912  0.0000E+00 -0.5070E-12  0.1600E+02  0.1600E+02
     27.020  0.0000E+00 -0.1605E-14  0.1600E+02  0.1600E+02
     27.127  0.0000E+00  0.0000E+00  0.1600E+02  0.1600E+02
     27.235  0.0000E+00  0.0000E+00  0.1600E+02  0.1600E+02
     27.343  0.0000E+00  0.0000E+00  0.1600E+02  0.1600E+02
     27.450  0.0000E+00  0.0000E+00  0.1600E+02  0.1600E+02
     27.558  0.0000E+00  0.0000E+00  0.1600E+02  0.1600E+02
     27.665  0.0000E+00  0.0000E+00  0.1600E+02  0.1600E+02
     27.773  0.0000E+00  0.0000E+00  0.1600E+02  0.1600E+02
     27.77287971     -4.49847703  301      5.78981165      1.00000000
     -4.498  0.0000E+00  0.0000E+00  0.0000E+00  0.0000E+00  0.0000E+00  0.0000E+00  0.0000E+00  0.0000E+00  0.0000E+00  0.0000E+00  0.0000E+00  0.0000E+00  0.0000E+00  0.0000E+00  0.0000E+00  0.0000E+00  0.0000E+00  0.0000E+00
     -4.391  0.0000E+00  0.0000E+00  0.0000E+00  0.0000E+00  0.0000E+00  0.0000E+00  0.0000E+00  0.0000E+00  0.0000E+00  0.0000E+00  0.0000E+00  0.0000E+00  0.0000E+00  0.0000E+00  0.0000E+00  0.0000E+00  0.0000E+00  0.0000E+00
     -4.283  0.0000E+00  0.0000E+00  0.0000E+00  0.0000E+00  0.0000E+00  0.0000E+00  0.0000E+00  0.0000E+00  0.0000E+00  0.0000E+00  0.0000E+00  0.0000E+00  0.0000E+00  0.0000E+00  0.0000E+00  0.0000E+00  0.0000E+00  0.0000E+00
     -4.176 -0.1050E-31  0.0000E+00 -0.3712E-34  0.0000E+00 -0.3712E-34  0.0000E+00 -0.3712E-34  0.0000E+00 -0.4255E-36  0.0000E+00 -0.4255E-36  0.0000E+00 -0.4973E-54  0.0000E+00 -0.4255E-36  0.0000E+00 -0.2593E-55  0.0000E+00
     -4.068 -0.6091E-28  0.0000E+00 -0.2153E-30  0.0000E+00 -0.2153E-30  0.0000E+00 -0.2153E-30  0.0000E+00 -0.2468E-32  0.0000E+00 -0.2468E-32  0.0000E+00 -0.2885E-50  0.0000E+00 -0.2468E-32  0.0000E+00 -0.1504E-51  0.0000E+00
     -3.961 -0.1972E-24 -0.9350E-30 -0.6968E-27 -0.3321E-32 -0.6968E-27 -0.3321E-32 -0.6968E-27 -0.3321E-32 -0.7988E-29 -0.2717E-34 -0.7988E-29 -0.2717E-34 -0.9337E-47 -0.2072E-52 -0.7988E-29 -0.2717E-34 -0.4868E-48 -0.8425E-53
     -3.853 -0.3559E-21 -0.4029E-26 -0.1258E-23 -0.1431E-28 -0.1258E-23 -0.1431E-28 -0.1258E-23 -0.1431E-28 -0.1442E-25 -0.1171E-30 -0.1442E-25 -0.1171E-30 -0.1302E-33 -0.8928E-49 -0.1442E-25 -0.1171E-30 -0.3905E-33 -0.3630E-49
     -3.745 -0.3578E-18 -0.9684E-23 -0.1265E-20 -0.3440E-25 -0.1265E-20 -0.3440E-25 -0.1265E-20 -0.3440E-25 -0.1450E-22 -0.2814E-27 -0.1450E-22 -0.2814E-27 -0.6127E-30 -0.9734E-36 -0.1450E-22 -0.2814E-27 -0.1838E-29 -0.2920E-35
     -3.638 -0.1941E-15 -0.1297E-19 -0.6860E-18 -0.4609E-22 -0.6860E-18 -0.4609E-22 -0.6860E-18 -0.4609E-22 -0.7864E-20 -0.3770E-24 -0.7864E-20 -0.3770E-24 -0.1609E-26 -0.6162E-32 -0.7864E-20 -0.3770E-24 -0.4827E-26 -0.1849E-31
     -3.530 -0.5988E-13 -0.9676E-17 -0.2116E-15 -0.3437E-19 -0.2116E-15 -0.3437E-19 -0.2116E-15 -0.3437E-19 -0.2426E-17 -0.2812E-21 -0.2426E-17 -0.2812E-21 -0.2355E-23 -0.2177E-28 -0.2426E-17 -0.2812E-21 -0.7065E-23 -0.6532E-28
     -3.423 -0.1021E-10 -0.3877E-14 -0.3608E-13 -0.1377E-16 -0.3608E-13 -0.1377E-16 -0.3608E-13 -0.1377E-16 -0.4136E-15 -0.1127E-18 -0.4136E-15 -0.1127E-18 -0.1919E-20 -0.4291E-25 -0.4136E-15 -0.1127E-18 -0.5758E-20 -0.1287E-24
     -3.315 -0.9567E-09 -0.8846E-12 -0.3381E-11 -0.3142E-14 -0.3381E-11 -0.3142E-14 -0.3381E-11 -0.3142E-14 -0.3876E-13 -0.2571E-16 -0.3876E-13 -0.2571E-16 -0.8415E-18 -0.4711E-22 -0.3876E-13 -0.2571E-16 -0.2525E-17 -0.1413E-21
     -3.208 -0.4888E-07 -0.1113E-09 -0.1727E-09 -0.3952E-12 -0.1727E-09 -0.3952E-12 -0.1728E-09 -0.3952E-12 -0.1981E-11 -0.3233E-14 -0.1980E-11 -0.3233E-14 -0.2100E-15 -0.2785E-19 -0.1981E-11 -0.3233E-14 -0.6301E-15 -0.8354E-19
     -3.100 -0.1341E-05 -0.7664E-08 -0.4741E-08 -0.2722E-10 -0.4741E-08 -0.2722E-10 -0.4746E-08 -0.2723E-10 -0.5441E-10 -0.2227E-12 -0.5435E-10 -0.2227E-12 -0.2892E-13 -0.9416E-17 -0.5441E-10 -0.2227E-12 -0.8675E-13 -0.2825E-16
     -2.992 -0.1921E-04 -0.2860E-06 -0.6789E-07 -0.1016E-08 -0.6789E-07 -0.1016E-08 -0.6824E-07 -0.1016E-08 -0.7826E-09 -0.8314E-11 -0.7782E-09 -0.8310E-11 -0.2183E-11 -0.1755E-14 -0.7826E-09 -0.8314E-11 -0.6549E-11 -0.5266E-14
     -2.885 -0.1339E-03 -0.5663E-05 -0.4732E-06 -0.2012E-07 -0.4732E-06 -0.2012E-07 -0.4876E-06 -0.2016E-07 -0.5605E-08 -0.1649E-09 -0.5423E-08 -0.1646E-09 -0.8948E-10 -0.1800E-12 -0.5605E-08 -0.1649E-09 -0.2684E-09 -0.5401E-12
     -2.777 -0.3548E-03 -0.5694E-04 -0.1254E-05 -0.2023E-06 -0.1254E-05 -0.2023E-06 -0.1568E-05 -0.2046E-06 -0.1831E-07 -0.1675E-08 -0.1434E-07 -0.1655E-08 -0.1954E-08 -0.1008E-10 -0.1831E-07 -0.1675E-08 -0.5860E-08 -0.3025E-10
     -2.670  0.3267E-03 -0.2572E-03  0.1154E-05 -0.9137E-06  0.1156E-05 -0.9137E-06 -0.2363E-05 -0.9851E-06 -0.3098E-07 -0.8095E-08  0.1359E-07 -0.7470E-08 -0.2190E-07 -0.3042E-09 -0.3076E-07 -0.8095E-08 -0.6554E-07 -0.9126E-09
     -2.562  0.3228E-02 -0.2432E-03  0.1136E-04 -0.8644E-06  0.1142E-04 -0.8642E-06 -0.6750E-05 -0.1994E-05 -0.1033E-06 -0.1691E-07  0.1321E-06 -0.6999E-08 -0.1142E-06 -0.4819E-08 -0.9629E-07 -0.1689E-07 -0.3375E-06 -0.1444E-07
     -2.455  0.5911E-02  0.1586E-02  0.1997E-04  0.5621E-05  0.2090E-04  0.5631E-05 -0.4130E-05 -0.3202E-05 -0.1892E-06 -0.3151E-07  0.2313E-06  0.4655E-07 -0.1775E-06 -0.3779E-07 -0.7261E-07 -0.3070E-07 -0.4492E-06 -0.1128E-06
     -2.347  0.8395E-02  0.4860E-02  0.2203E-04  0.1703E-04  0.2963E-04  0.1726E-04  0.1376E-03 -0.1054E-04  0.7406E-06 -0.1193E-06  0.2394E-06  0.1411E-06  0.4900E-06 -0.1219E-06  0.1697E-05 -0.1003E-06  0.2153E-05 -0.3525E-06
     -2.239  0.1545E-01  0.6710E-02  0.2877E-04  0.2112E-04  0.5438E-04  0.2384E-04  0.4720E-03  0.3606E-04  0.2638E-05  0.7262E-07  0.2725E-06  0.1719E-06  0.1976E-05  0.1057E-07  0.5861E-05  0.3027E-06  0.8231E-05  0.1909E-06
     -2.132  0.1899E-01  0.1138E-01  0.7264E-04  0.2507E-04  0.6607E-04  0.4047E-04  0.6159E-03  0.2962E-03  0.8331E-05  0.1255E-05  0.6725E-06  0.1873E-06  0.3450E-05  0.8532E-06  0.7505E-05  0.2561E-05  0.9761E-05  0.3463E-05
     -2.024  0.1663E-01  0.1831E-01  0.2925E-03  0.3849E-04  0.5373E-04  0.6490E-04  0.5078E-03  0.5934E-03  0.3540E-04  0.2878E-05  0.2771E-05  0.2616E-06  0.7796E-05  0.1828E-05  0.5383E-05  0.5118E-05  0.1956E-05  0.7034E-05
     -1.917  0.1760E-01  0.1760E-01  0.5787E-03  0.1461E-03  0.5406E-04  0.6059E-04  0.5084E-03  0.5658E-03  0.7009E-04  0.1190E-04  0.5732E-05  0.9975E-06  0.1392E-04  0.3278E-05  0.4659E-05  0.4652E-05 -0.4872E-05  0.4820E-05
     -1.809  0.1790E-01  0.1645E-01  0.5173E-03  0.4487E-03  0.9203E-04  0.5100E-04  0.7175E-03  0.4860E-03  0.6106E-04  0.3692E-04  0.9324E-05  0.3026E-05  0.1616E-04  0.7223E-05  0.1231E-04  0.3277E-05  0.1442E-04 -0.1602E-05
     -1.702  0.2025E-01  0.1784E-01  0.2742E-03  0.6078E-03  0.2004E-03  0.6297E-04  0.1353E-02  0.5601E-03  0.2817E-04  0.4975E-04  0.1815E-04  0.4875E-05  0.2124E-04  0.1003E-04  0.3392E-04  0.4428E-05  0.7024E-04 -0.1138E-05
     -1.594  0.2453E-01  0.1790E-01  0.2608E-03  0.3989E-03  0.2584E-03  0.1324E-03  0.1935E-02  0.9403E-03  0.5438E-04  0.3141E-04  0.2285E-04  0.8652E-05  0.3708E-04  0.1170E-04  0.4658E-04  0.1393E-04  0.1045E-03  0.2370E-04
     -1.486  0.2866E-01  0.2206E-01  0.6304E-03  0.2218E-03  0.1763E-03  0.2459E-03  0.2465E-02  0.1646E-02  0.2420E-03  0.1705E-04  0.1518E-04  0.1501E-04  0.8849E-04  0.1706E-04  0.3818E-04  0.2875E-04  0.9658E-04  0.6060E-04
     -1.379  0.3535E-01  0.2491E-01  0.1086E-02  0.3475E-03  0.1157E-03  0.2362E-03  0.3204E-02  0.2046E-02  0.4616E-03  0.6564E-04  0.9466E-05  0.1427E-04  0.1478E-03  0.3173E-04  0.3774E-04  0.2981E-04  0.9294E-04  0.6681E-04
     -1.271  0.3005E-01  0.3060E-01  0.9590E-03  0.8393E-03  0.2208E-03  0.1363E-03  0.2716E-02  0.2745E-02  0.4024E-03  0.2182E-03  0.1937E-04  0.8215E-05  0.1107E-03  0.7107E-04  0.8463E-04  0.2332E-04  0.7034E-04  0.6002E-04
     -1.164  0.1934E-01  0.3509E-01  0.6059E-03  0.1145E-02  0.4778E-03  0.1238E-03  0.1676E-02  0.3244E-02  0.2325E-03  0.3101E-03  0.4353E-04  0.7699E-05  0.2449E-04  0.9273E-04  0.1859E-03  0.2979E-04  0.3687E-04  0.5808E-04
     -1.056  0.1854E-01  0.2543E-01  0.6908E-03  0.8262E-03  0.5311E-03  0.2965E-03  0.1787E-02  0.2314E-02  0.2892E-03  0.2173E-03  0.4867E-04  0.1944E-04  0.5185E-04  0.4975E-04  0.2109E-03  0.7407E-04  0.8425E-04  0.3728E-04
     -0.949  0.2657E-01  0.1711E-01  0.1195E-02  0.5489E-03  0.2742E-03  0.5460E-03  0.3267E-02  0.1505E-02  0.5928E-03  0.1338E-03  0.2497E-04  0.3627E-04  0.2353E-03  0.6155E-05  0.1243E-03  0.1368E-03  0.2882E-03  0.2137E-04
     -0.841  0.3579E-01  0.1860E-01  0.1631E-02  0.7360E-03  0.1447E-03  0.4806E-03  0.5015E-02  0.1950E-02  0.9297E-03  0.1997E-03  0.2482E-04  0.3194E-04  0.4186E-03  0.4468E-04  0.8305E-04  0.1239E-03  0.5110E-03  0.7038E-04
     -0.733  0.4393E-01  0.2757E-01  0.2040E-02  0.1290E-02  0.3679E-03  0.1997E-03  0.6592E-02  0.3610E-02  0.1422E-02  0.3912E-03  0.9600E-04  0.1328E-04  0.5720E-03  0.1606E-03  0.1574E-03  0.6261E-04  0.6393E-03  0.2097E-03
     -0.626  0.4976E-01  0.3555E-01  0.2410E-02  0.1695E-02  0.6601E-03  0.1431E-03  0.7636E-02  0.5106E-02  0.1825E-02  0.5743E-03  0.1698E-03  0.1975E-04  0.6557E-03  0.2476E-03  0.2851E-03  0.5244E-04  0.6990E-03  0.3189E-03
     -0.518  0.3761E-01  0.4303E-01  0.1726E-02  0.2139E-02  0.6705E-03  0.4127E-03  0.5930E-02  0.6565E-02  0.1322E-02  0.8771E-03  0.1269E-03  0.7564E-04  0.4321E-03  0.3240E-03  0.4270E-03  0.1130E-03  0.5922E-03  0.3774E-03
     -0.411  0.2417E-01  0.4928E-01  0.1054E-02  0.2533E-02  0.5613E-03  0.6791E-03  0.4166E-02  0.7725E-02  0.1184E-02  0.1126E-02  0.4487E-04  0.1229E-03  0.3580E-03  0.3776E-03  0.5465E-03  0.1879E-03  0.4566E-03  0.4202E-03
     -0.303  0.2886E-01  0.3578E-01  0.1872E-02  0.1695E-02  0.5155E-03  0.6431E-03  0.4922E-02  0.5800E-02  0.2745E-02  0.7655E-03  0.7007E-04  0.8673E-04  0.9005E-03  0.2407E-03  0.4619E-03  0.2516E-03  0.3250E-03  0.3455E-03
     -0.196  0.3631E-01  0.1993E-01  0.2876E-02  0.7544E-03  0.6559E-03  0.5524E-03  0.5922E-02  0.3593E-02  0.4073E-02  0.4301E-03  0.1883E-03  0.3260E-04  0.1330E-02  0.1132E-03  0.3783E-03  0.3229E-03  0.2534E-03  0.2559E-03
     -0.088  0.3967E-01  0.2281E-01  0.2929E-02  0.1433E-02  0.1020E-02  0.5259E-03  0.7293E-02  0.4120E-02  0.3950E-02  0.1073E-02  0.2590E-03  0.4654E-04  0.1264E-02  0.3077E-03  0.6566E-03  0.2875E-03  0.7959E-03  0.1915E-03
      0.020  0.4666E-01  0.3383E-01  0.2715E-02  0.2898E-02  0.1174E-02  0.5920E-03  0.1054E-01  0.5737E-02  0.3998E-02  0.2142E-02  0.2109E-03  0.1163E-03  0.1527E-02  0.6329E-03  0.9334E-03  0.2051E-03  0.2001E-02  0.1253E-03
      0.127  0.4887E-01  0.3820E-01  0.2445E-02  0.3277E-02  0.7222E-03  0.8226E-03  0.1268E-01  0.6865E-02  0.4859E-02  0.2375E-02  0.9195E-04  0.1678E-03  0.2414E-02  0.6941E-03  0.6854E-03  0.2975E-03  0.2932E-02  0.2723E-03
      0.235  0.4627E-01  0.4272E-01  0.2582E-02  0.3010E-02  0.3869E-03  0.1124E-02  0.1256E-01  0.9209E-02  0.6620E-02  0.2217E-02  0.3221E-04  0.1783E-03  0.3355E-02  0.6902E-03  0.6609E-03  0.5419E-03  0.3088E-02  0.7947E-03
      0.342  0.5009E-01  0.4461E-01  0.3522E-02  0.2453E-02  0.1087E-02  0.9995E-03  0.1281E-01  0.1123E-01  0.9406E-02  0.2001E-02  0.1680E-03  0.1334E-03  0.4003E-02  0.8053E-03  0.1756E-02  0.5465E-03  0.2913E-02  0.1320E-02
      0.450  0.5829E-01  0.3817E-01  0.4718E-02  0.1616E-02  0.2049E-02  0.4003E-03  0.1406E-01  0.1122E-01  0.1312E-01  0.1812E-02  0.3819E-03  0.4057E-04  0.4888E-02  0.1018E-02  0.2728E-02  0.2642E-03  0.2638E-02  0.1593E-02
      0.557  0.5448E-01  0.3746E-01  0.4800E-02  0.2141E-02  0.1925E-02  0.3755E-03  0.1284E-01  0.1105E-01  0.1598E-01  0.2630E-02  0.3417E-03  0.3577E-04  0.5730E-02  0.1292E-02  0.2352E-02  0.3730E-03  0.1839E-02  0.1566E-02
      0.665  0.4449E-01  0.4451E-01  0.3963E-02  0.3834E-02  0.1191E-02  0.1341E-02  0.1072E-01  0.1136E-01  0.1875E-01  0.4181E-02  0.9347E-04  0.1837E-03  0.6676E-02  0.1454E-02  0.1697E-02  0.1138E-02  0.1136E-02  0.1327E-02
      0.773  0.4413E-01  0.5222E-01  0.3602E-02  0.5097E-02  0.9784E-03  0.2038E-02  0.1145E-01  0.1286E-01  0.2745E-01  0.6027E-02  0.6063E-04  0.3262E-03  0.1110E-01  0.1879E-02  0.1333E-02  0.1546E-02  0.1974E-02  0.1240E-02
      0.880  0.6827E-01  0.5100E-01  0.4732E-02  0.5270E-02  0.2023E-02  0.1573E-02  0.1916E-01  0.1313E-01  0.6212E-01  0.7354E-02  0.4065E-03  0.3001E-03  0.3178E-01  0.2414E-02  0.2144E-02  0.1027E-02  0.7104E-02  0.1105E-02