    2    2    1    2
  0.1136426E+02  0.2832634E-09  0.2832634E-09  0.2832634E-09  0.5000000E-15
  1.000000000000000E-004
  CAR 
 unknown system                          
     16     56     16
 
  0.4166667E-01  0.4166667E-01  0.4166667E-01  0.4629630E-02
    1       -2.498477     -2.338161   1.000000   1.000000
    2        1.036406      2.837323   1.000000   1.000000
    3        1.036406      2.837323   1.000000   1.000000
    4        3.473154      5.411221   1.000000   1.011123
    5        3.473154      5.411221   1.000000   1.011123
    6        3.561550      5.511285   1.000000   1.032038
    7        4.736520      7.438583   1.000000  -0.000000
    8        4.736520      7.438583   1.000000  -0.000000
    9        5.742815      7.929841   0.692900  -0.000000
   10        5.878295      8.101400   0.163149  -0.000000
   11        5.878295      8.101400   0.163149  -0.000000
   12       15.550143     15.892664   0.000000   0.000000
   13       15.550143     15.892664   0.000000   0.000000
   14       15.734167     16.053751   0.000000   0.000000
   15       21.839512     22.756595   0.000000   0.000000
   16       21.839512     22.756595   0.000000   0.000000
 
  0.1250000E+00  0.4166667E-01  0.4166667E-01  0.1388889E-01
    1       -2.214307     -2.052040   1.000000   1.000000
    2        1.156204      2.932919   1.000000   1.000000
    3        1.159673      2.979092   1.000000   1.000000
    4        3.430873      5.356068   1.000000   1.004465
    5        3.467604      5.395407   1.000000   1.008742
    6        3.680838      5.641033   1.000000   0.974269
    7        4.616585      7.281819   1.000000  -0.000000
    8        4.788965      7.503612   1.000000  -0.000000
    9        5.457144      7.568924   1.020171  -0.000000
   10        5.650839      7.804319   0.958068  -0.000000
   11        5.863716      8.087192   0.209696  -0.000000
   12       13.920275     14.488663   0.000000   0.000000
   13       16.061273     16.478959   0.000000   0.000000
   14       16.201844     16.592732   0.000000   0.000000
   15       21.944059     22.834219   0.000000   0.000000
   16       22.975725     23.728056   0.000000   0.000000
 
  0.2083333E+00  0.4166667E-01  0.4166667E-01  0.1388889E-01
    1       -1.665367     -1.495546   1.000000   1.000000
    2        1.367926      3.063726   1.000000   1.000000
    3        1.388773      3.255274   1.000000   1.000000
    4        3.419773      5.326277   1.000000   1.002515
    5        3.465268      5.377183   1.000000   1.006485
    6        3.855143      5.831577   1.000000   0.327478
    7        4.387261      6.980474   1.000000  -0.000000
    8        4.887889      7.088782   1.000000  -0.000000
    9        5.064143      7.335938   1.000002  -0.000000
   10        5.274269      7.620043   1.000813  -0.000000
   11        5.735806      7.940351   0.719542  -0.000000
   12       11.812071     12.634636   0.000000   0.000000
   13       16.995537     17.515971   0.000000   0.000000
   14       17.132170     17.614870   0.000000   0.000000
   15       22.165933     23.002287   0.000000   0.000000
   16       23.859835     24.524387   0.000000   0.000000
 
  0.2916667E+00  0.4166667E-01  0.4166667E-01  0.1388889E-01
    1       -0.897083     -0.702985   1.000000   1.000000
    2        1.580239      3.101355   1.000000   1.000000
    3        1.719908      3.650513   1.000000   1.000000
    4        3.454296      5.339475   1.000000   1.003265
    5        3.470191      5.374848   1.000000   1.006231
    6        4.080128      6.082352   1.000000  -0.029278
    7        4.082871      6.563671   1.000000  -0.000000
    8        4.640684      6.596055   1.000000  -0.000000
    9        4.846566      6.831355   1.000000  -0.000000
   10        5.033960      7.701190   1.000001  -0.000000
   11        5.525263      7.768717   1.034167  -0.000000
   12        9.755475     10.892601  -0.000000  -0.000000
   13       18.232488     18.845280   0.000000   0.000000
   14       18.384858     18.948050   0.000000   0.000000
   15       22.533521     23.290125   0.000000   0.000000
   16       24.426376     25.022831   0.000000   0.000000
 
  0.3750000E+00  0.4166667E-01  0.4166667E-01  0.1388889E-01
    1        0.000594      0.264524   1.000000   1.000000
    2        1.665698      2.865027   1.000000   1.000000
    3        2.127888      4.139708   1.000000   1.000000
    4        3.392641      5.378059   1.000000   1.006582
    5        3.551092      5.418544   1.000000   1.012362
    6        3.831225      6.103593   1.000000  -0.024505
    7        4.255869      6.169144   1.000000  -0.011002
    8        4.354579      6.379843   1.000000  -0.000123
    9        4.443391      6.384101   1.000000  -0.000109
   10        5.258353      7.400930   1.000557  -0.000000
   11        5.265109      7.943930   1.000655  -0.000000
   12        7.954502      9.522840  -0.000000  -0.000000
   13       19.653457     20.330523   0.000000   0.000000
   14       19.866561     20.482376   0.000000   0.000000
   15       23.097185     23.753386   0.000000   0.000000
   16       23.971035     24.445754   0.000000   0.000000
 
  0.4583333E+00  0.4166667E-01  0.4166667E-01  0.1388889E-01
    1        0.861482      1.301552   1.000000   1.000000
    2        1.457069      2.236795   1.000000   1.000000
    3        2.582620      4.682065   1.000000   1.000000
    4        3.039961      5.182385   1.000000   1.000076
    5        3.717432      5.581594   1.000000   1.028883
    6        3.883290      5.832695   1.000000   0.323090
    7        3.949102      5.871708   1.000000   0.183582
    8        4.111882      6.035699   1.000000  -0.035455
    9        4.653051      6.719704   1.000000  -0.000000
   10        4.960050      7.066347   1.000000  -0.000000
   11        5.708244      8.190587   0.815371  -0.000000
   12        6.571714      8.649386  -0.000000  -0.000000
   13       21.138196     21.830356   0.000000   0.000000
   14       21.508036     22.141557   0.000000   0.000000
   15       22.579266     23.200598   0.000000   0.000000
   16       23.263863     23.878044   0.000000   0.000000
 
  0.1250000E+00  0.1250000E+00  0.4166667E-01  0.1388889E-01
    1       -1.937500     -1.772027   1.000000   1.000000
    2        1.260752      3.067138   1.000000   1.000000
    3        1.291009      3.074386   1.000000   1.000000
    4        3.321695      5.228398   1.000000   1.000264
    5        3.433329      5.348233   1.000000   1.003860
    6        3.874265      5.851930   1.000000   0.250684
    7        4.619223      7.126854   1.000000  -0.000000
    8        4.756017      7.275190   1.000000  -0.000000
    9        5.093660      7.460944   1.000005  -0.000000
   10        5.484979      7.596299   1.026562  -0.000000
   11        5.912691      8.141076   0.073630  -0.000000
   12       13.971402     14.608867   0.000000   0.000000
   13       14.801572     15.426927   0.000000   0.000000
   14       16.611249     17.057954   0.000000   0.000000
   15       22.520718     23.317029   0.000000   0.000000
   16       23.951456     24.583027   0.000000   0.000000
 
  0.2083333E+00  0.1250000E+00  0.4166667E-01  0.2777778E-01
    1       -1.405597     -1.228803   1.000000   1.000000
    2        1.447816      3.196859   1.000000   1.000000
    3        1.526994      3.329784   1.000000   1.000000
    4        3.237366      5.121170   1.000000   1.000012
    5        3.397871      5.291487   1.000000   1.001202
    6        4.116624      6.116324   1.000000  -0.021567
    7        4.478600      6.621619   1.000000  -0.000000
    8        4.663609      7.074796   1.000000  -0.000000
    9        4.835088      7.173793   1.000000  -0.000000
   10        5.133561      7.554277   1.000018  -0.000000
   11        5.881896      8.104862   0.152407  -0.000000
   12       12.115680     12.974978   0.000000   0.000000
   13       15.340252     16.061655   0.000000   0.000000
   14       17.475613     17.992034   0.000000   0.000000
   15       22.838128     23.571688   0.000000   0.000000
   16       25.147891     25.685982   0.000000   0.000000
 
  0.2916667E+00  0.1250000E+00  0.4166667E-01  0.2777778E-01
    1       -0.669469     -0.459070   1.000000   1.000000
    2        1.649811      3.220456   1.000000   1.000000
    3        1.832157      3.690657   1.000000   1.000000
    4        3.209070      5.072487   1.000000   1.000002
    5        3.356154      5.232602   1.000000   1.000294
    6        4.242993      6.151592   1.000000  -0.014092
    7        4.272072      6.419395   1.000000  -0.000040
    8        4.395749      6.748197   1.000000  -0.000000
    9        4.749031      6.761296   1.000000  -0.000000
   10        4.983713      7.711437   1.000000  -0.000000
   11        5.745124      7.947297   0.683954  -0.000000
   12       10.051162     11.193917  -0.000000  -0.000000
   13       16.398130     17.179282   0.000000   0.000000
   14       18.653049     19.236098   0.000000   0.000000
   15       23.233581     23.888301   0.000000   0.000000
   16       23.768116     24.261569   0.000000   0.000000
 
  0.3750000E+00  0.1250000E+00  0.4166667E-01  0.2777778E-01
    1        0.173316      0.472940   1.000000   1.000000
    2        1.720007      2.966380   1.000000   1.000000
    3        2.193257      4.120033   1.000000   1.000000
    4        3.192196      5.084423   1.000000   1.000004
    5        3.308707      5.168067   1.000000   1.000050
    6        3.888632      5.768514   1.000000   0.589554
    7        4.127058      6.437624   1.000000  -0.000023
    8        4.429925      6.441280   1.000000  -0.000021
    9        4.690903      6.752359   1.000000  -0.000000
   10        5.231875      7.703430   1.000288  -0.000000
   11        5.527405      7.899492   1.034418  -0.000000
   12        8.204911      9.730827  -0.000000  -0.000000
   13       17.644812     18.446655   0.000000   0.000000
   14       20.050456     20.678448   0.000000   0.000000
   15       22.079323     22.700142   0.000000   0.000000
   16       23.805685     24.368239   0.000000   0.000000
 
  0.4583333E+00  0.1250000E+00  0.4166667E-01  0.2777778E-01
    1        0.960599      1.461703   1.000000   1.000000
    2        1.507154      2.350784   1.000000   1.000000
    3        2.584351      4.563533   1.000000   1.000000
    4        2.950799      4.927383   1.000000   1.000000
    5        3.416448      5.250269   1.000000   1.000458
    6        3.616827      5.467594   1.000000   1.022554
    7        4.129685      6.256999   1.000000  -0.002335
    8        4.230950      6.273897   1.000000  -0.001640
    9        4.978186      7.091818   1.000000  -0.000000
   10        5.260639      7.412110   1.000589  -0.000000
   11        5.749635      8.181787   0.666259  -0.000000
   12        6.731203      8.732375  -0.000000  -0.000000
   13       19.018673     19.799003   0.000000   0.000000
   14       20.497902     21.216717   0.000000   0.000000
   15       21.583352     22.216620   0.000000   0.000000
   16       23.185778     23.766625   0.000000   0.000000
 
  0.2083333E+00  0.2083333E+00  0.4166667E-01  0.1388889E-01
    1       -0.914618     -0.715266   1.000000   1.000000
    2        1.558392      3.331890   1.000000   1.000000
    3        1.798721      3.528108   1.000000   1.000000
    4        3.069574      4.925298   1.000000   1.000000
    5        3.339207      5.186669   1.000000   1.000086
    6        4.219053      6.118550   1.000000  -0.021060
    7        4.428510      6.459541   1.000000  -0.000012
    8        4.557745      6.850606   1.000000  -0.000000
    9        4.793422      7.138155   1.000000  -0.000000
   10        4.838180      7.507580   1.000000  -0.000000
   11        5.971176      8.208868  -0.012561  -0.000000
   12       12.017955     12.910345   0.000000   0.000000
   13       13.995217     14.938776   0.000000   0.000000
   14       18.233537     18.784853   0.000000   0.000000
   15       23.175914     23.838117   0.000000   0.000000
   16       23.610128     24.115024   0.000000   0.000000
 
  0.2916667E+00  0.2083333E+00  0.4166667E-01  0.2777778E-01
    1       -0.259168      0.001526   1.000000   1.000000
    2        1.653978      3.296086   1.000000   1.000000
    3        2.139650      3.863120   1.000000   1.000000
    4        2.966517      4.797278   1.000000   1.000000
    5        3.317732      5.094225   1.000000   1.000005
    6        3.808463      5.670089   1.000000   0.919392
    7        4.492949      6.601226   1.000000  -0.000000
    8        4.560078      6.821817   1.000000  -0.000000
    9        4.761565      7.011754   1.000000  -0.000000
   10        4.899258      7.618574   1.000000  -0.000000
   11        5.943942      8.177358   0.017847  -0.000000
   12       10.399745     11.508934  -0.000000   0.000000
   13       14.470787     15.458501   0.000000   0.000000
   14       19.291282     19.879690   0.000000   0.000000
   15       21.697108     22.327429   0.000000   0.000000
   16       23.531674     24.108853   0.000000   0.000000
 
  0.3750000E+00  0.2083333E+00  0.4166667E-01  0.2777778E-01
    1        0.442762      0.847600   1.000000   1.000000
    2        1.643375      3.016434   1.000000   1.000000
    3        2.493353      4.236226   1.000000   1.000000
    4        2.941084      4.756374   1.000000   1.000000
    5        3.295934      5.014466   1.000000   1.000000
    6        3.475306      5.308047   1.000000   1.001723
    7        4.408860      6.534148   1.000000  -0.000001
    8        4.435089      6.816482   1.000000  -0.000000
    9        5.028064      7.189286   1.000001  -0.000000
   10        5.214170      7.815393   1.000182  -0.000000
   11        5.807584      8.024124   0.425126  -0.000000
   12        8.564752      9.999889  -0.000000  -0.000000
   13       15.546995     16.514134   0.000000   0.000000
   14       19.918650     20.659231   0.000000   0.000000
   15       20.571590     21.182817   0.000000   0.000000
   16       24.045149     24.529111   0.000000   0.000000
 
  0.4583333E+00  0.2083333E+00  0.4166667E-01  0.2777778E-01
    1        1.042974      1.713497   1.000000   1.000000
    2        1.448109      2.470959   1.000000   1.000000
    3        2.812228      4.578283   1.000000   1.000000
    4        2.967347      4.772001   1.000000   1.000000
    5        3.195504      4.928147   1.000000   1.000000
    6        3.241203      5.040907   1.000000   1.000001
    7        4.397434      6.592653   1.000000  -0.000000
    8        4.428187      6.679346   1.000000  -0.000000
    9        5.303366      7.515067   1.001559  -0.000000
   10        5.584578      7.789769   1.027634  -0.000000
   11        5.854102      8.159680   0.242919  -0.000000
   12        6.988848      8.852681  -0.000000  -0.000000
   13       16.837952     17.751888   0.000000   0.000000
   14       18.297056     19.133208   0.000000   0.000000
   15       21.990698     22.584608   0.000000   0.000000
   16       23.468303     23.975346   0.000000   0.000000
 
  0.2916667E+00  0.2916667E+00  0.4166667E-01  0.1388889E-01
    1        0.235267      0.619735   1.000000   1.000000
    2        1.592651      3.169822   1.000000   1.000000
    3        2.553140      4.217728   1.000000   1.000000
    4        2.791478      4.593362   1.000000   1.000000
    5        3.412465      5.036334   1.000000   1.000001
    6        3.448857      5.235118   1.000000   1.000313
    7        4.438933      6.575438   1.000000  -0.000000
    8        4.635522      7.153182   1.000000  -0.000000
    9        4.845257      7.233350   1.000000  -0.000000
   10        5.134560      7.577003   1.000018  -0.000000
   11        6.033769      8.282473  -0.035454  -0.000000
   12       10.088868     11.178698  -0.000000  -0.000000
   13       13.502805     14.679133   0.000000   0.000000
   14       19.720789     20.469347   0.000000   0.000000
   15       20.199682     20.792074   0.000000   0.000000
   16       23.833106     24.320179   0.000000   0.000000
 
  0.3750000E+00  0.2916667E+00  0.4166667E-01  0.2777778E-01
    1        0.684632      1.302279   1.000000   1.000000
    2        1.461126      2.882114   1.000000   1.000000
    3        2.706207      4.487780   1.000000   1.000000
    4        2.966884      4.608642   1.000000   1.000000
    5        3.112111      4.893539   1.000000   1.000000
    6        3.677302      5.071850   1.000000   1.000002
    7        4.448814      6.701222   1.000000  -0.000000
    8        4.669428      7.115684   1.000000  -0.000000
    9        5.000988      7.594028   1.000000  -0.000000
   10        5.507111      7.723280   1.031268  -0.000000
   11        5.998587      8.244188  -0.029102  -0.000000
   12        8.751242     10.051065  -0.000000  -0.000000
   13       13.923828     15.094832   0.000000   0.000000
   14       17.921780     18.785015   0.000000   0.000000
   15       21.315594     21.894959   0.000000   0.000000
   16       24.279747     24.679650   0.000000   0.000000
 
  0.4583333E+00  0.2916667E+00  0.4166667E-01  0.2777778E-01
    1        1.021466      1.941991   1.000000   1.000000
    2        1.269925      2.471617   1.000000   1.000000
    3        2.723289      4.495091   1.000000   1.000000
    4        2.846465      4.617697   1.000000   1.000000
    5        3.389887      4.960361   1.000000   1.000000
    6        3.657834      5.098301   1.000000   1.000006
    7        4.554644      6.888362   1.000000  -0.000000
    8        4.658520      7.026378   1.000000  -0.000000
    9        5.490990      7.831182   1.027913  -0.000000
   10        5.836932      8.076594   0.306620  -0.000000
   11        6.050906      8.150850  -0.034560  -0.000000
   12        7.226916      8.908900  -0.000000  -0.000000
   13       14.976197     16.060357   0.000000   0.000000
   14       16.331654     17.308233   0.000000   0.000000
   15       22.552838     23.065760   0.000000   0.000000
   16       23.806293     24.172267   0.000000   0.000000
 
  0.3750000E+00  0.3750000E+00  0.4166667E-01  0.1388889E-01
    1        0.839650      1.731639   1.000000   1.000000
    2        1.260699      2.641553   1.000000   1.000000
    3        2.560031      4.319184   1.000000   1.000000
    4        2.795554      4.560331   1.000000   1.000000
    5        3.532222      5.115649   1.000000   1.000010
    6        4.343873      5.350913   1.000000   1.004058
    7        4.550631      6.915843   1.000000  -0.000000
    8        4.821360      7.258882   1.000000  -0.000000
    9        4.899508      7.653128   1.000000  -0.000000
   10        5.855722      7.984821   0.237192  -0.000000
   11        6.064061      8.316816  -0.032770  -0.000000
   12        8.322912      9.577008  -0.000000  -0.000000
   13       13.265306     14.577438   0.000000   0.000000
   14       16.166067     17.163663   0.000000   0.000000
   15       22.219464     22.728481   0.000000   0.000000
   16       24.637144     24.791639   0.000000   0.000000
 
  0.4583333E+00  0.3750000E+00  0.4166667E-01  0.2777778E-01
    1        0.954605      2.080894   1.000000   1.000000
    2        1.087568      2.372200   1.000000   1.000000
    3        2.522634      4.270722   1.000000   1.000000
    4        2.601971      4.351625   1.000000   1.000000
    5        4.030431      5.529880   1.000000   1.034678
    6        4.393672      5.625621   1.000000   0.995216
    7        4.682277      7.122390   1.000000  -0.000000
    8        4.795049      7.246359   1.000000  -0.000000
    9        5.526291      7.818700   1.034290  -0.000000
   10        5.969197      8.185917  -0.010861  -0.000000
   11        6.301417      8.310618  -0.000890  -0.000000
   12        7.274676      8.791641  -0.000000  -0.000000
   13       13.664365     14.936286   0.000000   0.000000
   14       14.713750     15.855508   0.000000   0.000000
   15       23.177140     23.539334   0.000000   0.000000
   16       24.043020     24.226361   0.000000   0.000000
 
  0.4583333E+00  0.4583333E+00  0.4166667E-01  0.1388889E-01
    1        0.922667      2.166744   1.000000   1.000000
    2        0.964723      2.257925   1.000000   1.000000
    3        2.429911      4.165867   1.000000   1.000000
    4        2.456717      4.193125   1.000000   1.000000
    5        4.627015      6.096603   1.000000  -0.026115
    6        4.770206      6.168862   1.000000  -0.011048
    7        4.786225      7.274977   1.000000  -0.000000
    8        4.935313      7.324643   1.000000  -0.000000
    9        5.612415      7.704743   1.009077  -0.000000
   10        5.913292      7.953642   0.072329  -0.000000
   11        6.595015      8.492528  -0.000000  -0.000000
   12        6.997931      8.619425  -0.000000  -0.000000
   13       13.178352     14.550327   0.000000   0.000000
   14       13.591795     14.895101   0.000000   0.000000
   15       23.716998     23.890654   0.000000   0.000000
   16       24.026969     24.116515   0.000000   0.000000
 
  0.1250000E+00  0.1250000E+00  0.1250000E+00  0.4629630E-02
    1       -1.666304     -1.496997   1.000000   1.000000
    2        1.391663      3.184146   1.000000   1.000000
    3        1.391663      3.184146   1.000000   1.000000
    4        3.288182      5.183997   1.000000   1.000079
    5        3.288182      5.183997   1.000000   1.000079
    6        4.095520      6.086510   1.000000  -0.028381
    7        4.672518      6.612001   1.000000  -0.000000
    8        4.682523      7.356784   1.000000  -0.000000
    9        4.682523      7.356784   1.000000  -0.000000
   10        5.687028      7.855370   0.877646  -0.000000
   11        5.687028      7.855370   0.877646  -0.000000
   12       14.431895     15.134648   0.000000   0.000000
   13       14.431895     15.134648   0.000000   0.000000
   14       15.585335     16.186188   0.000000   0.000000
   15       24.118515     24.727936   0.000000   0.000000
   16       24.118515     24.727936   0.000000   0.000000
 
  0.2083333E+00  0.1250000E+00  0.1250000E+00  0.1388889E-01
    1       -1.147779     -0.964885   1.000000   1.000000
    2        1.584750      3.333287   1.000000   1.000000
    3        1.609403      3.407968   1.000000   1.000000
    4        3.172161      5.037140   1.000000   1.000001
    5        3.226570      5.106155   1.000000   1.000007
    6        4.221386      6.087080   1.000000  -0.028256
    7        4.382895      6.391991   1.000000  -0.000088
    8        4.547211      7.159487   1.000000  -0.000000
    9        4.793962      7.420703   1.000000  -0.000000
   10        5.322475      7.497025   1.002328  -0.000000
   11        5.753930      7.945704   0.649151  -0.000000
   12       12.459662     13.360962   0.000000   0.000000
   13       15.259037     16.041060   0.000000   0.000000
   14       16.090224     16.747681   0.000000   0.000000
   15       24.463996     25.031930   0.000000   0.000000
   16       25.280493     25.627009   0.000000   0.000000
 
  0.2916667E+00  0.1250000E+00  0.1250000E+00  0.1388889E-01
    1       -0.437496     -0.214568   1.000000   1.000000
    2        1.815624      3.366651   1.000000   1.000000
    3        1.853389      3.716685   1.000000   1.000000
    4        3.137844      4.965440   1.000000   1.000000
    5        3.140414      5.007058   1.000000   1.000000
    6        3.831575      5.671962   1.000000   0.915132
    7        4.380484      6.733166   1.000000  -0.000000
    8        4.699377      6.897516   1.000000  -0.000000
    9        4.924154      6.979907   1.000000  -0.000000
   10        4.952801      7.667080   1.000000  -0.000000
   11        5.690976      7.886688   0.866885  -0.000000
   12       10.383680     11.544452  -0.000000   0.000000
   13       16.335828     17.171451   0.000000   0.000000
   14       17.031592     17.719418   0.000000   0.000000
   15       23.492942     23.975304   0.000000   0.000000
   16       24.677553     25.164527   0.000000   0.000000
 
  0.3750000E+00  0.1250000E+00  0.1250000E+00  0.1388889E-01
    1        0.360663      0.686843   1.000000   1.000000
    2        1.855903      3.097981   1.000000   1.000000
    3        2.171002      4.073216   1.000000   1.000000
    4        3.003577      4.882757   1.000000   1.000000
    5        3.213309      4.992937   1.000000   1.000000
    6        3.586838      5.433199   1.000000   1.015091
    7        4.241705      6.628387   1.000000  -0.000000
    8        4.572627      6.630517   1.000000  -0.000000
    9        4.940778      7.084088   1.000000  -0.000000
   10        5.295337      7.736944   1.001309  -0.000000
   11        5.529759      7.873599   1.034666  -0.000000
   12        8.521301     10.024010  -0.000000  -0.000000
   13       17.570595     18.417255   0.000000   0.000000
   14       18.207800     18.902178   0.000000   0.000000
   15       21.850687     22.464094   0.000000   0.000000
   16       22.857146     23.435576   0.000000   0.000000
 
  0.4583333E+00  0.1250000E+00  0.1250000E+00  0.1388889E-01
    1        1.091133      1.634212   1.000000   1.000000
    2        1.612362      2.486310   1.000000   1.000000
    3        2.499749      4.421836   1.000000   1.000000
    4        2.791206      4.699365   1.000000   1.000000
    5        3.355974      5.114552   1.000000   1.000010
    6        3.474199      5.277150   1.000000   1.000869
    7        4.208013      6.438782   1.000000  -0.000022
    8        4.321889      6.445107   1.000000  -0.000018
    9        5.113335      7.372706   1.000009  -0.000000
   10        5.317191      7.564917   1.002088  -0.000000
   11        5.951449      8.232283   0.007887  -0.000000
   12        7.012232      8.919417  -0.000000  -0.000000
   13       18.908679     19.718333   0.000000   0.000000
   14       19.578107     20.253177   0.000000   0.000000
   15       20.331597     21.059470   0.000000   0.000000
   16       21.132545     21.768020   0.000000   0.000000
 
  0.2083333E+00  0.2083333E+00  0.1250000E+00  0.1388889E-01
    1       -0.662174     -0.457981   1.000000   1.000000
    2        1.714340      3.486093   1.000000   1.000000
    3        1.861133      3.595520   1.000000   1.000000
    4        3.017839      4.858423   1.000000   1.000000
    5        3.132439      4.973143   1.000000   1.000000
    6        3.771752      5.570795   1.000000   1.032389
    7        4.610535      6.755889   1.000000  -0.000000
    8        4.731915      7.222568   1.000000  -0.000000
    9        4.766628      7.257890   1.000000  -0.000000
   10        5.159614      7.461825   1.000039  -0.000000
   11        5.740783      7.936939   0.700707  -0.000000
   12       12.484110     13.423932   0.000000   0.000000
   13       14.049928     14.992431   0.000000   0.000000
   14       16.440654     17.148732   0.000000   0.000000
   15       23.687422     24.166081   0.000000   0.000000
   16       25.275497     25.772880   0.000000   0.000000
 
  0.2916667E+00  0.2083333E+00  0.1250000E+00  0.2777778E-01
    1       -0.019279      0.246448   1.000000   1.000000
    2        1.832545      3.480412   1.000000   1.000000
    3        2.155046      3.868448   1.000000   1.000000
    4        2.908591      4.721243   1.000000   1.000000
    5        3.084669      4.865901   1.000000   1.000000
    6        3.421268      5.210864   1.000000   1.000166
    7        4.542366      6.959384   1.000000  -0.000000
    8        4.851500      7.090729   1.000000  -0.000000
    9        4.868801      7.153411   1.000000  -0.000000
   10        5.125402      7.594829   1.000014  -0.000000
   11        5.729458      7.941786   0.742943  -0.000000
   12       10.819058     11.960940  -0.000000   0.000000
   13       14.595085     15.569197   0.000000   0.000000
   14       17.300551     18.020976   0.000000   0.000000
   15       21.814321     22.418329   0.000000   0.000000
   16       24.379256     24.793387   0.000000   0.000000
 
  0.3750000E+00  0.2083333E+00  0.1250000E+00  0.2777778E-01
    1        0.656720      1.071750   1.000000   1.000000
    2        1.830348      3.194257   1.000000   1.000000
    3        2.400407      4.137053   1.000000   1.000000
    4        2.833749      4.636786   1.000000   1.000000
    5        3.123209      4.816389   1.000000   1.000000
    6        3.268717      5.062269   1.000000   1.000002
    7        4.458883      6.765121   1.000000  -0.000000
    8        4.602893      6.911690   1.000000  -0.000000
    9        5.010075      7.490439   1.000000  -0.000000
   10        5.610937      7.851277   1.010411  -0.000000
   11        5.616369      7.856798   1.005301  -0.000000
   12        8.984411     10.419146  -0.000000  -0.000000
   13       15.689368     16.636377   0.000000   0.000000
   14       18.394019     19.105239   0.000000   0.000000
   15       20.050577     20.765395   0.000000   0.000000
   16       22.731546     23.260759   0.000000   0.000000
 
  0.4583333E+00  0.2083333E+00  0.1250000E+00  0.2777778E-01
    1        1.222834      1.908981   1.000000   1.000000
    2        1.617825      2.643828   1.000000   1.000000
    3        2.590838      4.364896   1.000000   1.000000
    4        2.735720      4.529405   1.000000   1.000000
    5        3.220786      4.876089   1.000000   1.000000
    6        3.260523      4.980217   1.000000   1.000000
    7        4.433544      6.711933   1.000000  -0.000000
    8        4.472112      6.767999   1.000000  -0.000000
    9        5.190157      7.642988   1.000094  -0.000000
   10        5.416446      7.739804   1.011998  -0.000000
   11        6.323044      8.383498  -0.000534  -0.000000
   12        7.439499      9.217240  -0.000000  -0.000000
   13       16.980455     17.870114   0.000000   0.000000
   14       18.435831     19.246416   0.000000   0.000000
   15       19.675732     20.350375   0.000000   0.000000
   16       21.127831     21.740266   0.000000   0.000000
 
  0.2916667E+00  0.2916667E+00  0.1250000E+00  0.1388889E-01