       N       E                     dE             d eps       ncg     rms          rms(c)
DAV:   1     0.294784566654E+02    0.29478E+02   -0.85496E+03  3584   0.132E+03
DAV:   2    -0.170811448494E+02   -0.46560E+02   -0.44635E+02  3600   0.131E+02
DAV:   3    -0.173512519279E+02   -0.27011E+00   -0.27006E+00  5216   0.147E+01
DAV:   4    -0.173522760374E+02   -0.10241E-02   -0.10241E-02  4080   0.636E-01
DAV:   5    -0.173522841905E+02   -0.81530E-05   -0.81530E-05  5520   0.398E-02    0.178E+01
DAV:   6    -0.166094810793E+02    0.74280E+00   -0.23412E+01  3776   0.593E+01    0.684E+00
DAV:   7    -0.165048653093E+02    0.10462E+00   -0.97736E-01  3792   0.117E+01    0.446E+00
DAV:   8    -0.164880033734E+02    0.16862E-01   -0.11573E-02  4720   0.835E-01    0.178E+00
DAV:   9    -0.164742533164E+02    0.13750E-01   -0.19478E-02  5312   0.103E+00    0.289E-01
DAV:  10    -0.164738851299E+02    0.36819E-03   -0.14104E-03  3856   0.485E-01    0.531E-02
DAV:  11    -0.164739154043E+02   -0.30274E-04   -0.58987E-05  4224   0.691E-02    0.441E-02
DAV:  12    -0.164739232339E+02   -0.78297E-05   -0.58774E-06  4272   0.185E-02    0.337E-02
DAV:  13    -0.164739153409E+02    0.78931E-05   -0.11318E-06  1968   0.106E-02    0.188E-02
DAV:  14    -0.164739143335E+02    0.10073E-05   -0.58708E-07  2000   0.690E-03    0.565E-04
DAV:  15    -0.164739143540E+02   -0.20419E-07   -0.26803E-08  1888   0.184E-03
   1 F= -.16473914E+02 E0= -.16473753E+02  d E =-.484345E-03  mag=     4.3767
