 vasp.5.4.4.18Apr17-6-g9f103f2a35 (build Jan 03 2020 21:31:15) complex          
  
 executed on             LinuxIFC date 2024.11.12  11:19:10
 running on   16 total cores
 distrk:  each k-point on   16 cores,    1 groups
 distr:  one band on NCORES_PER_BAND=   1 cores,   16 groups


--------------------------------------------------------------------------------------------------------


 INCAR:
 POTCAR:    PAW_PBE Fe 06Sep2000                  

 ----------------------------------------------------------------------------- 
|                                                                             |
|           W    W    AA    RRRRR   N    N  II  N    N   GGGG   !!!           |
|           W    W   A  A   R    R  NN   N  II  NN   N  G    G  !!!           |
|           W    W  A    A  R    R  N N  N  II  N N  N  G       !!!           |
|           W WW W  AAAAAA  RRRRR   N  N N  II  N  N N  G  GGG   !            |
|           WW  WW  A    A  R   R   N   NN  II  N   NN  G    G                |
|           W    W  A    A  R    R  N    N  II  N    N   GGGG   !!!           |
|                                                                             |
|      For optimal performance we recommend to set                            |
|        NCORE= 4 - approx SQRT( number of cores)                             |
|      NCORE specifies how many cores store one orbital (NPAR=cpu/NCORE).     |
|      This setting can  greatly improve the performance of VASP for DFT.     |
|      The default,   NCORE=1            might be grossly inefficient         |
|      on modern multi-core architectures or massively parallel machines.     |
|      Do your own testing !!!!                                               |
|      Unfortunately you need to use the default for GW and RPA calculations. |
|      (for HF NCORE is supported but not extensively tested yet)             |
|                                                                             |
 ----------------------------------------------------------------------------- 

 POTCAR:    PAW_PBE Fe 06Sep2000                  
   VRHFIN =Fe:  d7 s1                                                           
   LEXCH  = PE                                                                  
   EATOM  =   594.3153 eV,   43.6809 Ry                                         
                                                                                
   TITEL  = PAW_PBE Fe 06Sep2000                                                
   LULTRA =        F    use ultrasoft PP ?                                      
   IUNSCR =        1    unscreen: 0-lin 1-nonlin 2-no                           
   RPACOR =    2.000    partial core radius                                     
   POMASS =   55.847; ZVAL   =    8.000    mass and valenz                      
   RCORE  =    2.300    outmost cutoff radius                                   
   RWIGS  =    2.460; RWIGS  =    1.302    wigner-seitz radius (au A)           
   ENMAX  =  267.882; ENMIN  =  200.911 eV                                      
   RCLOC  =    1.701    cutoff for local pot                                    
   LCOR   =        T    correct aug charges                                     
   LPAW   =        T    paw PP                                                  
   EAUG   =  511.368                                                            
   DEXC   =    0.000                                                            
   RMAX   =    2.356    core radius for proj-oper                               
   RAUG   =    1.300    factor for augmentation sphere                          
   RDEP   =    2.442    radius for radial grids                                 
   RDEPT  =    1.890    core radius for aug-charge                              
                                                                                
   Atomic configuration                                                         
    9 entries                                                                   
     n  l   j            E        occ.                                          
     1  0  0.50     -6993.8440   2.0000                                         
     2  0  0.50      -814.6047   2.0000                                         
     2  1  1.50      -693.3689   6.0000                                         
     3  0  0.50       -89.4732   2.0000                                         
     3  1  1.50       -55.6373   6.0000                                         
     3  2  2.50        -3.8151   7.0000                                         
     4  0  0.50        -4.2551   1.0000                                         
     4  1  1.50        -3.4015   0.0000                                         
     4  3  2.50        -1.3606   0.0000                                         
   Description                                                                  
     l       E           TYP  RCUT    TYP  RCUT                                 
     2     -3.8151135     23  2.300                                             
     2     -5.1756961     23  2.300                                             
     0     -4.2550963     23  2.300                                             
     0      7.2035603     23  2.300                                             
     1     -2.7211652     23  2.300                                             
     1     18.4316424     23  2.300                                             
  local pseudopotential read in
  partial core-charges read in
  partial kinetic energy density read in
  atomic valenz-charges read in
  non local Contribution for L=           2  read in
    real space projection operators read in
  non local Contribution for L=           2  read in
    real space projection operators read in
  non local Contribution for L=           0  read in
    real space projection operators read in
  non local Contribution for L=           0  read in
    real space projection operators read in
  non local Contribution for L=           1  read in
    real space projection operators read in
  non local Contribution for L=           1  read in
    real space projection operators read in
    PAW grid and wavefunctions read in
 
   number of l-projection  operators is LMAX  =           6
   number of lm-projection operators is LMMAX =          18
 
  PAW_PBE Fe 06Sep2000                  :
 energy of atom  1       EATOM= -594.3153
 kinetic energy error for atom=    0.0026 (will be added to EATOM!!)
 
 
 POSCAR: Fe_bcc                                  
  positions in direct lattice
  velocities in cartesian coordinates
 exchange correlation table for  LEXCH =        8
   RHO(1)=    0.500       N(1)  =     2000
   RHO(2)=  100.500       N(2)  =     4000
 


--------------------------------------------------------------------------------------------------------


 ion  position               nearest neighbor table
   1  0.000  0.000  0.000-   2 2.45   2 2.45   2 2.45   2 2.45   2 2.45   2 2.45   2 2.45   2 2.45

   2  0.500  0.500  0.500-   1 2.45   1 2.45   1 2.45   1 2.45   1 2.45   1 2.45   1 2.45   1 2.45

 
  LATTYP: Found a simple cubic cell.
 ALAT       =     2.8326337572
  
  Lattice vectors:
  
 A1 = (   2.8326337572,   0.0000000000,   0.0000000000)
 A2 = (   0.0000000000,   2.8326337572,   0.0000000000)
 A3 = (   0.0000000000,   0.0000000000,   2.8326337572)


Analysis of symmetry for initial positions (statically):
=====================================================================
 Subroutine PRICEL returns following result:
 
  LATTYP: Found a body centered cubic cell.
 ALAT       =     2.8326337572
  
  Lattice vectors:
  
 A1 = (   1.4163168786,   1.4163168786,   1.4163168786)
 A2 = (   1.4163168786,  -1.4163168786,  -1.4163168786)
 A3 = (  -1.4163168786,   1.4163168786,  -1.4163168786)
 
   2 primitive cells build up your supercell.
 

 Routine SETGRP: Setting up the symmetry group for a 
 simple cubic supercell.


 Subroutine GETGRP returns: Found 48 space group operations
 (whereof 48 operations were pure point group operations)
 out of a pool of 48 trial point group operations.


The static configuration has the point symmetry O_h .


Analysis of symmetry for dynamics (positions and initial velocities):
=====================================================================
 Subroutine PRICEL returns following result:
 
  LATTYP: Found a body centered cubic cell.
 ALAT       =     2.8326337572
  
  Lattice vectors:
  
 A1 = (   1.4163168786,   1.4163168786,   1.4163168786)
 A2 = (   1.4163168786,  -1.4163168786,  -1.4163168786)
 A3 = (  -1.4163168786,   1.4163168786,  -1.4163168786)
 
   2 primitive cells build up your supercell.
 

 Routine SETGRP: Setting up the symmetry group for a 
 simple cubic supercell.


 Subroutine GETGRP returns: Found 48 space group operations
 (whereof 48 operations were pure point group operations)
 out of a pool of 48 trial point group operations.


The dynamic configuration has the point symmetry O_h .


Analysis of structural, dynamic, and magnetic symmetry:
=====================================================================
 Subroutine PRICEL returns following result:
 
  LATTYP: Found a body centered cubic cell.
 ALAT       =     2.8326337572
  
  Lattice vectors:
  
 A1 = (   1.4163168786,   1.4163168786,   1.4163168786)
 A2 = (   1.4163168786,  -1.4163168786,  -1.4163168786)
 A3 = (  -1.4163168786,   1.4163168786,  -1.4163168786)
 
   2 primitive cells build up your supercell.
 

 Routine SETGRP: Setting up the symmetry group for a 
 simple cubic supercell.


 Subroutine GETGRP returns: Found 48 space group operations
 (whereof 48 operations were pure point group operations)
 out of a pool of 48 trial point group operations.


The magnetic configuration has the point symmetry O_h .


 Subroutine INISYM returns: Found 48 space group operations
 (whereof 48 operations are pure point group operations),
 and found     2 'primitive' translations

 
 
 KPOINTS: k-points                                

Automatic generation of k-mesh.
Space group operators:
 irot       det(A)        alpha          n_x          n_y          n_z        tau_x        tau_y        tau_z
    1     1.000000     0.000000     1.000000     0.000000     0.000000     0.000000     0.000000     0.000000
    2    -1.000000     0.000000     1.000000     0.000000     0.000000     0.000000     0.000000     0.000000
    3     1.000000   120.000000    -0.577350    -0.577350    -0.577350     0.000000     0.000000     0.000000
    4    -1.000000   120.000000    -0.577350    -0.577350    -0.577350     0.000000     0.000000     0.000000
    5     1.000000   120.000000     0.577350     0.577350     0.577350     0.000000     0.000000     0.000000
    6    -1.000000   120.000000     0.577350     0.577350     0.577350     0.000000     0.000000     0.000000
    7     1.000000    90.000000     0.000000     0.000000    -1.000000     0.000000     0.000000     0.000000
    8    -1.000000    90.000000     0.000000     0.000000    -1.000000     0.000000     0.000000     0.000000
    9     1.000000   180.000000     0.000000    -0.707107    -0.707107     0.000000     0.000000     0.000000
   10    -1.000000   180.000000     0.000000    -0.707107    -0.707107     0.000000     0.000000     0.000000
   11     1.000000    90.000000     0.000000     1.000000     0.000000     0.000000     0.000000     0.000000
   12    -1.000000    90.000000     0.000000     1.000000     0.000000     0.000000     0.000000     0.000000
   13     1.000000   180.000000    -0.000000    -0.000000     1.000000     0.000000     0.000000     0.000000
   14    -1.000000   180.000000    -0.000000    -0.000000     1.000000     0.000000     0.000000     0.000000
   15     1.000000   120.000000    -0.577350     0.577350     0.577350     0.000000     0.000000     0.000000
   16    -1.000000   120.000000    -0.577350     0.577350     0.577350     0.000000     0.000000     0.000000
   17     1.000000   120.000000    -0.577350     0.577350    -0.577350     0.000000     0.000000     0.000000
   18    -1.000000   120.000000    -0.577350     0.577350    -0.577350     0.000000     0.000000     0.000000
   19     1.000000    90.000000    -0.000000    -0.000000     1.000000     0.000000     0.000000     0.000000
   20    -1.000000    90.000000    -0.000000    -0.000000     1.000000     0.000000     0.000000     0.000000
   21     1.000000    90.000000    -1.000000     0.000000    -0.000000     0.000000     0.000000     0.000000
   22    -1.000000    90.000000    -1.000000     0.000000    -0.000000     0.000000     0.000000     0.000000
   23     1.000000   180.000000    -0.707107     0.000000    -0.707107     0.000000     0.000000     0.000000
   24    -1.000000   180.000000    -0.707107     0.000000    -0.707107     0.000000     0.000000     0.000000
   25     1.000000   120.000000     0.577350    -0.577350     0.577350     0.000000     0.000000     0.000000
   26    -1.000000   120.000000     0.577350    -0.577350     0.577350     0.000000     0.000000     0.000000
   27     1.000000   120.000000    -0.577350    -0.577350     0.577350     0.000000     0.000000     0.000000
   28    -1.000000   120.000000    -0.577350    -0.577350     0.577350     0.000000     0.000000     0.000000
   29     1.000000   180.000000     1.000000    -0.000000     0.000000     0.000000     0.000000     0.000000
   30    -1.000000   180.000000     1.000000    -0.000000     0.000000     0.000000     0.000000     0.000000
   31     1.000000    90.000000    -0.000000    -1.000000     0.000000     0.000000     0.000000     0.000000
   32    -1.000000    90.000000    -0.000000    -1.000000     0.000000     0.000000     0.000000     0.000000
   33     1.000000   180.000000     0.707107     0.707107     0.000000     0.000000     0.000000     0.000000
   34    -1.000000   180.000000     0.707107     0.707107     0.000000     0.000000     0.000000     0.000000
   35     1.000000    90.000000     1.000000    -0.000000    -0.000000     0.000000     0.000000     0.000000
   36    -1.000000    90.000000     1.000000    -0.000000    -0.000000     0.000000     0.000000     0.000000
   37     1.000000   120.000000     0.577350    -0.577350    -0.577350     0.000000     0.000000     0.000000
   38    -1.000000   120.000000     0.577350    -0.577350    -0.577350     0.000000     0.000000     0.000000
   39     1.000000   180.000000     0.000000     1.000000     0.000000     0.000000     0.000000     0.000000
   40    -1.000000   180.000000     0.000000     1.000000     0.000000     0.000000     0.000000     0.000000
   41     1.000000   120.000000     0.577350     0.577350    -0.577350     0.000000     0.000000     0.000000
   42    -1.000000   120.000000     0.577350     0.577350    -0.577350     0.000000     0.000000     0.000000
   43     1.000000   180.000000    -0.000000    -0.707107     0.707107     0.000000     0.000000     0.000000
   44    -1.000000   180.000000    -0.000000    -0.707107     0.707107     0.000000     0.000000     0.000000
   45     1.000000   180.000000     0.707107    -0.707107     0.000000     0.000000     0.000000     0.000000
   46    -1.000000   180.000000     0.707107    -0.707107     0.000000     0.000000     0.000000     0.000000
   47     1.000000   180.000000     0.707107    -0.000000    -0.707107     0.000000     0.000000     0.000000
   48    -1.000000   180.000000     0.707107    -0.000000    -0.707107     0.000000     0.000000     0.000000
 
 Subroutine IBZKPT returns following result:
 ===========================================
 
 Found     56 irreducible k-points:
 
 Following reciprocal coordinates:
            Coordinates               Weight
  0.041667  0.041667  0.041667      8.000000
  0.125000  0.041667  0.041667     24.000000
  0.208333  0.041667  0.041667     24.000000
  0.291667  0.041667  0.041667     24.000000
  0.375000  0.041667  0.041667     24.000000
  0.458333  0.041667  0.041667     24.000000
  0.125000  0.125000  0.041667     24.000000
  0.208333  0.125000  0.041667     48.000000
  0.291667  0.125000  0.041667     48.000000
  0.375000  0.125000  0.041667     48.000000
  0.458333  0.125000  0.041667     48.000000
  0.208333  0.208333  0.041667     24.000000
  0.291667  0.208333  0.041667     48.000000
  0.375000  0.208333  0.041667     48.000000
  0.458333  0.208333  0.041667     48.000000
  0.291667  0.291667  0.041667     24.000000
  0.375000  0.291667  0.041667     48.000000
  0.458333  0.291667  0.041667     48.000000
  0.375000  0.375000  0.041667     24.000000
  0.458333  0.375000  0.041667     48.000000
  0.458333  0.458333  0.041667     24.000000
  0.125000  0.125000  0.125000      8.000000
  0.208333  0.125000  0.125000     24.000000
  0.291667  0.125000  0.125000     24.000000
  0.375000  0.125000  0.125000     24.000000
  0.458333  0.125000  0.125000     24.000000
  0.208333  0.208333  0.125000     24.000000
  0.291667  0.208333  0.125000     48.000000
  0.375000  0.208333  0.125000     48.000000
  0.458333  0.208333  0.125000     48.000000
  0.291667  0.291667  0.125000     24.000000
  0.375000  0.291667  0.125000     48.000000
  0.458333  0.291667  0.125000     48.000000
  0.375000  0.375000  0.125000     24.000000
  0.458333  0.375000  0.125000     48.000000
  0.458333  0.458333  0.125000     24.000000
  0.208333  0.208333  0.208333      8.000000
  0.291667  0.208333  0.208333     24.000000
  0.375000  0.208333  0.208333     24.000000
  0.458333  0.208333  0.208333     24.000000
  0.291667  0.291667  0.208333     24.000000
  0.375000  0.291667  0.208333     48.000000
  0.458333  0.291667  0.208333     48.000000
  0.375000  0.375000  0.208333     24.000000
  0.458333  0.375000  0.208333     48.000000
  0.458333  0.458333  0.208333     24.000000
  0.291667  0.291667  0.291667      8.000000
  0.375000  0.291667  0.291667     24.000000
  0.458333  0.291667  0.291667     24.000000
  0.375000  0.375000  0.291667     24.000000
  0.458333  0.375000  0.291667     48.000000
  0.458333  0.458333  0.291667     24.000000
  0.375000  0.375000  0.375000      8.000000
  0.458333  0.375000  0.375000     24.000000
  0.458333  0.458333  0.375000     24.000000
  0.458333  0.458333  0.458333      8.000000
 
 Following cartesian coordinates:
            Coordinates               Weight
  0.014710  0.014710  0.014710      8.000000
  0.044129  0.014710  0.014710     24.000000
  0.073548  0.014710  0.014710     24.000000
  0.102967  0.014710  0.014710     24.000000
  0.132386  0.014710  0.014710     24.000000
  0.161805  0.014710  0.014710     24.000000
  0.044129  0.044129  0.014710     24.000000
  0.073548  0.044129  0.014710     48.000000
  0.102967  0.044129  0.014710     48.000000
  0.132386  0.044129  0.014710     48.000000
  0.161805  0.044129  0.014710     48.000000
  0.073548  0.073548  0.014710     24.000000
  0.102967  0.073548  0.014710     48.000000
  0.132386  0.073548  0.014710     48.000000
  0.161805  0.073548  0.014710     48.000000
  0.102967  0.102967  0.014710     24.000000
  0.132386  0.102967  0.014710     48.000000
  0.161805  0.102967  0.014710     48.000000
  0.132386  0.132386  0.014710     24.000000
  0.161805  0.132386  0.014710     48.000000
  0.161805  0.161805  0.014710     24.000000
  0.044129  0.044129  0.044129      8.000000
  0.073548  0.044129  0.044129     24.000000
  0.102967  0.044129  0.044129     24.000000
  0.132386  0.044129  0.044129     24.000000
  0.161805  0.044129  0.044129     24.000000
  0.073548  0.073548  0.044129     24.000000
  0.102967  0.073548  0.044129     48.000000
  0.132386  0.073548  0.044129     48.000000
  0.161805  0.073548  0.044129     48.000000
  0.102967  0.102967  0.044129     24.000000
  0.132386  0.102967  0.044129     48.000000
  0.161805  0.102967  0.044129     48.000000
  0.132386  0.132386  0.044129     24.000000
  0.161805  0.132386  0.044129     48.000000
  0.161805  0.161805  0.044129     24.000000
  0.073548  0.073548  0.073548      8.000000
  0.102967  0.073548  0.073548     24.000000
  0.132386  0.073548  0.073548     24.000000
  0.161805  0.073548  0.073548     24.000000
  0.102967  0.102967  0.073548     24.000000
  0.132386  0.102967  0.073548     48.000000
  0.161805  0.102967  0.073548     48.000000
  0.132386  0.132386  0.073548     24.000000
  0.161805  0.132386  0.073548     48.000000
  0.161805  0.161805  0.073548     24.000000
  0.102967  0.102967  0.102967      8.000000
  0.132386  0.102967  0.102967     24.000000
  0.161805  0.102967  0.102967     24.000000
  0.132386  0.132386  0.102967     24.000000
  0.161805  0.132386  0.102967     48.000000
  0.161805  0.161805  0.102967     24.000000
  0.132386  0.132386  0.132386      8.000000
  0.161805  0.132386  0.132386     24.000000
  0.161805  0.161805  0.132386     24.000000
  0.161805  0.161805  0.161805      8.000000
 


--------------------------------------------------------------------------------------------------------




 Dimension of arrays:
   k-points           NKPTS =     56   k-points in BZ     NKDIM =     56   number of bands    NBANDS=     16
   number of dos      NEDOS =    301   number of ions     NIONS =      2
   non local maximal  LDIM  =      6   non local SUM 2l+1 LMDIM =     18
   total plane-waves  NPLWV =  13824
   max r-space proj   IRMAX =      1   max aug-charges    IRDMAX=  21863
   dimension x,y,z NGX =    24 NGY =   24 NGZ =   24
   dimension x,y,z NGXF=    48 NGYF=   48 NGZF=   48
   support grid    NGXF=    48 NGYF=   48 NGZF=   48
   ions per type =               2
   NGX,Y,Z   is equivalent  to a cutoff of  14.09, 14.09, 14.09 a.u.
   NGXF,Y,Z  is equivalent  to a cutoff of  28.17, 28.17, 28.17 a.u.

 SYSTEM =  unknown system                          
 POSCAR =  Fe_bcc                                  

 Startparameter for this run:
   NWRITE =      2    write-flag & timer
   PREC   = accura    normal or accurate (medium, high low for compatibility)
   ISTART =      0    job   : 0-new  1-cont  2-samecut
   ICHARG =      2    charge: 1-file 2-atom 10-const
   ISPIN  =      2    spin polarized calculation?
   LNONCOLLINEAR =      F non collinear calculations
   LSORBIT =      F    spin-orbit coupling
   INIWAV =      1    electr: 0-lowe 1-rand  2-diag
   LASPH  =      F    aspherical Exc in radial PAW
   METAGGA=      F    non-selfconsistent MetaGGA calc.

 Electronic Relaxation 1
   ENCUT  =  500.0 eV  36.75 Ry    6.06 a.u.   5.16  5.16  5.16*2*pi/ulx,y,z
   ENINI  =  500.0     initial cutoff
   ENAUG  =  511.4 eV  augmentation charge cutoff
   NELM   =     60;   NELMIN=  2; NELMDL= -5     # of ELM steps 
   EDIFF  = 0.1E-05   stopping-criterion for ELM
   LREAL  =      F    real-space projection
   NLSPLINE    = F    spline interpolate recip. space projectors
   LCOMPAT=      F    compatible to vasp.4.4
   GGA_COMPAT  = T    GGA compatible to vasp.4.4-vasp.4.6
   LMAXPAW     = -100 max onsite density
   LMAXMIX     =    2 max onsite mixed and CHGCAR
   VOSKOWN=      0    Vosko Wilk Nusair interpolation
   ROPT   =    0.00000
 Ionic relaxation
   EDIFFG = -.1E-02   stopping-criterion for IOM
   NSW    =      0    number of steps for IOM
   NBLOCK =      1;   KBLOCK =      1    inner block; outer block 
   IBRION =     -1    ionic relax: 0-MD 1-quasi-New 2-CG
   NFREE  =      0    steps in history (QN), initial steepest desc. (CG)
   ISIF   =      2    stress and relaxation
   IWAVPR =     10    prediction:  0-non 1-charg 2-wave 3-comb
   ISYM   =      2    0-nonsym 1-usesym 2-fastsym
   LCORR  =      T    Harris-Foulkes like correction to forces

   POTIM  = 0.5000    time-step for ionic-motion
   TEIN   =    0.0    initial temperature
   TEBEG  =    0.0;   TEEND  =   0.0 temperature during run
   SMASS  =  -3.00    Nose mass-parameter (am)
   estimated Nose-frequenzy (Omega)   =  0.10E-29 period in steps =****** mass=  -0.183E-27a.u.
   SCALEE = 1.0000    scale energy and forces
   NPACO  =    256;   APACO  = 16.0  distance and # of slots for P.C.
   PSTRESS=    0.0 pullay stress

  Mass of Ions in am
   POMASS =  55.85
  Ionic Valenz
   ZVAL   =   8.00
  Atomic Wigner-Seitz radii
   RWIGS  =  -1.00
  virtual crystal weights 
   VCA    =   1.00
   NELECT =      16.0000    total number of electrons
   NUPDOWN=      -1.0000    fix difference up-down

 DOS related values:
   EMIN   =  10.00;   EMAX   =-10.00  energy-range for DOS
   EFERMI =   0.00
   ISMEAR =     1;   SIGMA  =   0.20  broadening in eV -4-tet -1-fermi 0-gaus

 Electronic relaxation 2 (details)
   IALGO  =     38    algorithm
   LDIAG  =      T    sub-space diagonalisation (order eigenvalues)
   LSUBROT=      F    optimize rotation matrix (better conditioning)
   TURBO    =      0    0=normal 1=particle mesh
   IRESTART =      0    0=no restart 2=restart with 2 vectors
   NREBOOT  =      0    no. of reboots
   NMIN     =      0    reboot dimension
   EREF     =   0.00    reference energy to select bands
   IMIX   =      4    mixing-type and parameters
     AMIX     =   0.40;   BMIX     =  1.00
     AMIX_MAG =   1.60;   BMIX_MAG =  1.00
     AMIN     =   0.10
     WC   =   100.;   INIMIX=   1;  MIXPRE=   1;  MAXMIX= -45

 Intra band minimization:
   WEIMIN = 0.0000     energy-eigenvalue tresh-hold
   EBREAK =  0.16E-07  absolut break condition
   DEPER  =   0.30     relativ break condition  

   TIME   =   0.40     timestep for ELM

  volume/ion in A,a.u.               =      11.36        76.69
  Fermi-wavevector in a.u.,A,eV,Ry     =   1.456323  2.752052 28.856282  2.120877
  Thomas-Fermi vector in A             =   2.573255
 
 Write flags
   LWAVE        =      T    write WAVECAR
   LDOWNSAMPLE  =      F    k-point downsampling of WAVECAR
   LCHARG       =      T    write CHGCAR
   LVTOT        =      F    write LOCPOT, total local potential
   LVHAR        =      F    write LOCPOT, Hartree potential only
   LELF         =      F    write electronic localiz. function (ELF)
   LORBIT       =     11    0 simple, 1 ext, 2 COOP (PROOUT), +10 PAW based schemes


 Dipole corrections
   LMONO  =      F    monopole corrections only (constant potential shift)
   LDIPOL =      F    correct potential (dipole corrections)
   IDIPOL =      0    1-x, 2-y, 3-z, 4-all directions 
   EPSILON=  1.0000000 bulk dielectric constant

 Exchange correlation treatment:
   GGA     =    --    GGA type
   LEXCH   =     8    internal setting for exchange type
   VOSKOWN=      0    Vosko Wilk Nusair interpolation
   LHFCALC =     F    Hartree Fock is set to
   LHFONE  =     F    Hartree Fock one center treatment
   AEXX    =    0.0000 exact exchange contribution

 Linear response parameters
   LEPSILON=     F    determine dielectric tensor
   LRPA    =     F    only Hartree local field effects (RPA)
   LNABLA  =     F    use nabla operator in PAW spheres
   LVEL    =     F    velocity operator in full k-point grid
   LINTERFAST=   F  fast interpolation
   KINTER  =     0    interpolate to denser k-point grid
   CSHIFT  =0.1000    complex shift for real part using Kramers Kronig
   OMEGAMAX=  -1.0    maximum frequency
   DEG_THRESHOLD= 0.2000000E-02 threshold for treating states as degnerate
   RTIME   =   -0.100 relaxation time in fs
  (WPLASMAI=    0.000 imaginary part of plasma frequency in eV, 0.658/RTIME)
   DFIELD  = 0.0000000 0.0000000 0.0000000 field for delta impulse in time
 
 Orbital magnetization related:
   ORBITALMAG=     F  switch on orbital magnetization
   LCHIMAG   =     F  perturbation theory with respect to B field
   DQ        =  0.001000  dq finite difference perturbation B field
   LLRAUG    =     F  two centre corrections for induced B field



--------------------------------------------------------------------------------------------------------


 Static calculation
 charge density and potential will be updated during run
 spin polarized calculation
 Variant of blocked Davidson
 Davidson routine will perform the subspace rotation
 perform sub-space diagonalisation
    after iterative eigenvector-optimisation
 modified Broyden-mixing scheme, WC =      100.0
 initial mixing is a Kerker type mixing with AMIX =  0.4000 and BMIX =      1.0000
 Hartree-type preconditioning will be used
 using additional bands            8
 reciprocal scheme for non local part
 use partial core corrections
 calculate Harris-corrections to forces 
   (improved forces if not selfconsistent)
 use gradient corrections 
 use of overlap-Matrix (Vanderbilt PP)
 Methfessel and Paxton  Order N= 1 SIGMA  =   0.20


--------------------------------------------------------------------------------------------------------


  energy-cutoff  :      500.00
  volume of cell :       22.73
      direct lattice vectors                 reciprocal lattice vectors
     2.832633757  0.000000000  0.000000000     0.353028342 -0.000000000  0.000000000
     0.000000000  2.832633757  0.000000000     0.000000000  0.353028342  0.000000000
     0.000000000  0.000000000  2.832633757    -0.000000000 -0.000000000  0.353028342

  length of vectors
     2.832633757  2.832633757  2.832633757     0.353028342  0.353028342  0.353028342


 
 k-points in units of 2pi/SCALE and weight: k-points                                
   0.01470951  0.01470951  0.01470951       0.005
   0.04412854  0.01470951  0.01470951       0.014
   0.07354757  0.01470951  0.01470951       0.014
   0.10296660  0.01470951  0.01470951       0.014
   0.13238563  0.01470951  0.01470951       0.014
   0.16180466  0.01470951  0.01470951       0.014
   0.04412854  0.04412854  0.01470951       0.014
   0.07354757  0.04412854  0.01470951       0.028
   0.10296660  0.04412854  0.01470951       0.028
   0.13238563  0.04412854  0.01470951       0.028
   0.16180466  0.04412854  0.01470951       0.028
   0.07354757  0.07354757  0.01470951       0.014
   0.10296660  0.07354757  0.01470951       0.028
   0.13238563  0.07354757  0.01470951       0.028
   0.16180466  0.07354757  0.01470951       0.028
   0.10296660  0.10296660  0.01470951       0.014
   0.13238563  0.10296660  0.01470951       0.028
   0.16180466  0.10296660  0.01470951       0.028
   0.13238563  0.13238563  0.01470951       0.014
   0.16180466  0.13238563  0.01470951       0.028
   0.16180466  0.16180466  0.01470951       0.014
   0.04412854  0.04412854  0.04412854       0.005
   0.07354757  0.04412854  0.04412854       0.014
   0.10296660  0.04412854  0.04412854       0.014
   0.13238563  0.04412854  0.04412854       0.014
   0.16180466  0.04412854  0.04412854       0.014
   0.07354757  0.07354757  0.04412854       0.014
   0.10296660  0.07354757  0.04412854       0.028
   0.13238563  0.07354757  0.04412854       0.028
   0.16180466  0.07354757  0.04412854       0.028
   0.10296660  0.10296660  0.04412854       0.014
   0.13238563  0.10296660  0.04412854       0.028
   0.16180466  0.10296660  0.04412854       0.028
   0.13238563  0.13238563  0.04412854       0.014
   0.16180466  0.13238563  0.04412854       0.028
   0.16180466  0.16180466  0.04412854       0.014
   0.07354757  0.07354757  0.07354757       0.005
   0.10296660  0.07354757  0.07354757       0.014
   0.13238563  0.07354757  0.07354757       0.014
   0.16180466  0.07354757  0.07354757       0.014
   0.10296660  0.10296660  0.07354757       0.014
   0.13238563  0.10296660  0.07354757       0.028
   0.16180466  0.10296660  0.07354757       0.028
   0.13238563  0.13238563  0.07354757       0.014
   0.16180466  0.13238563  0.07354757       0.028
   0.16180466  0.16180466  0.07354757       0.014
   0.10296660  0.10296660  0.10296660       0.005
   0.13238563  0.10296660  0.10296660       0.014
   0.16180466  0.10296660  0.10296660       0.014
   0.13238563  0.13238563  0.10296660       0.014
   0.16180466  0.13238563  0.10296660       0.028
   0.16180466  0.16180466  0.10296660       0.014
   0.13238563  0.13238563  0.13238563       0.005
   0.16180466  0.13238563  0.13238563       0.014
   0.16180466  0.16180466  0.13238563       0.014
   0.16180466  0.16180466  0.16180466       0.005
 
 k-points in reciprocal lattice and weights: k-points                                
   0.04166667  0.04166667  0.04166667       0.005
   0.12500000  0.04166667  0.04166667       0.014
   0.20833333  0.04166667  0.04166667       0.014
   0.29166667  0.04166667  0.04166667       0.014
   0.37500000  0.04166667  0.04166667       0.014
   0.45833333  0.04166667  0.04166667       0.014
   0.12500000  0.12500000  0.04166667       0.014
   0.20833333  0.12500000  0.04166667       0.028
   0.29166667  0.12500000  0.04166667       0.028
   0.37500000  0.12500000  0.04166667       0.028
   0.45833333  0.12500000  0.04166667       0.028
   0.20833333  0.20833333  0.04166667       0.014
   0.29166667  0.20833333  0.04166667       0.028
   0.37500000  0.20833333  0.04166667       0.028
   0.45833333  0.20833333  0.04166667       0.028
   0.29166667  0.29166667  0.04166667       0.014
   0.37500000  0.29166667  0.04166667       0.028
   0.45833333  0.29166667  0.04166667       0.028
   0.37500000  0.37500000  0.04166667       0.014
   0.45833333  0.37500000  0.04166667       0.028
   0.45833333  0.45833333  0.04166667       0.014
   0.12500000  0.12500000  0.12500000       0.005
   0.20833333  0.12500000  0.12500000       0.014
   0.29166667  0.12500000  0.12500000       0.014
   0.37500000  0.12500000  0.12500000       0.014
   0.45833333  0.12500000  0.12500000       0.014
   0.20833333  0.20833333  0.12500000       0.014
   0.29166667  0.20833333  0.12500000       0.028
   0.37500000  0.20833333  0.12500000       0.028
   0.45833333  0.20833333  0.12500000       0.028
   0.29166667  0.29166667  0.12500000       0.014
   0.37500000  0.29166667  0.12500000       0.028
   0.45833333  0.29166667  0.12500000       0.028
   0.37500000  0.37500000  0.12500000       0.014
   0.45833333  0.37500000  0.12500000       0.028
   0.45833333  0.45833333  0.12500000       0.014
   0.20833333  0.20833333  0.20833333       0.005
   0.29166667  0.20833333  0.20833333       0.014
   0.37500000  0.20833333  0.20833333       0.014
   0.45833333  0.20833333  0.20833333       0.014
   0.29166667  0.29166667  0.20833333       0.014
   0.37500000  0.29166667  0.20833333       0.028
   0.45833333  0.29166667  0.20833333       0.028
   0.37500000  0.37500000  0.20833333       0.014
   0.45833333  0.37500000  0.20833333       0.028
   0.45833333  0.45833333  0.20833333       0.014
   0.29166667  0.29166667  0.29166667       0.005
   0.37500000  0.29166667  0.29166667       0.014
   0.45833333  0.29166667  0.29166667       0.014
   0.37500000  0.37500000  0.29166667       0.014
   0.45833333  0.37500000  0.29166667       0.028
   0.45833333  0.45833333  0.29166667       0.014
   0.37500000  0.37500000  0.37500000       0.005
   0.45833333  0.37500000  0.37500000       0.014
   0.45833333  0.45833333  0.37500000       0.014
   0.45833333  0.45833333  0.45833333       0.005
 
 position of ions in fractional coordinates (direct lattice) 
   0.00000000  0.00000000  0.00000000
   0.50000000  0.50000000  0.50000000
 
 position of ions in cartesian coordinates  (Angst):
   0.00000000  0.00000000  0.00000000
   1.41631688  1.41631688  1.41631688
 


--------------------------------------------------------------------------------------------------------


 k-point  1 :   0.0417 0.0417 0.0417  plane waves:     597
 k-point  2 :   0.1250 0.0417 0.0417  plane waves:     578
 k-point  3 :   0.2083 0.0417 0.0417  plane waves:     572
 k-point  4 :   0.2917 0.0417 0.0417  plane waves:     573
 k-point  5 :   0.3750 0.0417 0.0417  plane waves:     580
 k-point  6 :   0.4583 0.0417 0.0417  plane waves:     582
 k-point  7 :   0.1250 0.1250 0.0417  plane waves:     572
 k-point  8 :   0.2083 0.1250 0.0417  plane waves:     570
 k-point  9 :   0.2917 0.1250 0.0417  plane waves:     572
 k-point 10 :   0.3750 0.1250 0.0417  plane waves:     580
 k-point 11 :   0.4583 0.1250 0.0417  plane waves:     582
 k-point 12 :   0.2083 0.2083 0.0417  plane waves:     575
 k-point 13 :   0.2917 0.2083 0.0417  plane waves:     574
 k-point 14 :   0.3750 0.2083 0.0417  plane waves:     574
 k-point 15 :   0.4583 0.2083 0.0417  plane waves:     580
 k-point 16 :   0.2917 0.2917 0.0417  plane waves:     576
 k-point 17 :   0.3750 0.2917 0.0417  plane waves:     579
 k-point 18 :   0.4583 0.2917 0.0417  plane waves:     578
 k-point 19 :   0.3750 0.3750 0.0417  plane waves:     573
 k-point 20 :   0.4583 0.3750 0.0417  plane waves:     571
 k-point 21 :   0.4583 0.4583 0.0417  plane waves:     568
 k-point 22 :   0.1250 0.1250 0.1250  plane waves:     573
 k-point 23 :   0.2083 0.1250 0.1250  plane waves:     572
 k-point 24 :   0.2917 0.1250 0.1250  plane waves:     568
 k-point 25 :   0.3750 0.1250 0.1250  plane waves:     579
 k-point 26 :   0.4583 0.1250 0.1250  plane waves:     576
 k-point 27 :   0.2083 0.2083 0.1250  plane waves:     571
 k-point 28 :   0.2917 0.2083 0.1250  plane waves:     573
 k-point 29 :   0.3750 0.2083 0.1250  plane waves:     574
 k-point 30 :   0.4583 0.2083 0.1250  plane waves:     578
 k-point 31 :   0.2917 0.2917 0.1250  plane waves:     575
 k-point 32 :   0.3750 0.2917 0.1250  plane waves:     578
 k-point 33 :   0.4583 0.2917 0.1250  plane waves:     578
 k-point 34 :   0.3750 0.3750 0.1250  plane waves:     577
 k-point 35 :   0.4583 0.3750 0.1250  plane waves:     576
 k-point 36 :   0.4583 0.4583 0.1250  plane waves:     572
 k-point 37 :   0.2083 0.2083 0.2083  plane waves:     573
 k-point 38 :   0.2917 0.2083 0.2083  plane waves:     583
 k-point 39 :   0.3750 0.2083 0.2083  plane waves:     582
 k-point 40 :   0.4583 0.2083 0.2083  plane waves:     576
 k-point 41 :   0.2917 0.2917 0.2083  plane waves:     577
 k-point 42 :   0.3750 0.2917 0.2083  plane waves:     578
 k-point 43 :   0.4583 0.2917 0.2083  plane waves:     580
 k-point 44 :   0.3750 0.3750 0.2083  plane waves:     584
 k-point 45 :   0.4583 0.3750 0.2083  plane waves:     580
 k-point 46 :   0.4583 0.4583 0.2083  plane waves:     581
 k-point 47 :   0.2917 0.2917 0.2917  plane waves:     582
 k-point 48 :   0.3750 0.2917 0.2917  plane waves:     576
 k-point 49 :   0.4583 0.2917 0.2917  plane waves:     581
 k-point 50 :   0.3750 0.3750 0.2917  plane waves:     579
 k-point 51 :   0.4583 0.3750 0.2917  plane waves:     578
 k-point 52 :   0.4583 0.4583 0.2917  plane waves:     586
 k-point 53 :   0.3750 0.3750 0.3750  plane waves:     591
 k-point 54 :   0.4583 0.3750 0.3750  plane waves:     588
 k-point 55 :   0.4583 0.4583 0.3750  plane waves:     586
 k-point 56 :   0.4583 0.4583 0.4583  plane waves:     588

 maximum and minimum number of plane-waves per node :       597      568

 maximum number of plane-waves:       597
 maximum index in each direction: 
   IXMAX=    5   IYMAX=    5   IZMAX=    5
   IXMIN=   -5   IYMIN=   -5   IZMIN=   -5


 serial   3D FFT for wavefunctions
 parallel 3D FFT for charge:
    minimum data exchange during FFTs selected (reduces bandwidth)


 total amount of memory used by VASP MPI-rank0    38101. kBytes
=======================================================================

   base      :      30000. kBytes
   nonl-proj :       4922. kBytes
   fftplans  :        304. kBytes
   grid      :       1638. kBytes
   one-center:         62. kBytes
   wavefun   :       1175. kBytes
 
     INWAV:  cpu time    0.0010: real time    0.0006
 Broyden mixing: mesh for mixing (old mesh)
   NGX = 11   NGY = 11   NGZ = 11
  (NGX  = 48   NGY  = 48   NGZ  = 48)
  gives a total of   1331 points

 initial charge density was supplied:
 charge density of overlapping atoms calculated
 number of electron      16.0000000 magnetization       8.0000000
 keeping initial charge density in first step


--------------------------------------------------------------------------------------------------------


 Maximum index for augmentation-charges         1450 (set IRDMAX)


--------------------------------------------------------------------------------------------------------


 First call to EWALD:  gamma=   0.626
 Maximum number of real-space cells 3x 3x 3
 Maximum number of reciprocal cells 3x 3x 3

    FEWALD:  cpu time    0.0010: real time    0.0018


--------------------------------------- Iteration      1(   1)  ---------------------------------------


    POTLOK:  cpu time    0.0180: real time    0.1279
    SETDIJ:  cpu time    0.1090: real time    0.2132
     EDDAV:  cpu time    0.4819: real time    0.6305
       DOS:  cpu time    0.0280: real time    0.0619
    --------------------------------------------
      LOOP:  cpu time    0.6369: real time    1.0337

 eigenvalue-minimisations  :  3584
 total energy-change (2. order) : 0.2947846E+02  (-0.8549550E+03)
 number of electron      16.0000000 magnetization       8.0000000
 augmentation part       16.0000000 magnetization       8.0000000

 Free energy of the ion-electron system (eV)
  ---------------------------------------------------
  alpha Z        PSCENC =       121.63353623
  Ewald energy   TEWEN  =     -1184.01045886
  -Hartree energ DENC   =      -223.12414456
  -exchange      EXHF   =         0.00000000
  -V(xc)+E(xc)   XCENC  =        12.01181965
  PAW double counting   =      1105.78361136    -1121.29561652
  entropy T*S    EENTRO =        -0.00520331
  eigenvalues    EBANDS =       129.85957178
  atomic energy  EATOM  =      1188.62534088
  Solvation  Ediel_sol  =         0.00000000
  ---------------------------------------------------
  free energy    TOTEN  =        29.47845667 eV

  energy without entropy =       29.48365997  energy(sigma->0) =       29.48019110


--------------------------------------------------------------------------------------------------------




--------------------------------------- Iteration      1(   2)  ---------------------------------------


     EDDAV:  cpu time    0.4069: real time    0.4969
       DOS:  cpu time    0.0010: real time    0.0012
    --------------------------------------------
      LOOP:  cpu time    0.4089: real time    0.4981

 eigenvalue-minimisations  :  3600
 total energy-change (2. order) :-0.4655960E+02  (-0.4463476E+02)
 number of electron      16.0000000 magnetization       8.0000000
 augmentation part       16.0000000 magnetization       8.0000000

 Free energy of the ion-electron system (eV)
  ---------------------------------------------------
  alpha Z        PSCENC =       121.63353623
  Ewald energy   TEWEN  =     -1184.01045886
  -Hartree energ DENC   =      -223.12414456
  -exchange      EXHF   =         0.00000000
  -V(xc)+E(xc)   XCENC  =        12.01181965
  PAW double counting   =      1105.78361136    -1121.29561652
  entropy T*S    EENTRO =        -0.00034584
  eigenvalues    EBANDS =        83.29511281
  atomic energy  EATOM  =      1188.62534088
  Solvation  Ediel_sol  =         0.00000000
  ---------------------------------------------------
  free energy    TOTEN  =       -17.08114485 eV

  energy without entropy =      -17.08079900  energy(sigma->0) =      -17.08102957


--------------------------------------------------------------------------------------------------------




--------------------------------------- Iteration      1(   3)  ---------------------------------------


     EDDAV:  cpu time    0.6769: real time    0.7085
       DOS:  cpu time    0.0000: real time    0.0012
    --------------------------------------------
      LOOP:  cpu time    0.6769: real time    0.7097

 eigenvalue-minimisations  :  5216
 total energy-change (2. order) :-0.2701071E+00  (-0.2700641E+00)
 number of electron      16.0000000 magnetization       8.0000000
 augmentation part       16.0000000 magnetization       8.0000000

 Free energy of the ion-electron system (eV)
  ---------------------------------------------------
  alpha Z        PSCENC =       121.63353623
  Ewald energy   TEWEN  =     -1184.01045886
  -Hartree energ DENC   =      -223.12414456
  -exchange      EXHF   =         0.00000000
  -V(xc)+E(xc)   XCENC  =        12.01181965
  PAW double counting   =      1105.78361136    -1121.29561652
  entropy T*S    EENTRO =        -0.00027246
  eigenvalues    EBANDS =        83.02493234
  atomic energy  EATOM  =      1188.62534088
  Solvation  Ediel_sol  =         0.00000000
  ---------------------------------------------------
  free energy    TOTEN  =       -17.35125193 eV

  energy without entropy =      -17.35097947  energy(sigma->0) =      -17.35116111


--------------------------------------------------------------------------------------------------------




--------------------------------------- Iteration      1(   4)  ---------------------------------------


     EDDAV:  cpu time    0.4879: real time    0.5370
       DOS:  cpu time    0.0020: real time    0.0012
    --------------------------------------------
      LOOP:  cpu time    0.4889: real time    0.5383

 eigenvalue-minimisations  :  4080
 total energy-change (2. order) :-0.1024109E-02  (-0.1024089E-02)
 number of electron      16.0000000 magnetization       8.0000000
 augmentation part       16.0000000 magnetization       8.0000000

 Free energy of the ion-electron system (eV)
  ---------------------------------------------------
  alpha Z        PSCENC =       121.63353623
  Ewald energy   TEWEN  =     -1184.01045886
  -Hartree energ DENC   =      -223.12414456
  -exchange      EXHF   =         0.00000000
  -V(xc)+E(xc)   XCENC  =        12.01181965
  PAW double counting   =      1105.78361136    -1121.29561652
  entropy T*S    EENTRO =        -0.00027678
  eigenvalues    EBANDS =        83.02391255
  atomic energy  EATOM  =      1188.62534088
  Solvation  Ediel_sol  =         0.00000000
  ---------------------------------------------------
  free energy    TOTEN  =       -17.35227604 eV

  energy without entropy =      -17.35199926  energy(sigma->0) =      -17.35218378


--------------------------------------------------------------------------------------------------------




--------------------------------------- Iteration      1(   5)  ---------------------------------------


     EDDAV:  cpu time    0.7549: real time    0.8150
       DOS:  cpu time    0.0290: real time    0.0512
    CHARGE:  cpu time    0.0310: real time    0.0539
    MIXING:  cpu time    0.0400: real time    0.0521
    --------------------------------------------
      LOOP:  cpu time    0.8549: real time    0.9722

 eigenvalue-minimisations  :  5520
 total energy-change (2. order) :-0.8153048E-05  (-0.8152958E-05)
 number of electron      16.0000013 magnetization       3.9498424
 augmentation part        7.3124626 magnetization       2.5426138

 Broyden mixing:
  rms(total) = 0.17759E+01    rms(broyden)= 0.17759E+01
  rms(prec ) = 0.35634E+01
  weight for this iteration     100.00

 Free energy of the ion-electron system (eV)
  ---------------------------------------------------
  alpha Z        PSCENC =       121.63353623
  Ewald energy   TEWEN  =     -1184.01045886
  -Hartree energ DENC   =      -223.12414456
  -exchange      EXHF   =         0.00000000
  -V(xc)+E(xc)   XCENC  =        12.01181965
  PAW double counting   =      1105.78361136    -1121.29561652
  entropy T*S    EENTRO =        -0.00027677
  eigenvalues    EBANDS =        83.02390439
  atomic energy  EATOM  =      1188.62534088
  Solvation  Ediel_sol  =         0.00000000
  ---------------------------------------------------
  free energy    TOTEN  =       -17.35228419 eV

  energy without entropy =      -17.35200742  energy(sigma->0) =      -17.35219193


--------------------------------------------------------------------------------------------------------




--------------------------------------- Iteration      1(   6)  ---------------------------------------


    POTLOK:  cpu time    0.0530: real time    0.1401
    SETDIJ:  cpu time    0.0060: real time    0.0064
     EDDAV:  cpu time    0.4239: real time    0.4246
       DOS:  cpu time    0.0010: real time    0.0013
    CHARGE:  cpu time    0.0300: real time    0.0296
    MIXING:  cpu time    0.0000: real time    0.0006
    --------------------------------------------
      LOOP:  cpu time    0.5139: real time    0.6027

 eigenvalue-minimisations  :  3776
 total energy-change (2. order) : 0.7428031E+00  (-0.2341177E+01)
 number of electron      16.0000014 magnetization       4.4174849
 augmentation part        8.5101487 magnetization       3.6380558

 Broyden mixing:
  rms(total) = 0.68350E+00    rms(broyden)= 0.68348E+00
  rms(prec ) = 0.79340E+00
  weight for this iteration     100.00

 eigenvalues of (default mixing * dielectric matrix)
  average eigenvalue GAMMA=   0.7810
  0.7810

 Free energy of the ion-electron system (eV)
  ---------------------------------------------------
  alpha Z        PSCENC =       121.63353623
  Ewald energy   TEWEN  =     -1184.01045886
  -Hartree energ DENC   =      -191.20989833
  -exchange      EXHF   =         0.00000000
  -V(xc)+E(xc)   XCENC  =         8.04209954
  PAW double counting   =      1223.14132222    -1234.94656254
  entropy T*S    EENTRO =        -0.00110445
  eigenvalues    EBANDS =        52.11624423
  atomic energy  EATOM  =      1188.62534088
  Solvation  Ediel_sol  =         0.00000000
  ---------------------------------------------------
  free energy    TOTEN  =       -16.60948108 eV

  energy without entropy =      -16.60837662  energy(sigma->0) =      -16.60911293


--------------------------------------------------------------------------------------------------------




--------------------------------------- Iteration      1(   7)  ---------------------------------------


    POTLOK:  cpu time    0.0100: real time    0.0343
    SETDIJ:  cpu time    0.0070: real time    0.0063
     EDDAV:  cpu time    0.4269: real time    0.4283
       DOS:  cpu time    0.0020: real time    0.0012
    CHARGE:  cpu time    0.0290: real time    0.0295
    MIXING:  cpu time    0.0000: real time    0.0005
    --------------------------------------------
      LOOP:  cpu time    0.4759: real time    0.5001

 eigenvalue-minimisations  :  3792
 total energy-change (2. order) : 0.1046158E+00  (-0.9773589E-01)
 number of electron      16.0000014 magnetization       4.3952199
 augmentation part        8.2507263 magnetization       3.6278493

 Broyden mixing:
  rms(total) = 0.44582E+00    rms(broyden)= 0.44582E+00
  rms(prec ) = 0.52247E+00
  weight for this iteration     100.00

 eigenvalues of (default mixing * dielectric matrix)
  average eigenvalue GAMMA=   0.7726
  0.9975  0.5478

 Free energy of the ion-electron system (eV)
  ---------------------------------------------------
  alpha Z        PSCENC =       121.63353623
  Ewald energy   TEWEN  =     -1184.01045886
  -Hartree energ DENC   =      -194.54270695
  -exchange      EXHF   =         0.00000000
  -V(xc)+E(xc)   XCENC  =         8.81199158
  PAW double counting   =      1299.97068890    -1315.05885028
  entropy T*S    EENTRO =         0.00034988
  eigenvalues    EBANDS =        58.06524330
  atomic energy  EATOM  =      1188.62534088
  Solvation  Ediel_sol  =         0.00000000
  ---------------------------------------------------
  free energy    TOTEN  =       -16.50486531 eV

  energy without entropy =      -16.50521519  energy(sigma->0) =      -16.50498194


--------------------------------------------------------------------------------------------------------




--------------------------------------- Iteration      1(   8)  ---------------------------------------


    POTLOK:  cpu time    0.0290: real time    0.0657
    SETDIJ:  cpu time    0.0070: real time    0.0063
     EDDAV:  cpu time    0.5639: real time    0.5641
       DOS:  cpu time    0.0010: real time    0.0012
    CHARGE:  cpu time    0.0290: real time    0.0296
    MIXING:  cpu time    0.0010: real time    0.0005
    --------------------------------------------
      LOOP:  cpu time    0.6299: real time    0.6674

 eigenvalue-minimisations  :  4720
 total energy-change (2. order) : 0.1686194E-01  (-0.1157282E-02)
 number of electron      16.0000014 magnetization       4.3815837
 augmentation part        8.2692173 magnetization       3.6148962

 Broyden mixing:
  rms(total) = 0.17838E+00    rms(broyden)= 0.17838E+00
  rms(prec ) = 0.24900E+00
  weight for this iteration     100.00

 eigenvalues of (default mixing * dielectric matrix)
  average eigenvalue GAMMA=   1.1326
  1.9870  0.8031  0.6078

 Free energy of the ion-electron system (eV)
  ---------------------------------------------------
  alpha Z        PSCENC =       121.63353623
  Ewald energy   TEWEN  =     -1184.01045886
  -Hartree energ DENC   =      -192.92032871
  -exchange      EXHF   =         0.00000000
  -V(xc)+E(xc)   XCENC  =         8.70075494
  PAW double counting   =      1344.40952676    -1360.50134889
  entropy T*S    EENTRO =         0.00016979
  eigenvalues    EBANDS =        57.57480448
  atomic energy  EATOM  =      1188.62534088
  Solvation  Ediel_sol  =         0.00000000
  ---------------------------------------------------
  free energy    TOTEN  =       -16.48800337 eV

  energy without entropy =      -16.48817317  energy(sigma->0) =      -16.48805997


--------------------------------------------------------------------------------------------------------




--------------------------------------- Iteration      1(   9)  ---------------------------------------


    POTLOK:  cpu time    0.0320: real time    0.0718
    SETDIJ:  cpu time    0.0060: real time    0.0063
     EDDAV:  cpu time    0.6489: real time    0.6523
       DOS:  cpu time    0.0010: real time    0.0013
    CHARGE:  cpu time    0.0290: real time    0.0295
    MIXING:  cpu time    0.0010: real time    0.0005
    --------------------------------------------
      LOOP:  cpu time    0.7179: real time    0.7618

 eigenvalue-minimisations  :  5312
 total energy-change (2. order) : 0.1375006E-01  (-0.1947763E-02)
 number of electron      16.0000014 magnetization       4.3754874
 augmentation part        8.3048930 magnetization       3.6114510

 Broyden mixing:
  rms(total) = 0.28905E-01    rms(broyden)= 0.28904E-01
  rms(prec ) = 0.33678E-01
  weight for this iteration     100.00

 eigenvalues of (default mixing * dielectric matrix)
  average eigenvalue GAMMA=   1.1956
  2.3869  0.9787  0.7903  0.6264

 Free energy of the ion-electron system (eV)
  ---------------------------------------------------
  alpha Z        PSCENC =       121.63353623
  Ewald energy   TEWEN  =     -1184.01045886
  -Hartree energ DENC   =      -190.28277376
  -exchange      EXHF   =         0.00000000
  -V(xc)+E(xc)   XCENC  =         8.61148942
  PAW double counting   =      1421.25008985    -1439.04379445
  entropy T*S    EENTRO =        -0.00054661
  eigenvalues    EBANDS =        56.74286398
  atomic energy  EATOM  =      1188.62534088
  Solvation  Ediel_sol  =         0.00000000
  ---------------------------------------------------
  free energy    TOTEN  =       -16.47425332 eV

  energy without entropy =      -16.47370671  energy(sigma->0) =      -16.47407111


--------------------------------------------------------------------------------------------------------




--------------------------------------- Iteration      1(  10)  ---------------------------------------


    POTLOK:  cpu time    0.0200: real time    0.0732
    SETDIJ:  cpu time    0.0060: real time    0.0063
     EDDAV:  cpu time    0.4379: real time    0.4377
       DOS:  cpu time    0.0000: real time    0.0012
    CHARGE:  cpu time    0.0300: real time    0.0295
    MIXING:  cpu time    0.0000: real time    0.0006
    --------------------------------------------
      LOOP:  cpu time    0.4949: real time    0.5485

 eigenvalue-minimisations  :  3856
 total energy-change (2. order) : 0.3681865E-03  (-0.1410413E-03)
 number of electron      16.0000014 magnetization       4.3793658
 augmentation part        8.2966596 magnetization       3.6137478

 Broyden mixing:
  rms(total) = 0.53056E-02    rms(broyden)= 0.53055E-02
  rms(prec ) = 0.73700E-02
  weight for this iteration     100.00

 eigenvalues of (default mixing * dielectric matrix)
  average eigenvalue GAMMA=   1.1368
  2.4341  1.0556  0.6696  0.6696  0.8552

 Free energy of the ion-electron system (eV)
  ---------------------------------------------------
  alpha Z        PSCENC =       121.63353623
  Ewald energy   TEWEN  =     -1184.01045886
  -Hartree energ DENC   =      -190.12157900
  -exchange      EXHF   =         0.00000000
  -V(xc)+E(xc)   XCENC  =         8.60626106
  PAW double counting   =      1436.74013251    -1454.89091511
  entropy T*S    EENTRO =        -0.00047470
  eigenvalues    EBANDS =        56.94427186
  atomic energy  EATOM  =      1188.62534088
  Solvation  Ediel_sol  =         0.00000000
  ---------------------------------------------------
  free energy    TOTEN  =       -16.47388513 eV

  energy without entropy =      -16.47341043  energy(sigma->0) =      -16.47372690


--------------------------------------------------------------------------------------------------------




--------------------------------------- Iteration      1(  11)  ---------------------------------------


    POTLOK:  cpu time    0.0340: real time    0.0632
    SETDIJ:  cpu time    0.0060: real time    0.0063
     EDDAV:  cpu time    0.4929: real time    0.4937
       DOS:  cpu time    0.0010: real time    0.0011
    CHARGE:  cpu time    0.0300: real time    0.0295
    MIXING:  cpu time    0.0000: real time    0.0005
    --------------------------------------------
      LOOP:  cpu time    0.5639: real time    0.5943

 eigenvalue-minimisations  :  4224
 total energy-change (2. order) :-0.3027441E-04  (-0.5898723E-05)
 number of electron      16.0000014 magnetization       4.3728477
 augmentation part        8.2975742 magnetization       3.6071375

 Broyden mixing:
  rms(total) = 0.44126E-02    rms(broyden)= 0.44126E-02
  rms(prec ) = 0.49366E-02
  weight for this iteration     100.00

 eigenvalues of (default mixing * dielectric matrix)
  average eigenvalue GAMMA=   1.2792
  2.2775  2.2775  1.0056  0.6538  0.7432  0.7176

 Free energy of the ion-electron system (eV)
  ---------------------------------------------------
  alpha Z        PSCENC =       121.63353623
  Ewald energy   TEWEN  =     -1184.01045886
  -Hartree energ DENC   =      -190.08889622
  -exchange      EXHF   =         0.00000000
  -V(xc)+E(xc)   XCENC  =         8.60856357
  PAW double counting   =      1438.70030154    -1456.86003569
  entropy T*S    EENTRO =        -0.00046829
  eigenvalues    EBANDS =        56.91820143
  atomic energy  EATOM  =      1188.62534088
  Solvation  Ediel_sol  =         0.00000000
  ---------------------------------------------------
  free energy    TOTEN  =       -16.47391540 eV

  energy without entropy =      -16.47344711  energy(sigma->0) =      -16.47375931


--------------------------------------------------------------------------------------------------------




--------------------------------------- Iteration      1(  12)  ---------------------------------------


    POTLOK:  cpu time    0.0210: real time    0.0697
    SETDIJ:  cpu time    0.0060: real time    0.0063
     EDDAV:  cpu time    0.4999: real time    0.5000
       DOS:  cpu time    0.0000: real time    0.0012
    CHARGE:  cpu time    0.0300: real time    0.0295
    MIXING:  cpu time    0.0010: real time    0.0005
    --------------------------------------------
      LOOP:  cpu time    0.5569: real time    0.6073

 eigenvalue-minimisations  :  4272
 total energy-change (2. order) :-0.7829650E-05  (-0.5877381E-06)
 number of electron      16.0000014 magnetization       4.3743819
 augmentation part        8.2977046 magnetization       3.6085090

 Broyden mixing:
  rms(total) = 0.33667E-02    rms(broyden)= 0.33667E-02
  rms(prec ) = 0.35134E-02
  weight for this iteration     100.00

 eigenvalues of (default mixing * dielectric matrix)
  average eigenvalue GAMMA=   1.2294
  2.4447  2.4447  1.0400  0.8488  0.6693  0.6693  0.4892

 Free energy of the ion-electron system (eV)
  ---------------------------------------------------
  alpha Z        PSCENC =       121.63353623
  Ewald energy   TEWEN  =     -1184.01045886
  -Hartree energ DENC   =      -190.11848104
  -exchange      EXHF   =         0.00000000
  -V(xc)+E(xc)   XCENC  =         8.60230755
  PAW double counting   =      1439.44694273    -1457.56186418
  entropy T*S    EENTRO =        -0.00048172
  eigenvalues    EBANDS =        56.90923518
  atomic energy  EATOM  =      1188.62534088
  Solvation  Ediel_sol  =         0.00000000
  ---------------------------------------------------
  free energy    TOTEN  =       -16.47392323 eV

  energy without entropy =      -16.47344151  energy(sigma->0) =      -16.47376266


--------------------------------------------------------------------------------------------------------




--------------------------------------- Iteration      1(  13)  ---------------------------------------


    POTLOK:  cpu time    0.0140: real time    0.0378
    SETDIJ:  cpu time    0.0070: real time    0.0063
     EDDAV:  cpu time    0.2460: real time    0.2463
       DOS:  cpu time    0.0010: real time    0.0012
    CHARGE:  cpu time    0.0280: real time    0.0294
    MIXING:  cpu time    0.0010: real time    0.0006
    --------------------------------------------
      LOOP:  cpu time    0.2980: real time    0.3216

 eigenvalue-minimisations  :  1968
 total energy-change (2. order) : 0.7893083E-05  (-0.1131808E-06)
 number of electron      16.0000014 magnetization       4.3766226
 augmentation part        8.2979513 magnetization       3.6108835

 Broyden mixing:
  rms(total) = 0.18755E-02    rms(broyden)= 0.18755E-02
  rms(prec ) = 0.19006E-02
  weight for this iteration     100.00

 eigenvalues of (default mixing * dielectric matrix)
  average eigenvalue GAMMA=   1.2505
  2.6705  2.4734  1.1411  1.0231  0.7311  0.7311  0.6351  0.5989

 Free energy of the ion-electron system (eV)
  ---------------------------------------------------
  alpha Z        PSCENC =       121.63353623
  Ewald energy   TEWEN  =     -1184.01045886
  -Hartree energ DENC   =      -190.11243973
  -exchange      EXHF   =         0.00000000
  -V(xc)+E(xc)   XCENC  =         8.60478800
  PAW double counting   =      1439.57450267    -1457.69249751
  entropy T*S    EENTRO =        -0.00048405
  eigenvalues    EBANDS =        56.90379702
  atomic energy  EATOM  =      1188.62534088
  Solvation  Ediel_sol  =         0.00000000
  ---------------------------------------------------
  free energy    TOTEN  =       -16.47391534 eV

  energy without entropy =      -16.47343129  energy(sigma->0) =      -16.47375399


--------------------------------------------------------------------------------------------------------




--------------------------------------- Iteration      1(  14)  ---------------------------------------


    POTLOK:  cpu time    0.0160: real time    0.0372
    SETDIJ:  cpu time    0.0060: real time    0.0063
     EDDAV:  cpu time    0.2510: real time    0.2514
       DOS:  cpu time    0.0010: real time    0.0012
    CHARGE:  cpu time    0.0300: real time    0.0294
    MIXING:  cpu time    0.0000: real time    0.0006
    --------------------------------------------
      LOOP:  cpu time    0.3040: real time    0.3261

 eigenvalue-minimisations  :  2000
 total energy-change (2. order) : 0.1007318E-05  (-0.5870836E-07)
 number of electron      16.0000014 magnetization       4.3767114
 augmentation part        8.2979519 magnetization       3.6110331

 Broyden mixing:
  rms(total) = 0.56495E-04    rms(broyden)= 0.56488E-04
  rms(prec ) = 0.88437E-04
  weight for this iteration     100.00

 eigenvalues of (default mixing * dielectric matrix)
  average eigenvalue GAMMA=   1.2007
  2.6835  2.4614  1.1758  1.0223  0.7898  0.7223  0.7223  0.6220  0.6068

 Free energy of the ion-electron system (eV)
  ---------------------------------------------------
  alpha Z        PSCENC =       121.63353623
  Ewald energy   TEWEN  =     -1184.01045886
  -Hartree energ DENC   =      -190.10352792
  -exchange      EXHF   =         0.00000000
  -V(xc)+E(xc)   XCENC  =         8.60729086
  PAW double counting   =      1439.85513924    -1457.98481402
  entropy T*S    EENTRO =        -0.00048383
  eigenvalues    EBANDS =        56.90406308
  atomic energy  EATOM  =      1188.62534088
  Solvation  Ediel_sol  =         0.00000000
  ---------------------------------------------------
  free energy    TOTEN  =       -16.47391433 eV

  energy without entropy =      -16.47343050  energy(sigma->0) =      -16.47375306


--------------------------------------------------------------------------------------------------------




--------------------------------------- Iteration      1(  15)  ---------------------------------------


    POTLOK:  cpu time    0.0260: real time    0.0731
    SETDIJ:  cpu time    0.0070: real time    0.0062
     EDDAV:  cpu time    0.2380: real time    0.2383
       DOS:  cpu time    0.0010: real time    0.0012
    --------------------------------------------
      LOOP:  cpu time    0.2710: real time    0.3187

 eigenvalue-minimisations  :  1888
 total energy-change (2. order) :-0.2041884E-07  (-0.2680290E-08)
 number of electron      16.0000014 magnetization       4.3767114
 augmentation part        8.2979519 magnetization       3.6110331

 Free energy of the ion-electron system (eV)
  ---------------------------------------------------
  alpha Z        PSCENC =       121.63353623
  Ewald energy   TEWEN  =     -1184.01045886
  -Hartree energ DENC   =      -190.10382788
  -exchange      EXHF   =         0.00000000
  -V(xc)+E(xc)   XCENC  =         8.60736570
  PAW double counting   =      1439.84270804    -1457.97221670
  entropy T*S    EENTRO =        -0.00048435
  eigenvalues    EBANDS =        56.90412257
  atomic energy  EATOM  =      1188.62534088
  Solvation  Ediel_sol  =         0.00000000
  ---------------------------------------------------
  free energy    TOTEN  =       -16.47391435 eV

  energy without entropy =      -16.47343001  energy(sigma->0) =      -16.47375291


--------------------------------------------------------------------------------------------------------




 average (electrostatic) potential at core
  the test charge radii are     1.0103
  (the norm of the test charge is              1.0000)
       1 -43.3363       2 -43.3363
 
 
 
 E-fermi :   5.7898     XC(G=0): -13.1156     alpha+bet :-13.6397


 spin component 1

 k-point     1 :       0.0417    0.0417    0.0417
  band No.  band energies     occupation 
      1      -2.4985      1.00000
      2       1.0364      1.00000
      3       1.0364      1.00000
      4       3.4732      1.00000
      5       3.4732      1.00000
      6       3.5616      1.00000
      7       4.7365      1.00000
      8       4.7365      1.00000
      9       5.7428      0.69290
     10       5.8783      0.16315
     11       5.8783      0.16315
     12      15.5501      0.00000
     13      15.5501      0.00000
     14      15.7342      0.00000
     15      21.8395      0.00000
     16      21.8395      0.00000

 k-point     2 :       0.1250    0.0417    0.0417
  band No.  band energies     occupation 
      1      -2.2143      1.00000
      2       1.1562      1.00000
      3       1.1597      1.00000
      4       3.4309      1.00000
      5       3.4676      1.00000
      6       3.6808      1.00000
      7       4.6166      1.00000
      8       4.7890      1.00000
      9       5.4571      1.02017
     10       5.6508      0.95807
     11       5.8637      0.20970
     12      13.9203      0.00000
     13      16.0613      0.00000
     14      16.2018      0.00000
     15      21.9441      0.00000
     16      22.9757      0.00000

 k-point     3 :       0.2083    0.0417    0.0417
  band No.  band energies     occupation 
      1      -1.6654      1.00000
      2       1.3679      1.00000
      3       1.3888      1.00000
      4       3.4198      1.00000
      5       3.4653      1.00000
      6       3.8551      1.00000
      7       4.3873      1.00000
      8       4.8879      1.00000
      9       5.0641      1.00000
     10       5.2743      1.00081
     11       5.7358      0.71954
     12      11.8121      0.00000
     13      16.9955      0.00000
     14      17.1322      0.00000
     15      22.1659      0.00000
     16      23.8598      0.00000

 k-point     4 :       0.2917    0.0417    0.0417
  band No.  band energies     occupation 
      1      -0.8971      1.00000
      2       1.5802      1.00000
      3       1.7199      1.00000
      4       3.4543      1.00000
      5       3.4702      1.00000
      6       4.0801      1.00000
      7       4.0829      1.00000
      8       4.6407      1.00000
      9       4.8466      1.00000
     10       5.0340      1.00000
     11       5.5253      1.03417
     12       9.7555     -0.00000
     13      18.2325      0.00000
     14      18.3849      0.00000
     15      22.5335      0.00000
     16      24.4264      0.00000

 k-point     5 :       0.3750    0.0417    0.0417
  band No.  band energies     occupation 
      1       0.0006      1.00000
      2       1.6657      1.00000
      3       2.1279      1.00000
      4       3.3926      1.00000
      5       3.5511      1.00000
      6       3.8312      1.00000
      7       4.2559      1.00000
      8       4.3546      1.00000
      9       4.4434      1.00000
     10       5.2584      1.00056
     11       5.2651      1.00066
     12       7.9545     -0.00000
     13      19.6535      0.00000
     14      19.8666      0.00000
     15      23.0972      0.00000
     16      23.9710      0.00000

 k-point     6 :       0.4583    0.0417    0.0417
  band No.  band energies     occupation 
      1       0.8615      1.00000
      2       1.4571      1.00000
      3       2.5826      1.00000
      4       3.0400      1.00000
      5       3.7174      1.00000
      6       3.8833      1.00000
      7       3.9491      1.00000
      8       4.1119      1.00000
      9       4.6531      1.00000
     10       4.9601      1.00000
     11       5.7082      0.81537
     12       6.5717     -0.00000
     13      21.1382      0.00000
     14      21.5080      0.00000
     15      22.5793      0.00000
     16      23.2639      0.00000

 k-point     7 :       0.1250    0.1250    0.0417
  band No.  band energies     occupation 
      1      -1.9375      1.00000
      2       1.2608      1.00000
      3       1.2910      1.00000
      4       3.3217      1.00000
      5       3.4333      1.00000
      6       3.8743      1.00000
      7       4.6192      1.00000
      8       4.7560      1.00000
      9       5.0937      1.00000
     10       5.4850      1.02656
     11       5.9127      0.07363
     12      13.9714      0.00000
     13      14.8016      0.00000
     14      16.6112      0.00000
     15      22.5207      0.00000
     16      23.9515      0.00000

 k-point     8 :       0.2083    0.1250    0.0417
  band No.  band energies     occupation 
      1      -1.4056      1.00000
      2       1.4478      1.00000
      3       1.5270      1.00000
      4       3.2374      1.00000
      5       3.3979      1.00000
      6       4.1166      1.00000
      7       4.4786      1.00000
      8       4.6636      1.00000
      9       4.8351      1.00000
     10       5.1336      1.00002
     11       5.8819      0.15241
     12      12.1157      0.00000
     13      15.3403      0.00000
     14      17.4756      0.00000
     15      22.8381      0.00000
     16      25.1479      0.00000

 k-point     9 :       0.2917    0.1250    0.0417
  band No.  band energies     occupation 
      1      -0.6695      1.00000
      2       1.6498      1.00000
      3       1.8322      1.00000
      4       3.2091      1.00000
      5       3.3562      1.00000
      6       4.2430      1.00000
      7       4.2721      1.00000
      8       4.3957      1.00000
      9       4.7490      1.00000
     10       4.9837      1.00000
     11       5.7451      0.68395
     12      10.0512     -0.00000
     13      16.3981      0.00000
     14      18.6530      0.00000
     15      23.2336      0.00000
     16      23.7681      0.00000

 k-point    10 :       0.3750    0.1250    0.0417
  band No.  band energies     occupation 
      1       0.1733      1.00000
      2       1.7200      1.00000
      3       2.1933      1.00000
      4       3.1922      1.00000
      5       3.3087      1.00000
      6       3.8886      1.00000
      7       4.1271      1.00000
      8       4.4299      1.00000
      9       4.6909      1.00000
     10       5.2319      1.00029
     11       5.5274      1.03442
     12       8.2049     -0.00000
     13      17.6448      0.00000
     14      20.0505      0.00000
     15      22.0793      0.00000
     16      23.8057      0.00000

 k-point    11 :       0.4583    0.1250    0.0417
  band No.  band energies     occupation 
      1       0.9606      1.00000
      2       1.5072      1.00000
      3       2.5844      1.00000
      4       2.9508      1.00000
      5       3.4164      1.00000
      6       3.6168      1.00000
      7       4.1297      1.00000
      8       4.2309      1.00000
      9       4.9782      1.00000
     10       5.2606      1.00059
     11       5.7496      0.66626
     12       6.7312     -0.00000
     13      19.0187      0.00000
     14      20.4979      0.00000
     15      21.5834      0.00000
     16      23.1858      0.00000

 k-point    12 :       0.2083    0.2083    0.0417
  band No.  band energies     occupation 
      1      -0.9146      1.00000
      2       1.5584      1.00000
      3       1.7987      1.00000
      4       3.0696      1.00000
      5       3.3392      1.00000
      6       4.2191      1.00000
      7       4.4285      1.00000
      8       4.5577      1.00000
      9       4.7934      1.00000
     10       4.8382      1.00000
     11       5.9712     -0.01256
     12      12.0180      0.00000
     13      13.9952      0.00000
     14      18.2335      0.00000
     15      23.1759      0.00000
     16      23.6101      0.00000

 k-point    13 :       0.2917    0.2083    0.0417
  band No.  band energies     occupation 
      1      -0.2592      1.00000
      2       1.6540      1.00000
      3       2.1396      1.00000
      4       2.9665      1.00000
      5       3.3177      1.00000
      6       3.8085      1.00000
      7       4.4929      1.00000
      8       4.5601      1.00000
      9       4.7616      1.00000
     10       4.8993      1.00000
     11       5.9439      0.01785
     12      10.3997     -0.00000
     13      14.4708      0.00000
     14      19.2913      0.00000
     15      21.6971      0.00000
     16      23.5317      0.00000

 k-point    14 :       0.3750    0.2083    0.0417
  band No.  band energies     occupation 
      1       0.4428      1.00000
      2       1.6434      1.00000
      3       2.4934      1.00000
      4       2.9411      1.00000
      5       3.2959      1.00000
      6       3.4753      1.00000
      7       4.4089      1.00000
      8       4.4351      1.00000
      9       5.0281      1.00000
     10       5.2142      1.00018
     11       5.8076      0.42513
     12       8.5648     -0.00000
     13      15.5470      0.00000
     14      19.9187      0.00000
     15      20.5716      0.00000
     16      24.0451      0.00000

 k-point    15 :       0.4583    0.2083    0.0417
  band No.  band energies     occupation 
      1       1.0430      1.00000
      2       1.4481      1.00000
      3       2.8122      1.00000
      4       2.9673      1.00000
      5       3.1955      1.00000
      6       3.2412      1.00000
      7       4.3974      1.00000
      8       4.4282      1.00000
      9       5.3034      1.00156
     10       5.5846      1.02763
     11       5.8541      0.24292
     12       6.9888     -0.00000
     13      16.8380      0.00000
     14      18.2971      0.00000
     15      21.9907      0.00000
     16      23.4683      0.00000

 k-point    16 :       0.2917    0.2917    0.0417
  band No.  band energies     occupation 
      1       0.2353      1.00000
      2       1.5927      1.00000
      3       2.5531      1.00000
      4       2.7915      1.00000
      5       3.4125      1.00000
      6       3.4489      1.00000
      7       4.4389      1.00000
      8       4.6355      1.00000
      9       4.8453      1.00000
     10       5.1346      1.00002
     11       6.0338     -0.03545
     12      10.0889     -0.00000
     13      13.5028      0.00000
     14      19.7208      0.00000
     15      20.1997      0.00000
     16      23.8331      0.00000

 k-point    17 :       0.3750    0.2917    0.0417
  band No.  band energies     occupation 
      1       0.6846      1.00000
      2       1.4611      1.00000
      3       2.7062      1.00000
      4       2.9669      1.00000
      5       3.1121      1.00000
      6       3.6773      1.00000
      7       4.4488      1.00000
      8       4.6694      1.00000
      9       5.0010      1.00000
     10       5.5071      1.03127
     11       5.9986     -0.02910
     12       8.7512     -0.00000
     13      13.9238      0.00000
     14      17.9218      0.00000
     15      21.3156      0.00000
     16      24.2797      0.00000

 k-point    18 :       0.4583    0.2917    0.0417
  band No.  band energies     occupation 
      1       1.0215      1.00000
      2       1.2699      1.00000
      3       2.7233      1.00000
      4       2.8465      1.00000
      5       3.3899      1.00000
      6       3.6578      1.00000
      7       4.5546      1.00000
      8       4.6585      1.00000
      9       5.4910      1.02791
     10       5.8369      0.30662
     11       6.0509     -0.03456
     12       7.2269     -0.00000
     13      14.9762      0.00000
     14      16.3317      0.00000
     15      22.5528      0.00000
     16      23.8063      0.00000

 k-point    19 :       0.3750    0.3750    0.0417
  band No.  band energies     occupation 
      1       0.8396      1.00000
      2       1.2607      1.00000
      3       2.5600      1.00000
      4       2.7956      1.00000
      5       3.5322      1.00000
      6       4.3439      1.00000
      7       4.5506      1.00000
      8       4.8214      1.00000
      9       4.8995      1.00000
     10       5.8557      0.23719
     11       6.0641     -0.03277
     12       8.3229     -0.00000
     13      13.2653      0.00000
     14      16.1661      0.00000
     15      22.2195      0.00000
     16      24.6371      0.00000

 k-point    20 :       0.4583    0.3750    0.0417
  band No.  band energies     occupation 
      1       0.9546      1.00000
      2       1.0876      1.00000
      3       2.5226      1.00000
      4       2.6020      1.00000
      5       4.0304      1.00000
      6       4.3937      1.00000
      7       4.6823      1.00000
      8       4.7950      1.00000
      9       5.5263      1.03429
     10       5.9692     -0.01086
     11       6.3014     -0.00089
     12       7.2747     -0.00000
     13      13.6644      0.00000
     14      14.7137      0.00000
     15      23.1771      0.00000
     16      24.0430      0.00000

 k-point    21 :       0.4583    0.4583    0.0417
  band No.  band energies     occupation 
      1       0.9227      1.00000
      2       0.9647      1.00000
      3       2.4299      1.00000
      4       2.4567      1.00000
      5       4.6270      1.00000
      6       4.7702      1.00000
      7       4.7862      1.00000
      8       4.9353      1.00000
      9       5.6124      1.00908
     10       5.9133      0.07233
     11       6.5950     -0.00000
     12       6.9979     -0.00000
     13      13.1784      0.00000
     14      13.5918      0.00000
     15      23.7170      0.00000
     16      24.0270      0.00000

 k-point    22 :       0.1250    0.1250    0.1250
  band No.  band energies     occupation 
      1      -1.6663      1.00000
      2       1.3917      1.00000
      3       1.3917      1.00000
      4       3.2882      1.00000
[...]

 k-point    48 :       0.3750    0.2917    0.2917
  band No.  band energies     occupation 
      1       2.5020      1.00000
      2       3.5973      1.00000
      3       4.0887      1.00000
      4       4.1597      1.00000
      5       4.2310      1.00000
      6       4.4131      1.00000
      7       7.3511     -0.00000
      8       7.4403     -0.00000
      9       7.6199     -0.00000
     10       7.6377     -0.00000
     11       9.2740     -0.00000
     12      12.2921      0.00000
     13      14.9749      0.00000
     14      16.5470      0.00000
     15      19.3147      0.00000
     16      20.0166      0.00000

 k-point    49 :       0.4583    0.2917    0.2917
  band No.  band energies     occupation 
      1       2.9572      1.00000
      2       3.2828      1.00000
      3       4.0662      1.00000
      4       4.0873      1.00000
      5       4.3690      1.00000
      6       4.5016      1.00000
      7       7.3357     -0.00000
      8       7.3774     -0.00000
      9       7.7001     -0.00000
     10       7.7102     -0.00000
     11      10.0046     -0.00000
     12      10.9922     -0.00000
     13      16.3140      0.00000
     14      17.3788      0.00000
     15      17.7601      0.00000
     16      18.5705      0.00000

 k-point    50 :       0.3750    0.3750    0.2917
  band No.  band energies     occupation 
      1       2.9587      1.00000
      2       3.4821      1.00000
      3       4.0555      1.00000
      4       4.1136      1.00000
      5       4.2046      1.00000
      6       4.4464      1.00000
      7       7.4459     -0.00000
      8       7.5280     -0.00000
      9       7.6442     -0.00000
     10       7.6583     -0.00000
     11       9.9351     -0.00000
     12      12.5038      0.00000
     13      14.5065      0.00000
     14      16.8190      0.00000
     15      17.9188      0.00000
     16      20.0263      0.00000

 k-point    51 :       0.4583    0.3750    0.2917
  band No.  band energies     occupation 
      1       3.1924      1.00000
      2       3.3269      1.00000
      3       4.0094      1.00000
      4       4.0367      1.00000
      5       4.4007      1.00000
      6       4.5344      1.00000
      7       7.4819     -0.00000
      8       7.5152     -0.00000
      9       7.7057     -0.00000
     10       7.7120     -0.00000
     11      10.6916     -0.00000
     12      11.6249      0.00000
     13      15.2384      0.00000
     14      16.4543      0.00000
     15      17.7060      0.00000
     16      18.9320      0.00000

 k-point    52 :       0.4583    0.4583    0.2917
  band No.  band energies     occupation 
      1       3.2421      1.00000
      2       3.2734      1.00000
      3       3.9483      1.00000
      4       3.9636      1.00000
      5       4.6211      1.00000
      6       4.6798      1.00000
      7       7.5550     -0.00000
      8       7.5689     -0.00000
      9       7.7308     -0.00000
     10       7.7319     -0.00000
     11      11.3527      0.00000
     12      11.8065      0.00000
     13      14.6906      0.00000
     14      15.2393      0.00000
     15      18.6343      0.00000
     16      19.5321      0.00000

 k-point    53 :       0.3750    0.3750    0.3750
  band No.  band energies     occupation 
      1       3.4765      1.00000
      2       3.5838      1.00000
      3       3.9825      1.00000
      4       3.9825      1.00000
      5       4.2086      1.00000
      6       4.2086      1.00000
      7       7.6079     -0.00000
      8       7.6079     -0.00000
      9       7.6479     -0.00000
     10       7.6479     -0.00000
     11      10.7278     -0.00000
     12      13.8071      0.00000
     13      13.8071      0.00000
     14      16.2141      0.00000
     15      18.3421      0.00000
     16      18.3421      0.00000

 k-point    54 :       0.4583    0.3750    0.3750
  band No.  band energies     occupation 
      1       3.5725      1.00000
      2       3.5987      1.00000
      3       3.9726      1.00000
      4       4.0461      1.00000
      5       4.1395      1.00000
      6       4.2919      1.00000
      7       7.6117     -0.00000
      8       7.6300     -0.00000
      9       7.7046     -0.00000
     10       7.7174     -0.00000
     11      11.6051      0.00000
     12      12.6544      0.00000
     13      15.2214      0.00000
     14      16.6411      0.00000
     15      16.7361      0.00000
     16      17.5850      0.00000

 k-point    55 :       0.4583    0.4583    0.3750
  band No.  band energies     occupation 
      1       3.6459      1.00000
      2       3.6964      1.00000
      3       3.9045      1.00000
      4       3.9611      1.00000
      5       4.2468      1.00000
      6       4.3115      1.00000
      7       7.6695     -0.00000
      8       7.6765     -0.00000
      9       7.7357     -0.00000
     10       7.7405     -0.00000
     11      12.5156      0.00000
     12      13.1778      0.00000
     13      14.8507      0.00000
     14      15.6693      0.00000
     15      17.0628      0.00000
     16      17.8427      0.00000

 k-point    56 :       0.4583    0.4583    0.4583
  band No.  band energies     occupation 
      1       3.8156      1.00000
      2       3.9341      1.00000
      3       3.9341      1.00000
      4       4.0509      1.00000
      5       4.0643      1.00000
      6       4.0643      1.00000
      7       7.7419     -0.00000
      8       7.7419     -0.00000
      9       7.7440     -0.00000
     10       7.7440     -0.00000
     11      13.6630      0.00000
     12      14.6500      0.00000
     13      14.6500      0.00000
     14      16.2093      0.00000
     15      16.2093      0.00000
     16      16.2601      0.00000


--------------------------------------------------------------------------------------------------------


 soft charge-density along one line, spin component           1
         0         1         2         3         4         5         6         7         8         9
 total charge-density along one line
 
 soft charge-density along one line, spin component           2
         0         1         2         3         4         5         6         7         8         9
 total charge-density along one line
 
 pseudopotential strength for first ion, spin component:           1
 -5.621  -0.000   0.000  -0.000  -0.000  -6.151  -0.000   0.000
 -0.000  -5.621  -0.000  -0.000   0.000  -0.000  -6.151  -0.000
  0.000  -0.000  -5.790  -0.000   0.000   0.000  -0.000  -6.315
 -0.000  -0.000  -0.000  -5.621  -0.000  -0.000  -0.000  -0.000
 -0.000   0.000   0.000  -0.000  -5.790  -0.000   0.000   0.000
 -6.151  -0.000   0.000  -0.000  -0.000  -6.639  -0.000   0.000
 -0.000  -6.151  -0.000  -0.000   0.000  -0.000  -6.639  -0.000
  0.000  -0.000  -6.315  -0.000   0.000   0.000  -0.000  -6.798
 -0.000  -0.000  -0.000  -6.151  -0.000  -0.000  -0.000  -0.000
 -0.000   0.000   0.000  -0.000  -6.315  -0.000   0.000   0.000
  0.000   0.000  -0.000   0.000   0.000   0.000   0.000  -0.000
  0.000   0.000  -0.000   0.000   0.000   0.000   0.000  -0.000
  0.000  -0.000   0.000   0.000   0.000   0.000  -0.000   0.000
  0.000  -0.000  -0.000   0.000  -0.000   0.000  -0.000  -0.000
 -0.000   0.000  -0.000  -0.000   0.000  -0.000   0.000  -0.000
  0.000  -0.000   0.000   0.000   0.000   0.000  -0.000   0.000
  0.000  -0.000  -0.000   0.000  -0.000   0.000  -0.000  -0.000
 -0.000   0.000  -0.000  -0.000   0.000  -0.000   0.000  -0.000
 pseudopotential strength for first ion, spin component:           2
 -4.148  -0.000   0.000  -0.000  -0.000  -4.725  -0.000   0.000
 -0.000  -4.148  -0.000  -0.000   0.000  -0.000  -4.725  -0.000
  0.000  -0.000  -3.926  -0.000   0.000   0.000  -0.000  -4.507
 -0.000  -0.000  -0.000  -4.148  -0.000  -0.000  -0.000  -0.000
 -0.000   0.000   0.000  -0.000  -3.926  -0.000   0.000   0.000
 -4.725  -0.000   0.000  -0.000  -0.000  -5.258  -0.000   0.000
 -0.000  -4.725  -0.000  -0.000   0.000  -0.000  -5.258  -0.000
  0.000  -0.000  -4.507  -0.000   0.000   0.000  -0.000  -5.045
 -0.000  -0.000  -0.000  -4.725  -0.000  -0.000  -0.000  -0.000
 -0.000   0.000   0.000  -0.000  -4.507  -0.000   0.000   0.000
  0.000   0.000   0.000   0.000   0.000   0.000   0.000   0.000
 -0.000   0.000   0.000   0.000   0.000   0.000   0.000   0.000
  0.000  -0.000   0.000  -0.000   0.000   0.000  -0.000   0.000
 -0.000  -0.000  -0.000   0.000  -0.000  -0.000  -0.000  -0.000
 -0.000  -0.000  -0.000  -0.000   0.000  -0.000  -0.000  -0.000
  0.000  -0.000   0.000  -0.000   0.000   0.000  -0.000   0.000
 -0.000  -0.000  -0.000   0.000  -0.000  -0.000  -0.000  -0.000
 -0.000  -0.000  -0.000  -0.000   0.000  -0.000  -0.000  -0.000
 total augmentation occupancy for first ion, spin component:           1
  2.277   0.000  -0.000   0.000  -0.000  -1.274  -0.000   0.000  -0.000   0.000   0.000  -0.000   0.000   0.000   0.000  -0.000
  0.000   2.277   0.000   0.000  -0.000  -0.000  -1.274  -0.000  -0.000   0.000   0.000  -0.000   0.000   0.000   0.000  -0.000
 -0.000   0.000   3.588   0.000   0.000   0.000  -0.000  -2.324  -0.000   0.000  -0.000   0.000   0.000   0.000   0.000   0.000
  0.000   0.000   0.000   2.277   0.000  -0.000  -0.000  -0.000  -1.274  -0.000   0.000  -0.000   0.000   0.000   0.000   0.000
 -0.000  -0.000  -0.000   0.000   3.588   0.000   0.000   0.000  -0.000  -2.324   0.000   0.000   0.000   0.000  -0.000   0.000
 -1.274  -0.000   0.000  -0.000   0.000   1.664   0.000  -0.000   0.000  -0.000  -0.000  -0.000   0.000   0.000   0.000   0.000
 -0.000  -1.274  -0.000  -0.000   0.000   0.000   1.664   0.000   0.000  -0.000  -0.000   0.000   0.000   0.000   0.000   0.000
  0.000  -0.000  -2.324   0.000   0.000  -0.000   0.000   2.321   0.000  -0.000  -0.000  -0.000   0.000   0.000   0.000   0.000
 -0.000  -0.000   0.000  -1.274  -0.000   0.000   0.000   0.000   1.664   0.000  -0.000  -0.000   0.000   0.000   0.000  -0.000
  0.000   0.000   0.000  -0.000  -2.324  -0.000  -0.000   0.000   0.000   2.321  -0.000   0.000   0.000   0.000   0.000   0.000
  0.000   0.000  -0.000   0.000  -0.000  -0.000  -0.000  -0.000  -0.000  -0.000   2.418  -0.281   0.000   0.000   0.000   0.000
  0.000   0.000   0.000  -0.000   0.000  -0.000   0.000  -0.000  -0.000   0.000  -0.281   0.038   0.000   0.000   0.000   0.000
  0.000   0.000   0.000   0.000   0.000   0.000   0.000   0.000   0.000   0.000   0.000  -0.000   0.294   0.000   0.000  -0.025
  0.000   0.000   0.000   0.000   0.000   0.000   0.000   0.000   0.000   0.000   0.000   0.000   0.000   0.294   0.000  -0.000
  0.000   0.000   0.000   0.000   0.000   0.000   0.000   0.000   0.000   0.000   0.000   0.000   0.000   0.000   0.294  -0.000
  0.000   0.000   0.000   0.000   0.000   0.000   0.000   0.000  -0.000   0.000   0.000   0.000  -0.025  -0.000  -0.000   0.002
  0.000   0.000  -0.000   0.000  -0.000   0.000   0.000   0.000   0.000   0.000   0.000   0.000  -0.000  -0.025  -0.000   0.000
  0.000   0.000   0.000   0.000   0.000   0.000   0.000   0.000   0.000   0.000   0.000   0.000  -0.000  -0.000  -0.025   0.000
 total augmentation occupancy for first ion, spin component:           2
  1.895   0.000  -0.000   0.000  -0.000  -0.782  -0.000   0.000  -0.000   0.000  -0.000   0.000   0.000   0.000   0.000   0.000
  0.000   1.895   0.000   0.000  -0.000  -0.000  -0.782   0.000  -0.000   0.000  -0.000  -0.000   0.000   0.000   0.000   0.000
 -0.000   0.000   3.039   0.000  -0.000   0.000  -0.000  -1.347  -0.000   0.000   0.000  -0.000   0.000  -0.000   0.000   0.000
  0.000   0.000   0.000   1.895   0.000  -0.000  -0.000   0.000  -0.782  -0.000  -0.000  -0.000   0.000   0.000  -0.000   0.000
 -0.000  -0.000   0.000   0.000   3.039   0.000   0.000   0.000  -0.000  -1.347  -0.000   0.000   0.000   0.000   0.000   0.000
 -0.782  -0.000   0.000  -0.000   0.000   0.071   0.000  -0.000   0.000  -0.000  -0.000   0.000   0.000   0.000   0.000   0.000
 -0.000  -0.782   0.000  -0.000   0.000   0.000   0.071   0.000   0.000  -0.000   0.000   0.000   0.000   0.000   0.000   0.000
  0.000  -0.000  -1.347  -0.000  -0.000  -0.000  -0.000   0.365  -0.000  -0.000   0.000   0.000   0.000   0.000   0.000   0.000
 -0.000  -0.000  -0.000  -0.782  -0.000   0.000   0.000  -0.000   0.071   0.000   0.000   0.000   0.000   0.000   0.000   0.000
  0.000   0.000   0.000  -0.000  -1.347  -0.000  -0.000   0.000   0.000   0.365  -0.000   0.000   0.000   0.000   0.000   0.000
 -0.000   0.000   0.000   0.000   0.000  -0.000   0.000   0.000   0.000  -0.000  -0.333   0.100   0.000   0.000   0.000   0.000
  0.000  -0.000   0.000  -0.000  -0.000   0.000   0.000   0.000   0.000  -0.000   0.100  -0.018   0.000   0.000   0.000   0.000
  0.000   0.000   0.000   0.000   0.000   0.000   0.000   0.000   0.000   0.000   0.000   0.000  -0.038  -0.000  -0.000   0.006
  0.000   0.000  -0.000   0.000   0.000   0.000   0.000   0.000   0.000   0.000   0.000   0.000  -0.000  -0.038  -0.000   0.000
  0.000   0.000   0.000   0.000   0.000   0.000   0.000   0.000   0.000   0.000   0.000   0.000  -0.000  -0.000  -0.038   0.000
  0.000   0.000   0.000   0.000   0.000   0.000   0.000   0.000   0.000   0.000   0.000   0.000   0.006   0.000   0.000  -0.001
  0.000   0.000   0.000   0.000   0.000   0.000   0.000   0.000   0.000   0.000   0.000   0.000   0.000   0.006   0.000  -0.000
  0.000   0.000   0.000   0.000   0.000   0.000   0.000   0.000   0.000   0.000   0.000   0.000   0.000   0.000   0.006  -0.000


------------------------ aborting loop because EDIFF is reached ----------------------------------------


 


 total charge     
 
# of ion       s       p       d       tot
------------------------------------------
    1        0.487   0.541   6.239   7.267
    2        0.487   0.541   6.239   7.267
--------------------------------------------------
tot          0.973   1.083  12.478  14.534
 


 magnetization (x)
 
# of ion       s       p       d       tot
------------------------------------------
    1       -0.014  -0.058   2.258   2.186
    2       -0.014  -0.058   2.258   2.186
--------------------------------------------------
tot         -0.028  -0.115   4.516   4.373
 
    CHARGE:  cpu time    0.0300: real time    0.0301
    FORLOC:  cpu time    0.0000: real time    0.0002
    FORNL :  cpu time    0.0250: real time    0.0249
    STRESS:  cpu time    0.1850: real time    0.2297
    FORCOR:  cpu time    0.0090: real time    0.0096
    FORHAR:  cpu time    0.0010: real time    0.0011
    MIXING:  cpu time    0.0420: real time    0.0821
    OFIELD:  cpu time    0.0000: real time    0.0001

  FORCE on cell =-STRESS in cart. coord.  units (eV):
  Direction    XX          YY          ZZ          XY          YZ          ZX
  --------------------------------------------------------------------------------------
  Alpha Z   121.63354   121.63354   121.63354
  Ewald    -394.67012  -394.67012  -394.67012     0.00000     0.00000     0.00000
  Hartree    63.36840    63.36840    63.36840    -0.00000    -0.00000    -0.00000
  E(xc)     -79.44045   -79.44045   -79.44045    -0.00000    -0.00000    -0.00000
  Local     117.89654   117.89654   117.89654    -0.00000    -0.00000    -0.00000
  n-local   -54.80643   -51.73502   -49.09748     2.50729    -0.93311     0.77430
  augment    77.43399    77.43399    77.43399     0.00000     0.00000     0.00000
  Kinetic   148.03674   145.27840   143.49834     2.87500    -0.51954     0.07478
  Fock        0.00000     0.00000     0.00000     0.00000     0.00000     0.00000
  -------------------------------------------------------------------------------------
  Total      -0.05326    -0.05326    -0.05326    -0.00000     0.00000    -0.00000
  in kB      -3.75406    -3.75406    -3.75406    -0.00000     0.00000    -0.00000
  external pressure =       -3.75 kB  Pullay stress =        0.00 kB


 VOLUME and BASIS-vectors are now :
 -----------------------------------------------------------------------------
  energy-cutoff  :      500.00
  volume of cell :       22.73
      direct lattice vectors                 reciprocal lattice vectors
     2.832633757  0.000000000  0.000000000     0.353028342 -0.000000000  0.000000000
     0.000000000  2.832633757  0.000000000     0.000000000  0.353028342  0.000000000
     0.000000000  0.000000000  2.832633757    -0.000000000 -0.000000000  0.353028342

  length of vectors
     2.832633757  2.832633757  2.832633757     0.353028342  0.353028342  0.353028342


 FORCES acting on ions
    electron-ion (+dipol)            ewald-force                    non-local-force                 convergence-correction
 -----------------------------------------------------------------------------------------------
   -.123E-14 -.164E-13 -.163E-13   -.829E-14 -.421E-15 -.160E-14   0.185E-25 0.000E+00 0.000E+00   -.121E-13 0.784E-14 0.205E-14
   0.162E-12 0.209E-12 -.114E-11   0.743E-14 0.131E-14 0.947E-15   -.596E-25 0.000E+00 0.000E+00   0.140E-13 0.356E-14 0.815E-14
 -----------------------------------------------------------------------------------------------
   0.160E-12 0.193E-12 -.116E-11   -.860E-15 0.884E-15 -.652E-15   -.411E-25 0.000E+00 0.000E+00   0.190E-14 0.114E-13 0.102E-13
 
 
 POSITION                                       TOTAL-FORCE (eV/Angst)
 -----------------------------------------------------------------------------------
      0.00000      0.00000      0.00000         0.000000      0.000000      0.000000
      1.41632      1.41632      1.41632        -0.000000     -0.000000     -0.000000
 -----------------------------------------------------------------------------------
    total drift:                                0.000000      0.000000     -0.000000


--------------------------------------------------------------------------------------------------------



  FREE ENERGIE OF THE ION-ELECTRON SYSTEM (eV)
  ---------------------------------------------------
  free  energy   TOTEN  =       -16.47391435 eV

  energy  without entropy=      -16.47343001  energy(sigma->0) =      -16.47375291
 


--------------------------------------------------------------------------------------------------------


    POTLOK:  cpu time    0.0170: real time    0.0200


--------------------------------------------------------------------------------------------------------


 writing wavefunctions
     LOOP+:  cpu time    8.7857: real time   11.7229
    4ORBIT:  cpu time    0.0000: real time    0.0000
 


 total charge     
 
# of ion       s       p       d       tot
------------------------------------------
    1        0.487   0.541   6.239   7.267
    2        0.487   0.541   6.239   7.267
--------------------------------------------------
tot          0.973   1.083  12.478  14.534
 


 magnetization (x)
 
# of ion       s       p       d       tot
------------------------------------------
    1       -0.014  -0.058   2.258   2.186
    2       -0.014  -0.058   2.258   2.186
--------------------------------------------------
tot         -0.028  -0.115   4.516   4.373
 

 total amount of memory used by VASP MPI-rank0    38101. kBytes
=======================================================================

   base      :      30000. kBytes
   nonl-proj :       4922. kBytes
   fftplans  :        304. kBytes
   grid      :       1638. kBytes
   one-center:         62. kBytes
   wavefun   :       1175. kBytes
 
  
  
 General timing and accounting informations for this job:
 ========================================================
  
                  Total CPU time used (sec):       10.744
                            User time (sec):       10.034
                          System time (sec):        0.710
                         Elapsed time (sec):       19.510
  
                   Maximum memory used (kb):       53448.
                   Average memory used (kb):           0.
  
                          Minor page faults:         8336
                          Major page faults:           30
                 Voluntary context switches:       205132
