PROCAR lm decomposed
# of k-points:   56         # of bands:   16         # of ions:    2

 k-point     1 :    0.04166667 0.04166667 0.04166667     weight = 0.00462963

band     1 # energy   -2.49847703 # occ.  1.00000000
 
ion      s     py     pz     px    dxy    dyz    dz2    dxz  x2-y2    tot
    1  0.362  0.001  0.001  0.001  0.000  0.000  0.000  0.000  0.000  0.366
    2  0.362  0.001  0.001  0.001  0.000  0.000  0.000  0.000  0.000  0.366
tot    0.723  0.003  0.003  0.003  0.000  0.000  0.000  0.000  0.000  0.731
 
band     2 # energy    1.03640580 # occ.  1.00000000
 
ion      s     py     pz     px    dxy    dyz    dz2    dxz  x2-y2    tot
    1  0.000  0.000  0.001  0.000  0.000  0.000  0.432  0.000  0.005  0.438
    2  0.000  0.000  0.001  0.000  0.000  0.000  0.432  0.000  0.005  0.438
tot    0.000  0.001  0.002  0.000  0.000  0.000  0.864  0.000  0.010  0.877
 
band     3 # energy    1.03640580 # occ.  1.00000000
 
ion      s     py     pz     px    dxy    dyz    dz2    dxz  x2-y2    tot
    1  0.000  0.001  0.000  0.001  0.000  0.000  0.005  0.000  0.432  0.438
    2  0.000  0.001  0.000  0.001  0.000  0.000  0.005  0.000  0.432  0.438
tot    0.000  0.001  0.000  0.002  0.000  0.000  0.010  0.000  0.864  0.877
 
band     4 # energy    3.47315401 # occ.  1.00000000
 
ion      s     py     pz     px    dxy    dyz    dz2    dxz  x2-y2    tot
    1  0.000  0.000  0.000  0.000  0.307  0.029  0.000  0.153  0.000  0.489
    2  0.000  0.000  0.000  0.000  0.307  0.029  0.000  0.153  0.000  0.489
tot    0.000  0.000  0.000  0.000  0.614  0.057  0.000  0.305  0.000  0.977
 
band     5 # energy    3.47315401 # occ.  1.00000000
 
ion      s     py     pz     px    dxy    dyz    dz2    dxz  x2-y2    tot
    1  0.000  0.000  0.000  0.000  0.019  0.297  0.000  0.173  0.000  0.489
    2  0.000  0.000  0.000  0.000  0.019  0.297  0.000  0.173  0.000  0.489
tot    0.000  0.000  0.000  0.000  0.037  0.594  0.000  0.346  0.000  0.977
 
band     6 # energy    3.56155040 # occ.  1.00000000
 
ion      s     py     pz     px    dxy    dyz    dz2    dxz  x2-y2    tot
    1  0.000  0.000  0.000  0.000  0.163  0.163  0.000  0.163  0.000  0.489
    2  0.000  0.000  0.000  0.000  0.163  0.163  0.000  0.163  0.000  0.489
tot    0.000  0.000  0.000  0.000  0.326  0.326  0.000  0.326  0.000  0.978
 
band     7 # energy    4.73651968 # occ.  1.00000000
 
ion      s     py     pz     px    dxy    dyz    dz2    dxz  x2-y2    tot
    1  0.000  0.000  0.000  0.000  0.000  0.000  0.473  0.000  0.012  0.485
    2  0.000  0.000  0.000  0.000  0.000  0.000  0.473  0.000  0.012  0.485
tot    0.000  0.000  0.000  0.000  0.000  0.000  0.946  0.000  0.024  0.970
 
band     8 # energy    4.73651968 # occ.  1.00000000
 
ion      s     py     pz     px    dxy    dyz    dz2    dxz  x2-y2    tot
    1  0.000  0.000  0.000  0.000  0.000  0.000  0.012  0.000  0.473  0.485
    2  0.000  0.000  0.000  0.000  0.000  0.000  0.012  0.000  0.473  0.485
tot    0.000  0.000  0.000  0.000  0.000  0.000  0.024  0.000  0.946  0.970
 
band     9 # energy    5.74281539 # occ.  0.69289991
 
ion      s     py     pz     px    dxy    dyz    dz2    dxz  x2-y2    tot
    1  0.000  0.001  0.001  0.001  0.163  0.163  0.000  0.163  0.000  0.492
    2  0.000  0.001  0.001  0.001  0.163  0.163  0.000  0.163  0.000  0.492
tot    0.000  0.002  0.002  0.002  0.326  0.326  0.000  0.326  0.000  0.983
 
band    10 # energy    5.87829465 # occ.  0.16314878
 
ion      s     py     pz     px    dxy    dyz    dz2    dxz  x2-y2    tot
    1  0.000  0.000  0.001  0.000  0.306  0.034  0.000  0.153  0.000  0.494
    2  0.000  0.000  0.001  0.000  0.306  0.034  0.000  0.153  0.000  0.494
tot    0.000  0.001  0.001  0.000  0.611  0.068  0.000  0.306  0.000  0.987
 
band    11 # energy    5.87829465 # occ.  0.16314878
 
ion      s     py     pz     px    dxy    dyz    dz2    dxz  x2-y2    tot
    1  0.000  0.000  0.000  0.001  0.023  0.295  0.000  0.175  0.000  0.494
    2  0.000  0.000  0.000  0.001  0.023  0.295  0.000  0.175  0.000  0.494
tot    0.000  0.001  0.000  0.001  0.046  0.589  0.000  0.351  0.000  0.987
 
band    12 # energy   15.55014295 # occ.  0.00000000
 
ion      s     py     pz     px    dxy    dyz    dz2    dxz  x2-y2    tot
    1  0.000  0.099  0.028  0.232  0.000  0.002  0.002  0.001  0.018  0.383
    2  0.000  0.099  0.028  0.232  0.000  0.002  0.002  0.001  0.018  0.383
tot    0.000  0.198  0.056  0.465  0.000  0.003  0.005  0.001  0.037  0.766
 
band    13 # energy   15.55014295 # occ.  0.00000000
 
ion      s     py     pz     px    dxy    dyz    dz2    dxz  x2-y2    tot
    1  0.000  0.141  0.212  0.007  0.002  0.000  0.018  0.001  0.002  0.383
    2  0.000  0.141  0.212  0.007  0.002  0.000  0.018  0.001  0.002  0.383
tot    0.000  0.281  0.423  0.015  0.003  0.000  0.037  0.002  0.005  0.766
 
band    14 # energy   15.73416662 # occ.  0.00000000
 
ion      s     py     pz     px    dxy    dyz    dz2    dxz  x2-y2    tot
    1  0.022  0.116  0.116  0.116  0.004  0.004  0.000  0.004  0.000  0.379
    2  0.022  0.116  0.116  0.116  0.004  0.004  0.000  0.004  0.000  0.379
tot    0.043  0.231  0.231  0.231  0.007  0.007  0.000  0.007  0.000  0.757
 
band    15 # energy   21.83951194 # occ.  0.00000000
 
ion      s     py     pz     px    dxy    dyz    dz2    dxz  x2-y2    tot
    1  0.000  0.006  0.000  0.006  0.000  0.000  0.001  0.000  0.450  0.463
    2  0.000  0.006  0.000  0.006  0.000  0.000  0.001  0.000  0.450  0.463
tot    0.000  0.013  0.000  0.012  0.000  0.000  0.001  0.000  0.900  0.927
 
band    16 # energy   21.83951194 # occ.  0.00000000
 
ion      s     py     pz     px    dxy    dyz    dz2    dxz  x2-y2    tot
    1  0.000  0.002  0.008  0.002  0.000  0.000  0.450  0.000  0.001  0.463
    2  0.000  0.002  0.008  0.002  0.000  0.000  0.450  0.000  0.001  0.463
tot    0.000  0.004  0.017  0.005  0.000  0.000  0.900  0.000  0.001  0.927
 

 k-point     2 :    0.12500000 0.04166667 0.04166667     weight = 0.01388889

band     1 # energy   -2.21430745 # occ.  1.00000000
 
ion      s     py     pz     px    dxy    dyz    dz2    dxz  x2-y2    tot
    1  0.352  0.001  0.001  0.011  0.000  0.000  0.000  0.000  0.000  0.366
    2  0.352  0.001  0.001  0.011  0.000  0.000  0.000  0.000  0.000  0.366
tot    0.703  0.002  0.002  0.023  0.000  0.000  0.000  0.000  0.000  0.732
 
band     2 # energy    1.15620356 # occ.  1.00000000
 
ion      s     py     pz     px    dxy    dyz    dz2    dxz  x2-y2    tot
    1  0.000  0.001  0.001  0.000  0.000  0.000  0.328  0.000  0.109  0.439
    2  0.000  0.001  0.001  0.000  0.000  0.000  0.328  0.000  0.109  0.439
tot    0.000  0.001  0.001  0.000  0.000  0.000  0.656  0.000  0.219  0.878
 
band     3 # energy    1.15967304 # occ.  1.00000000
 
ion      s     py     pz     px    dxy    dyz    dz2    dxz  x2-y2    tot
    1  0.000  0.000  0.000  0.008  0.000  0.000  0.107  0.000  0.321  0.438
    2  0.000  0.000  0.000  0.008  0.000  0.000  0.107  0.000  0.321  0.438
tot    0.001  0.000  0.000  0.017  0.000  0.000  0.214  0.000  0.643  0.875
 
band     4 # energy    3.43087283 # occ.  1.00000000
 
ion      s     py     pz     px    dxy    dyz    dz2    dxz  x2-y2    tot
    1  0.000  0.000  0.000  0.000  0.145  0.196  0.000  0.145  0.000  0.488
    2  0.000  0.000  0.000  0.000  0.145  0.196  0.000  0.145  0.000  0.488
tot    0.000  0.000  0.000  0.000  0.291  0.392  0.000  0.291  0.001  0.975
 
band     5 # energy    3.46760438 # occ.  1.00000000
 
ion      s     py     pz     px    dxy    dyz    dz2    dxz  x2-y2    tot
    1  0.000  0.001  0.001  0.000  0.242  0.000  0.002  0.242  0.001  0.487
    2  0.000  0.001  0.001  0.000  0.242  0.000  0.002  0.242  0.001  0.487
tot    0.000  0.001  0.001  0.000  0.484  0.000  0.004  0.484  0.001  0.975
 
band     6 # energy    3.68083833 # occ.  1.00000000
 
ion      s     py     pz     px    dxy    dyz    dz2    dxz  x2-y2    tot
    1  0.000  0.001  0.001  0.000  0.098  0.292  0.000  0.098  0.000  0.489
    2  0.000  0.001  0.001  0.000  0.098  0.292  0.000  0.098  0.000  0.489
tot    0.000  0.001  0.001  0.000  0.195  0.584  0.000  0.195  0.000  0.977
 
band     7 # energy    4.61658467 # occ.  1.00000000
 
ion      s     py     pz     px    dxy    dyz    dz2    dxz  x2-y2    tot
    1  0.000  0.000  0.000  0.000  0.001  0.000  0.360  0.001  0.120  0.483
    2  0.000  0.000  0.000  0.000  0.001  0.000  0.360  0.001  0.120  0.483
tot    0.000  0.000  0.000  0.000  0.003  0.000  0.720  0.003  0.240  0.965
 
band     8 # energy    4.78896500 # occ.  1.00000000
 
ion      s     py     pz     px    dxy    dyz    dz2    dxz  x2-y2    tot
    1  0.000  0.000  0.000  0.000  0.000  0.000  0.121  0.000  0.364  0.486
    2  0.000  0.000  0.000  0.000  0.000  0.000  0.121  0.000  0.364  0.486
tot    0.000  0.000  0.000  0.000  0.001  0.000  0.243  0.001  0.728  0.972
 
band     9 # energy    5.45714414 # occ.  1.02017113
 
ion      s     py     pz     px    dxy    dyz    dz2    dxz  x2-y2    tot
    1  0.001  0.003  0.003  0.001  0.175  0.129  0.000  0.175  0.000  0.488
    2  0.001  0.003  0.003  0.001  0.175  0.129  0.000  0.175  0.000  0.488
tot    0.001  0.007  0.007  0.002  0.350  0.259  0.000  0.350  0.000  0.976
 
band    10 # energy    5.65083892 # occ.  0.95806778
 
ion      s     py     pz     px    dxy    dyz    dz2    dxz  x2-y2    tot
    1  0.000  0.003  0.003  0.000  0.242  0.000  0.000  0.242  0.000  0.490
    2  0.000  0.003  0.003  0.000  0.242  0.000  0.000  0.242  0.000  0.490
tot    0.000  0.006  0.006  0.000  0.483  0.000  0.001  0.483  0.000  0.980
 
band    11 # energy    5.86371618 # occ.  0.20969617
 
ion      s     py     pz     px    dxy    dyz    dz2    dxz  x2-y2    tot
    1  0.000  0.000  0.000  0.000  0.066  0.362  0.000  0.066  0.000  0.493
    2  0.000  0.000  0.000  0.000  0.066  0.362  0.000  0.066  0.000  0.493
tot    0.000  0.000  0.000  0.001  0.131  0.723  0.000  0.131  0.000  0.987
 
band    12 # energy   13.92027510 # occ.  0.00000000
 
ion      s     py     pz     px    dxy    dyz    dz2    dxz  x2-y2    tot
    1  0.037  0.003  0.003  0.288  0.002  0.000  0.016  0.002  0.049  0.398
    2  0.037  0.003  0.003  0.288  0.002  0.000  0.016  0.002  0.049  0.398
tot    0.074  0.005  0.005  0.575  0.003  0.000  0.032  0.003  0.097  0.796
 
band    13 # energy   16.06127292 # occ.  0.00000000
 
ion      s     py     pz     px    dxy    dyz    dz2    dxz  x2-y2    tot
    1  0.000  0.173  0.173  0.000  0.011  0.000  0.017  0.011  0.006  0.391
    2  0.000  0.173  0.173  0.000  0.011  0.000  0.017  0.011  0.006  0.391
tot    0.000  0.346  0.346  0.000  0.022  0.000  0.034  0.022  0.011  0.782
 
band    14 # energy   16.20184388 # occ.  0.00000000
 
ion      s     py     pz     px    dxy    dyz    dz2    dxz  x2-y2    tot
    1  0.021  0.167  0.167  0.001  0.012  0.005  0.001  0.012  0.002  0.387
    2  0.021  0.167  0.167  0.001  0.012  0.005  0.001  0.012  0.002  0.387
tot    0.042  0.334  0.334  0.002  0.023  0.009  0.001  0.023  0.004  0.773
 
band    15 # energy   21.94405918 # occ.  0.00000000
 
ion      s     py     pz     px    dxy    dyz    dz2    dxz  x2-y2    tot
    1  0.000  0.007  0.007  0.000  0.000  0.000  0.331  0.000  0.110  0.457
    2  0.000  0.007  0.007  0.000  0.000  0.000  0.331  0.000  0.110  0.457
tot    0.000  0.014  0.014  0.000  0.001  0.000  0.663  0.001  0.221  0.914
 
band    16 # energy   22.97572541 # occ.  0.00000000
 
ion      s     py     pz     px    dxy    dyz    dz2    dxz  x2-y2    tot
    1  0.027  0.004  0.004  0.015  0.000  0.000  0.095  0.000  0.285  0.431
    2  0.027  0.004  0.004  0.015  0.000  0.000  0.095  0.000  0.285  0.431
tot    0.055  0.008  0.008  0.029  0.000  0.000  0.190  0.000  0.570  0.862
 

 k-point     3 :    0.20833333 0.04166667 0.04166667     weight = 0.01388889

band     1 # energy   -1.66536675 # occ.  1.00000000
 
ion      s     py     pz     px    dxy    dyz    dz2    dxz  x2-y2    tot
    1  0.331  0.001  0.001  0.030  0.000  0.000  0.001  0.000  0.002  0.367
    2  0.331  0.001  0.001  0.030  0.000  0.000  0.001  0.000  0.002  0.367
tot    0.661  0.002  0.002  0.061  0.001  0.000  0.001  0.001  0.004  0.733
 
band     2 # energy    1.36792573 # occ.  1.00000000
 
ion      s     py     pz     px    dxy    dyz    dz2    dxz  x2-y2    tot
    1  0.003  0.000  0.000  0.023  0.000  0.000  0.102  0.000  0.307  0.436
    2  0.003  0.000  0.000  0.023  0.000  0.000  0.102  0.000  0.307  0.436
tot    0.006  0.000  0.000  0.046  0.001  0.000  0.204  0.001  0.613  0.872
 
band     3 # energy    1.38877325 # occ.  1.00000000
 
ion      s     py     pz     px    dxy    dyz    dz2    dxz  x2-y2    tot
    1  0.000  0.001  0.001  0.000  0.000  0.000  0.328  0.000  0.109  0.440
    2  0.000  0.001  0.001  0.000  0.000  0.000  0.328  0.000  0.109  0.440
tot    0.000  0.001  0.001  0.000  0.001  0.000  0.657  0.001  0.219  0.881
 
band     4 # energy    3.41977302 # occ.  1.00000000
 
ion      s     py     pz     px    dxy    dyz    dz2    dxz  x2-y2    tot
    1  0.000  0.001  0.001  0.000  0.172  0.139  0.000  0.172  0.000  0.486
    2  0.000  0.001  0.001  0.000  0.172  0.139  0.000  0.172  0.000  0.486
tot    0.000  0.002  0.002  0.001  0.344  0.278  0.000  0.344  0.001  0.972
 
band     5 # energy    3.46526775 # occ.  1.00000000
 
ion      s     py     pz     px    dxy    dyz    dz2    dxz  x2-y2    tot
    1  0.000  0.002  0.002  0.000  0.236  0.000  0.008  0.236  0.003  0.485
    2  0.000  0.002  0.002  0.000  0.236  0.000  0.008  0.236  0.003  0.485
tot    0.000  0.003  0.003  0.000  0.472  0.000  0.015  0.472  0.005  0.970
 
band     6 # energy    3.85514256 # occ.  1.00000000
 
ion      s     py     pz     px    dxy    dyz    dz2    dxz  x2-y2    tot
    1  0.000  0.001  0.001  0.000  0.069  0.349  0.000  0.069  0.000  0.488
    2  0.000  0.001  0.001  0.000  0.069  0.349  0.000  0.069  0.000  0.488
tot    0.000  0.002  0.002  0.000  0.137  0.698  0.000  0.137  0.000  0.976
 
band     7 # energy    4.38726109 # occ.  1.00000000
 
ion      s     py     pz     px    dxy    dyz    dz2    dxz  x2-y2    tot
    1  0.000  0.000  0.000  0.000  0.005  0.000  0.351  0.005  0.117  0.478
    2  0.000  0.000  0.000  0.000  0.005  0.000  0.351  0.005  0.117  0.478
tot    0.000  0.000  0.000  0.000  0.011  0.000  0.701  0.011  0.234  0.957
 
band     8 # energy    4.88788945 # occ.  1.00000000
 
ion      s     py     pz     px    dxy    dyz    dz2    dxz  x2-y2    tot
    1  0.002  0.000  0.000  0.000  0.000  0.000  0.121  0.000  0.364  0.488
    2  0.002  0.000  0.000  0.000  0.000  0.000  0.121  0.000  0.364  0.488
tot    0.003  0.000  0.000  0.001  0.001  0.000  0.243  0.001  0.728  0.976
 
band     9 # energy    5.06414328 # occ.  1.00000182
 
ion      s     py     pz     px    dxy    dyz    dz2    dxz  x2-y2    tot
    1  0.001  0.006  0.006  0.001  0.187  0.096  0.000  0.187  0.001  0.484
    2  0.001  0.006  0.006  0.001  0.187  0.096  0.000  0.187  0.001  0.484
tot    0.002  0.012  0.012  0.001  0.373  0.191  0.000  0.373  0.001  0.967
 
band    10 # energy    5.27426940 # occ.  1.00081259
 
ion      s     py     pz     px    dxy    dyz    dz2    dxz  x2-y2    tot
    1  0.000  0.006  0.006  0.000  0.236  0.000  0.001  0.236  0.000  0.486
    2  0.000  0.006  0.006  0.000  0.236  0.000  0.001  0.236  0.000  0.486
tot    0.000  0.013  0.013  0.000  0.471  0.000  0.002  0.471  0.001  0.971
 
band    11 # energy    5.73580561 # occ.  0.71954236
 
ion      s     py     pz     px    dxy    dyz    dz2    dxz  x2-y2    tot
    1  0.000  0.000  0.000  0.000  0.048  0.395  0.000  0.048  0.000  0.492
    2  0.000  0.000  0.000  0.000  0.048  0.395  0.000  0.048  0.000  0.492
tot    0.000  0.001  0.001  0.001  0.096  0.789  0.000  0.096  0.001  0.984
 
band    12 # energy   11.81207132 # occ.  0.00000000
 
ion      s     py     pz     px    dxy    dyz    dz2    dxz  x2-y2    tot
    1  0.073  0.002  0.002  0.233  0.002  0.000  0.024  0.002  0.073  0.410
    2  0.073  0.002  0.002  0.233  0.002  0.000  0.024  0.002  0.073  0.410
tot    0.147  0.004  0.004  0.465  0.004  0.000  0.048  0.004  0.145  0.820
 
band    13 # energy   16.99553726 # occ.  0.00000000
 
ion      s     py     pz     px    dxy    dyz    dz2    dxz  x2-y2    tot
    1  0.000  0.162  0.162  0.000  0.027  0.000  0.021  0.027  0.007  0.405
    2  0.000  0.162  0.162  0.000  0.027  0.000  0.021  0.027  0.007  0.405
tot    0.000  0.323  0.323  0.000  0.053  0.000  0.043  0.053  0.014  0.810
 
band    14 # energy   17.13217036 # occ.  0.00000000
 
ion      s     py     pz     px    dxy    dyz    dz2    dxz  x2-y2    tot
    1  0.022  0.158  0.158  0.000  0.027  0.004  0.001  0.027  0.003  0.399
    2  0.022  0.158  0.158  0.000  0.027  0.004  0.001  0.027  0.003  0.399
tot    0.044  0.316  0.316  0.000  0.054  0.007  0.002  0.054  0.005  0.798
 
band    15 # energy   22.16593293 # occ.  0.00000000
 
ion      s     py     pz     px    dxy    dyz    dz2    dxz  x2-y2    tot
    1  0.000  0.009  0.009  0.000  0.002  0.000  0.318  0.002  0.106  0.445
    2  0.000  0.009  0.009  0.000  0.002  0.000  0.318  0.002  0.106  0.445
tot    0.000  0.018  0.018  0.000  0.003  0.000  0.636  0.003  0.212  0.890
 
band    16 # energy   23.85983507 # occ.  0.00000000
 
ion      s     py     pz     px    dxy    dyz    dz2    dxz  x2-y2    tot
    1  0.093  0.008  0.008  0.000  0.000  0.000  0.069  0.000  0.207  0.386
    2  0.093  0.008  0.008  0.000  0.000  0.000  0.069  0.000  0.207  0.386
tot    0.187  0.016  0.016  0.000  0.001  0.000  0.138  0.001  0.414  0.772
 

 k-point     4 :    0.29166667 0.04166667 0.04166667     weight = 0.01388889

band     1 # energy   -0.89708341 # occ.  1.00000000
 
ion      s     py     pz     px    dxy    dyz    dz2    dxz  x2-y2    tot
    1  0.297  0.001  0.001  0.056  0.001  0.000  0.003  0.001  0.008  0.368
    2  0.297  0.001  0.001  0.056  0.001  0.000  0.003  0.001  0.008  0.368
tot    0.594  0.002  0.002  0.112  0.002  0.000  0.006  0.002  0.017  0.737
 
band     2 # energy    1.58023911 # occ.  1.00000000
 
ion      s     py     pz     px    dxy    dyz    dz2    dxz  x2-y2    tot
    1  0.014  0.000  0.000  0.044  0.001  0.000  0.093  0.001  0.279  0.431
    2  0.014  0.000  0.000  0.044  0.001  0.000  0.093  0.001  0.279  0.431
tot    0.027  0.000  0.000  0.088  0.002  0.000  0.186  0.002  0.557  0.862
 
band     3 # energy    1.71990825 # occ.  1.00000000
 
ion      s     py     pz     px    dxy    dyz    dz2    dxz  x2-y2    tot
    1  0.000  0.001  0.001  0.000  0.001  0.000  0.329  0.001  0.110  0.443
    2  0.000  0.001  0.001  0.000  0.001  0.000  0.329  0.001  0.110  0.443
tot    0.000  0.001  0.001  0.000  0.002  0.000  0.658  0.002  0.219  0.885
 
band     4 # energy    3.45429621 # occ.  1.00000000
 
ion      s     py     pz     px    dxy    dyz    dz2    dxz  x2-y2    tot
    1  0.000  0.002  0.002  0.001  0.186  0.107  0.000  0.186  0.000  0.484
    2  0.000  0.002  0.002  0.001  0.186  0.107  0.000  0.186  0.000  0.484
tot    0.001  0.004  0.004  0.002  0.371  0.213  0.000  0.371  0.000  0.967
 
band     5 # energy    3.47019109 # occ.  1.00000000
 
ion      s     py     pz     px    dxy    dyz    dz2    dxz  x2-y2    tot
    1  0.000  0.003  0.003  0.000  0.215  0.000  0.033  0.215  0.011  0.481
    2  0.000  0.003  0.003  0.000  0.215  0.000  0.033  0.215  0.011  0.481
tot    0.000  0.006  0.006  0.000  0.430  0.000  0.067  0.430  0.022  0.962
 
band     6 # energy    4.08012790 # occ.  1.00000000
 
ion      s     py     pz     px    dxy    dyz    dz2    dxz  x2-y2    tot
    1  0.000  0.000  0.000  0.000  0.024  0.000  0.320  0.024  0.107  0.474
    2  0.000  0.000  0.000  0.000  0.024  0.000  0.320  0.024  0.107  0.474
tot    0.000  0.000  0.000  0.000  0.047  0.000  0.640  0.047  0.213  0.948
 
band     7 # energy    4.08287120 # occ.  1.00000000
 
ion      s     py     pz     px    dxy    dyz    dz2    dxz  x2-y2    tot
    1  0.000  0.001  0.001  0.000  0.052  0.381  0.000  0.052  0.000  0.487
    2  0.000  0.001  0.001  0.000  0.052  0.381  0.000  0.052  0.000  0.487
tot    0.000  0.002  0.002  0.000  0.104  0.761  0.000  0.104  0.000  0.974
 
band     8 # energy    4.64068439 # occ.  1.00000000
 
ion      s     py     pz     px    dxy    dyz    dz2    dxz  x2-y2    tot
    1  0.002  0.007  0.007  0.000  0.192  0.077  0.001  0.192  0.002  0.481
    2  0.002  0.007  0.007  0.000  0.192  0.077  0.001  0.192  0.002  0.481
tot    0.003  0.015  0.015  0.001  0.384  0.154  0.001  0.384  0.004  0.961
 
band     9 # energy    4.84656642 # occ.  1.00000000
 
ion      s     py     pz     px    dxy    dyz    dz2    dxz  x2-y2    tot
    1  0.000  0.008  0.008  0.000  0.231  0.000  0.002  0.231  0.001  0.482
    2  0.000  0.008  0.008  0.000  0.231  0.000  0.002  0.231  0.001  0.482
tot    0.000  0.017  0.017  0.000  0.462  0.000  0.005  0.462  0.002  0.964
 
band    10 # energy    5.03395959 # occ.  1.00000062
 
ion      s     py     pz     px    dxy    dyz    dz2    dxz  x2-y2    tot
    1  0.007  0.000  0.000  0.001  0.000  0.000  0.120  0.000  0.360  0.489
    2  0.007  0.000  0.000  0.001  0.000  0.000  0.120  0.000  0.360  0.489
tot    0.014  0.000  0.000  0.003  0.000  0.000  0.240  0.000  0.720  0.978
 
band    11 # energy    5.52526288 # occ.  1.03416714
 
ion      s     py     pz     px    dxy    dyz    dz2    dxz  x2-y2    tot
    1  0.000  0.001  0.001  0.000  0.038  0.412  0.000  0.038  0.001  0.491
    2  0.000  0.001  0.001  0.000  0.038  0.412  0.000  0.038  0.001  0.491
tot    0.001  0.001  0.001  0.000  0.076  0.825  0.000  0.076  0.001  0.981
 
band    12 # energy    9.75547546 # occ. -0.00000000
 
ion      s     py     pz     px    dxy    dyz    dz2    dxz  x2-y2    tot
    1  0.101  0.002  0.002  0.180  0.002  0.000  0.033  0.002  0.100  0.421
    2  0.101  0.002  0.002  0.180  0.002  0.000  0.033  0.002  0.100  0.421
tot    0.202  0.003  0.003  0.360  0.004  0.000  0.066  0.004  0.199  0.842
 
band    13 # energy   18.23248787 # occ.  0.00000000
 
ion      s     py     pz     px    dxy    dyz    dz2    dxz  x2-y2    tot
    1  0.000  0.147  0.147  0.000  0.044  0.000  0.030  0.044  0.010  0.421
    2  0.000  0.147  0.147  0.000  0.044  0.000  0.030  0.044  0.010  0.421
tot    0.000  0.293  0.293  0.000  0.087  0.000  0.060  0.087  0.020  0.841
 
band    14 # energy   18.38485774 # occ.  0.00000000
 
ion      s     py     pz     px    dxy    dyz    dz2    dxz  x2-y2    tot
    1  0.024  0.145  0.145  0.001  0.045  0.003  0.001  0.045  0.003  0.413
    2  0.024  0.145  0.145  0.001  0.045  0.003  0.001  0.045  0.003  0.413
tot    0.048  0.290  0.290  0.003  0.091  0.005  0.002  0.091  0.006  0.826
 
band    15 # energy   22.53352091 # occ.  0.00000000
 
ion      s     py     pz     px    dxy    dyz    dz2    dxz  x2-y2    tot
    1  0.000  0.013  0.013  0.000  0.005  0.000  0.295  0.005  0.098  0.428
    2  0.000  0.013  0.013  0.000  0.005  0.000  0.295  0.005  0.098  0.428
tot    0.000  0.026  0.026  0.000  0.009  0.000  0.590  0.009  0.197  0.856
 
band    16 # energy   24.42637554 # occ.  0.00000000
 
ion      s     py     pz     px    dxy    dyz    dz2    dxz  x2-y2    tot
    1  0.127  0.012  0.012  0.010  0.001  0.000  0.045  0.001  0.135  0.342
    2  0.127  0.012  0.012  0.010  0.001  0.000  0.045  0.001  0.135  0.342
tot    0.253  0.023  0.023  0.019  0.003  0.000  0.090  0.003  0.270  0.685
 

 k-point     5 :    0.37500000 0.04166667 0.04166667     weight = 0.01388889

band     1 # energy    0.00059351 # occ.  1.00000000
 
ion      s     py     pz     px    dxy    dyz    dz2    dxz  x2-y2    tot
    1  0.247  0.001  0.001  0.083  0.002  0.000  0.009  0.002  0.028  0.373
    2  0.247  0.001  0.001  0.083  0.002  0.000  0.009  0.002  0.028  0.373
tot    0.495  0.002  0.002  0.165  0.004  0.000  0.019  0.004  0.056  0.746
 
band     2 # energy    1.66569824 # occ.  1.00000000
 
ion      s     py     pz     px    dxy    dyz    dz2    dxz  x2-y2    tot
    1  0.042  0.000  0.000  0.070  0.002  0.000  0.076  0.002  0.228  0.420
    2  0.042  0.000  0.000  0.070  0.002  0.000  0.076  0.002  0.228  0.420
tot    0.084  0.000  0.000  0.139  0.005  0.000  0.152  0.005  0.456  0.841
 
band     3 # energy    2.12788824 # occ.  1.00000000
 
ion      s     py     pz     px    dxy    dyz    dz2    dxz  x2-y2    tot
    1  0.000  0.001  0.001  0.000  0.003  0.000  0.329  0.003  0.110  0.446
    2  0.000  0.001  0.001  0.000  0.003  0.000  0.329  0.003  0.110  0.446
tot    0.000  0.001  0.001  0.000  0.005  0.000  0.659  0.005  0.220  0.892
 
band     4 # energy    3.39264075 # occ.  1.00000000
 
ion      s     py     pz     px    dxy    dyz    dz2    dxz  x2-y2    tot
    1  0.000  0.003  0.003  0.000  0.108  0.000  0.186  0.108  0.062  0.469
    2  0.000  0.003  0.003  0.000  0.108  0.000  0.186  0.108  0.062  0.469
tot    0.000  0.006  0.006  0.000  0.216  0.000  0.371  0.216  0.124  0.938
 
band     5 # energy    3.55109179 # occ.  1.00000000
 
ion      s     py     pz     px    dxy    dyz    dz2    dxz  x2-y2    tot
    1  0.001  0.004  0.004  0.001  0.192  0.088  0.000  0.192  0.000  0.481
    2  0.001  0.004  0.004  0.001  0.192  0.088  0.000  0.192  0.000  0.481
tot    0.001  0.007  0.007  0.003  0.383  0.176  0.000  0.383  0.001  0.962
 
band     6 # energy    3.83122544 # occ.  1.00000000
 
ion      s     py     pz     px    dxy    dyz    dz2    dxz  x2-y2    tot
    1  0.000  0.002  0.002  0.000  0.128  0.000  0.162  0.128  0.054  0.477
    2  0.000  0.002  0.002  0.000  0.128  0.000  0.162  0.128  0.054  0.477
tot    0.000  0.004  0.004  0.000  0.256  0.000  0.325  0.256  0.108  0.953
 
band     7 # energy    4.25586872 # occ.  1.00000000
 
ion      s     py     pz     px    dxy    dyz    dz2    dxz  x2-y2    tot
    1  0.001  0.008  0.008  0.000  0.193  0.069  0.002  0.193  0.005  0.479
    2  0.001  0.008  0.008  0.000  0.193  0.069  0.002  0.193  0.005  0.479
tot    0.002  0.015  0.015  0.000  0.387  0.139  0.003  0.387  0.010  0.959
 
band     8 # energy    4.35457857 # occ.  1.00000000
 
ion      s     py     pz     px    dxy    dyz    dz2    dxz  x2-y2    tot
    1  0.000  0.001  0.001  0.000  0.042  0.399  0.000  0.042  0.001  0.487
    2  0.000  0.001  0.001  0.000  0.042  0.399  0.000  0.042  0.001  0.487
tot    0.000  0.002  0.002  0.000  0.085  0.797  0.000  0.085  0.001  0.974
 
band     9 # energy    4.44339104 # occ.  1.00000000
 
ion      s     py     pz     px    dxy    dyz    dz2    dxz  x2-y2    tot
    1  0.000  0.009  0.009  0.000  0.228  0.000  0.005  0.228  0.002  0.480
    2  0.000  0.009  0.009  0.000  0.228  0.000  0.005  0.228  0.002  0.480
tot    0.000  0.018  0.018  0.000  0.456  0.000  0.010  0.456  0.003  0.960
 
band    10 # energy    5.25835293 # occ.  1.00055732
 
ion      s     py     pz     px    dxy    dyz    dz2    dxz  x2-y2    tot
    1  0.000  0.001  0.001  0.000  0.033  0.419  0.000  0.033  0.001  0.489
    2  0.000  0.001  0.001  0.000  0.033  0.419  0.000  0.033  0.001  0.489
tot    0.001  0.001  0.001  0.000  0.066  0.838  0.001  0.066  0.003  0.978
 
band    11 # energy    5.26510944 # occ.  1.00065523
 
ion      s     py     pz     px    dxy    dyz    dz2    dxz  x2-y2    tot
    1  0.023  0.000  0.000  0.007  0.000  0.000  0.114  0.000  0.343  0.487
    2  0.023  0.000  0.000  0.007  0.000  0.000  0.114  0.000  0.343  0.487
tot    0.046  0.000  0.000  0.013  0.000  0.001  0.228  0.000  0.685  0.974
 
band    12 # energy    7.95450153 # occ. -0.00000000
 
ion      s     py     pz     px    dxy    dyz    dz2    dxz  x2-y2    tot
    1  0.112  0.001  0.001  0.124  0.003  0.000  0.048  0.003  0.144  0.436
    2  0.112  0.001  0.001  0.124  0.003  0.000  0.048  0.003  0.144  0.436
tot    0.223  0.003  0.003  0.247  0.005  0.001  0.096  0.005  0.289  0.872
 
band    13 # energy   19.65345655 # occ.  0.00000000
 
ion      s     py     pz     px    dxy    dyz    dz2    dxz  x2-y2    tot
    1  0.000  0.126  0.126  0.000  0.059  0.000  0.048  0.059  0.016  0.434
    2  0.000  0.126  0.126  0.000  0.059  0.000  0.048  0.059  0.016  0.434
tot    0.000  0.252  0.252  0.000  0.117  0.000  0.096  0.117  0.032  0.868
 
band    14 # energy   19.86656078 # occ.  0.00000000
 
ion      s     py     pz     px    dxy    dyz    dz2    dxz  x2-y2    tot
    1  0.028  0.130  0.130  0.005  0.064  0.002  0.001  0.064  0.003  0.426
    2  0.028  0.130  0.130  0.005  0.064  0.002  0.001  0.064  0.003  0.426
tot    0.055  0.259  0.259  0.010  0.128  0.004  0.002  0.128  0.005  0.851
 
band    15 # energy   23.09718461 # occ.  0.00000000
 
ion      s     py     pz     px    dxy    dyz    dz2    dxz  x2-y2    tot
    1  0.000  0.021  0.021  0.000  0.012  0.000  0.259  0.012  0.086  0.409
    2  0.000  0.021  0.021  0.000  0.012  0.000  0.259  0.012  0.086  0.409
tot    0.000  0.041  0.041  0.000  0.023  0.000  0.517  0.023  0.172  0.819
 
band    16 # energy   23.97103503 # occ.  0.00000000
 
ion      s     py     pz     px    dxy    dyz    dz2    dxz  x2-y2    tot
    1  0.000  0.037  0.037  0.000  0.046  0.000  0.151  0.046  0.050  0.366
    2  0.000  0.037  0.037  0.000  0.046  0.000  0.151  0.046  0.050  0.366
tot    0.000  0.074  0.074  0.000  0.091  0.000  0.302  0.091  0.101  0.732
 

 k-point     6 :    0.45833333 0.04166667 0.04166667     weight = 0.01388889

band     1 # energy    0.86148165 # occ.  1.00000000
 
ion      s     py     pz     px    dxy    dyz    dz2    dxz  x2-y2    tot
    1  0.178  0.000  0.000  0.099  0.004  0.000  0.025  0.004  0.074  0.384
    2  0.178  0.000  0.000  0.099  0.004  0.000  0.025  0.004  0.074  0.384
tot    0.355  0.001  0.001  0.198  0.007  0.000  0.049  0.007  0.148  0.768
 
band     2 # energy    1.45706886 # occ.  1.00000000
 
ion      s     py     pz     px    dxy    dyz    dz2    dxz  x2-y2    tot
    1  0.099  0.000  0.000  0.093  0.004  0.000  0.050  0.004  0.151  0.402
    2  0.099  0.000  0.000  0.093  0.004  0.000  0.050  0.004  0.151  0.402
tot    0.199  0.000  0.000  0.186  0.008  0.000  0.101  0.008  0.303  0.805