   1   1   0   0
  0.1386300E+02  0.2621157E-09  0.2621157E-09  0.2621157E-09  0.5000000E-15
  1.000000000000000E-004
  CAR 
 unknown system                          
     36.18456778     -6.24520876  301      9.87428907      1.00000000
     -6.245  0.0000E+00  0.0000E+00
     -6.104  0.0000E+00  0.0000E+00
     -5.962  0.0000E+00  0.0000E+00
     -5.821  0.0000E+00  0.0000E+00
     -5.679  0.0000E+00  0.0000E+00
     -5.538  0.0000E+00  0.0000E+00
     -5.397  0.0000E+00  0.0000E+00
     -5.255  0.0000E+00  0.0000E+00
     -5.114  0.0000E+00  0.0000E+00
     -4.972  0.0000E+00  0.0000E+00
     -4.831  0.0000E+00  0.0000E+00
     -4.689  0.0000E+00  0.0000E+00
     -4.548  0.1238E-14  0.1751E-15
     -4.407  0.2285E-06  0.3232E-07
     -4.265  0.4281E-04  0.6087E-05
     -4.124  0.4776E-03  0.7364E-04
     -3.982  0.2844E-03  0.1139E-03
     -3.841  0.9826E-03  0.2528E-03
     -3.699  0.5466E-03  0.3301E-03
     -3.558  0.9816E-03  0.4690E-03
     -3.417  0.4803E-03  0.5369E-03
     -3.275  0.1876E-02  0.8022E-03
     -3.134  0.4430E-03  0.8649E-03
     -2.992  0.1479E-02  0.1074E-02
     -2.851  0.1058E-02  0.1224E-02
     -2.709  0.1064E-02  0.1374E-02
     -2.568  0.1782E-02  0.1626E-02
     -2.427  0.1950E-02  0.1902E-02
     -2.285  0.1002E-02  0.2044E-02
     -2.144  0.1299E-02  0.2228E-02
     -2.002  0.1517E-02  0.2442E-02
     -1.861  0.1611E-02  0.2670E-02
     -1.719  0.2706E-02  0.3053E-02
     -1.578  0.1507E-02  0.3266E-02
     -1.437  0.1938E-02  0.3540E-02
     -1.295  0.1173E-02  0.3706E-02
     -1.154  0.1971E-02  0.3985E-02
     -1.012  0.5133E-03  0.4057E-02
     -0.871  0.3410E-02  0.4540E-02
     -0.729  0.1271E-02  0.4719E-02
     -0.588  0.3950E-02  0.5278E-02
     -0.446  0.1983E-02  0.5558E-02
     -0.305  0.8781E-03  0.5683E-02
     -0.164  0.1036E-02  0.5829E-02
     -0.022  0.3069E-02  0.6263E-02
      0.119  0.1872E-02  0.6528E-02
      0.261  0.3355E-02  0.7002E-02
      0.402  0.2208E-02  0.7315E-02
      0.544  0.1844E-02  0.7575E-02
      0.685  0.4373E-02  0.8194E-02
      0.826  0.1964E-02  0.8472E-02
      0.968  0.1962E-02  0.8749E-02
      1.109  0.1161E-02  0.8913E-02
      1.251  0.2021E-02  0.9199E-02
      1.392  0.2233E-02  0.9515E-02
      1.534  0.4855E-02  0.1020E-01
      1.675  0.1613E-02  0.1043E-01
      1.816  0.4387E-02  0.1105E-01
      1.958  0.1111E-02  0.1121E-01
      2.099  0.3285E-02  0.1167E-01
      2.241  0.2917E-02  0.1208E-01
      2.382  0.3100E-02  0.1252E-01
      2.524  0.1892E-02  0.1279E-01
      2.665  0.3044E-02  0.1322E-01
      2.806  0.3166E-02  0.1367E-01
      2.948  0.1654E-02  0.1390E-01
      3.089  0.6173E-02  0.1478E-01
      3.231  0.1008E-02  0.1492E-01
      3.372  0.2755E-02  0.1531E-01
      3.514  0.3913E-02  0.1586E-01
      3.655  0.2573E-02  0.1623E-01
      3.797  0.3694E-02  0.1675E-01
      3.938  0.3797E-02  0.1729E-01
      4.079  0.2420E-02  0.1763E-01
      4.221  0.1133E-02  0.1779E-01
      4.362  0.3552E-02  0.1829E-01
      4.504  0.3196E-02  0.1874E-01
      4.645  0.5038E-02  0.1945E-01
      4.787  0.4805E-02  0.2013E-01
      4.928  0.1186E-02  0.2030E-01
      5.069  0.3939E-02  0.2086E-01
      5.211  0.1392E-02  0.2106E-01
      5.352  0.3520E-02  0.2155E-01
      5.494  0.6045E-02  0.2241E-01
      5.635  0.2494E-02  0.2276E-01
      5.777  0.5558E-02  0.2355E-01
      5.918  0.3000E-02  0.2397E-01
      6.059  0.1930E-02  0.2424E-01
      6.201  0.4069E-02  0.2482E-01
      6.342  0.2591E-02  0.2519E-01
      6.484  0.8340E-03  0.2530E-01
      6.625  0.6982E-02  0.2629E-01
      6.767  0.3358E-02  0.2677E-01
      6.908  0.5068E-02  0.2748E-01
      7.049  0.5354E-02  0.2824E-01
      7.191  0.2516E-02  0.2860E-01
      7.332  0.3609E-02  0.2911E-01
      7.474  0.3148E-02  0.2955E-01
      7.615  0.4818E-02  0.3023E-01
      7.757  0.4484E-02  0.3087E-01
      7.898  0.5167E-02  0.3160E-01
      8.039  0.2867E-02  0.3200E-01
      8.181  0.1262E-02  0.3218E-01
      8.322  0.2013E-02  0.3247E-01
      8.464  0.7608E-02  0.3354E-01
      8.605  0.5086E-02  0.3426E-01
      8.747  0.3735E-02  0.3479E-01
      8.888  0.4457E-02  0.3542E-01
      9.030  0.4304E-02  0.3603E-01
      9.171  0.5073E-02  0.3675E-01
      9.312  0.4954E-02  0.3745E-01
      9.454  0.4430E-02  0.3807E-01
      9.595  0.5241E-02  0.3882E-01
      9.737  0.5327E-02  0.3957E-01
      9.878  0.3148E-02  0.4001E-01
     10.020  0.4751E-02  0.4069E-01
     10.161  0.2525E-02  0.4104E-01
     10.302  0.3970E-02  0.4161E-01
     10.444  0.4478E-02  0.4224E-01
     10.585  0.4990E-02  0.4294E-01
     10.727  0.5134E-02  0.4367E-01
     10.868  0.5576E-02  0.4446E-01
     11.010  0.7060E-02  0.4546E-01
     11.151  0.1962E-02  0.4574E-01
     11.292  0.3022E-02  0.4616E-01
     11.434  0.2228E-02  0.4648E-01
     11.575  0.6304E-02  0.4737E-01
     11.717  0.6779E-02  0.4833E-01
     11.858  0.2470E-02  0.4868E-01
     12.000  0.6390E-02  0.4958E-01
     12.141  0.4399E-02  0.5020E-01
     12.282  0.2092E-02  0.5050E-01
     12.424  0.4022E-02  0.5107E-01
     12.565  0.1599E-02  0.5129E-01
     12.707  0.5639E-02  0.5209E-01
     12.848  0.3044E-02  0.5252E-01
     12.990  0.7453E-02  0.5358E-01
     13.131  0.4841E-02  0.5426E-01
     13.272  0.4395E-02  0.5488E-01
     13.414  0.8669E-02  0.5611E-01
     13.555  0.4215E-02  0.5671E-01
     13.697  0.4924E-02  0.5740E-01
     13.838  0.3471E-02  0.5789E-01
     13.980  0.4415E-02  0.5852E-01
     14.121  0.4489E-02  0.5915E-01
     14.263  0.3681E-02  0.5967E-01
     14.404  0.5583E-02  0.6046E-01
     14.545  0.8457E-02  0.6166E-01
     14.687  0.2088E-02  0.6195E-01
     14.828  0.5018E-02  0.6266E-01
     14.970  0.2685E-02  0.6304E-01
     15.111  0.6979E-02  0.6403E-01
     15.253  0.4780E-02  0.6471E-01
     15.394  0.5333E-02  0.6546E-01
     15.535  0.7237E-02  0.6648E-01
     15.677  0.4292E-02  0.6709E-01
     15.818  0.5796E-02  0.6791E-01
     15.960  0.5487E-02  0.6869E-01
     16.101  0.8499E-02  0.6989E-01
     16.243  0.5874E-02  0.7072E-01
     16.384  0.1964E-02  0.7100E-01
     16.525  0.7323E-02  0.7203E-01
     16.667  0.3312E-02  0.7250E-01
     16.808  0.2344E-02  0.7283E-01
     16.950  0.3743E-02  0.7336E-01
     17.091  0.5902E-02  0.7420E-01
     17.233  0.8885E-02  0.7545E-01
     17.374  0.1290E-01  0.7728E-01
     17.515  0.8000E-02  0.7841E-01
     17.657  0.4105E-02  0.7899E-01
     17.798  0.3991E-02  0.7955E-01
     17.940  0.4194E-02  0.8015E-01
     18.081  0.7089E-02  0.8115E-01
     18.223  0.4763E-02  0.8182E-01
     18.364  0.3323E-02  0.8229E-01
     18.505  0.1964E-02  0.8257E-01
     18.647  0.3969E-02  0.8313E-01
     18.788  0.3879E-02  0.8368E-01
     18.930  0.1128E-02  0.8384E-01
     19.071  0.4990E-02  0.8455E-01
     19.213  0.6646E-02  0.8549E-01
     19.354  0.4407E-02  0.8611E-01
     19.496  0.5014E-02  0.8682E-01
     19.637  0.6891E-02  0.8779E-01
     19.778  0.6983E-02  0.8878E-01
     19.920  0.3801E-02  0.8932E-01
     20.061  0.2108E-02  0.8962E-01
     20.203  0.1036E-01  0.9108E-01
     20.344  0.4740E-02  0.9175E-01
     20.486  0.2489E-02  0.9211E-01
     20.627  0.7139E-02  0.9312E-01
     20.768  0.3789E-02  0.9365E-01
     20.910  0.6611E-02  0.9459E-01
     21.051  0.7517E-02  0.9565E-01
     21.193  0.4644E-02  0.9631E-01
     21.334  0.4842E-02  0.9699E-01
     21.476  0.6356E-02  0.9789E-01
     21.617  0.8353E-02  0.9907E-01
     21.758  0.9204E-02  0.1004E+00
     21.900  0.1410E-01  0.1024E+00
     22.041  0.6867E-02  0.1033E+00
     22.183  0.7288E-02  0.1044E+00
     22.324  0.8828E-02  0.1056E+00
     22.466  0.6273E-02  0.1065E+00
     22.607  0.2153E-02  0.1068E+00
     22.748  0.1717E-02  0.1071E+00
     22.890  0.2638E-02  0.1074E+00
     23.031  0.8010E-02  0.1086E+00
     23.173  0.8293E-02  0.1097E+00
     23.314  0.9379E-02  0.1111E+00
     23.456  0.4596E-02  0.1117E+00
     23.597  0.6013E-02  0.1126E+00
     23.738  0.5287E-02  0.1133E+00
     23.880  0.5038E-02  0.1140E+00
     24.021  0.4848E-02  0.1147E+00
     24.163  0.2297E-02  0.1150E+00
     24.304  0.6834E-02  0.1160E+00
     24.446  0.5241E-02  0.1167E+00
     24.587  0.1134E-01  0.1183E+00
     24.729  0.7095E-02  0.1193E+00
     24.870  0.4901E-02  0.1200E+00
     25.011  0.4372E-02  0.1207E+00
     25.153  0.6632E-02  0.1216E+00
     25.294  0.6161E-02  0.1225E+00
     25.436  0.5519E-02  0.1232E+00
     25.577  0.8038E-02  0.1244E+00
     25.719  0.3575E-02  0.1249E+00
     25.860  0.6930E-02  0.1259E+00
     26.001  0.4672E-02  0.1265E+00
     26.143  0.6401E-02  0.1274E+00
     26.284  0.6339E-02  0.1283E+00
     26.426  0.7946E-02  0.1295E+00
     26.567  0.7351E-02  0.1305E+00
     26.709  0.4881E-02  0.1312E+00
     26.850  0.9355E-02  0.1325E+00
     26.991  0.4662E-02  0.1332E+00
     27.133  0.7415E-02  0.1342E+00
     27.274  0.5532E-02  0.1350E+00
     27.416  0.6226E-02  0.1359E+00
     27.557  0.2701E-02  0.1363E+00
     27.699  0.5952E-02  0.1371E+00
     27.840  0.6156E-02  0.1380E+00
     27.981  0.7323E-02  0.1390E+00
     28.123  0.6011E-02  0.1399E+00
     28.264  0.4728E-02  0.1405E+00
     28.406  0.5828E-02  0.1414E+00
     28.547  0.6370E-02  0.1423E+00
     28.689  0.9644E-02  0.1436E+00
     28.830  0.6853E-02  0.1446E+00
     28.972  0.1248E-01  0.1463E+00
     29.113  0.7280E-02  0.1474E+00
     29.254  0.2656E-02  0.1478E+00
     29.396  0.6447E-02  0.1487E+00
     29.537  0.4954E-02  0.1494E+00
     29.679  0.5530E-02  0.1501E+00
     29.820  0.8345E-02  0.1513E+00
     29.962  0.8858E-02  0.1526E+00
     30.103  0.6205E-02  0.1535E+00
     30.244  0.2109E-02  0.1538E+00
     30.386  0.6070E-02  0.1546E+00
     30.527  0.4926E-02  0.1553E+00
     30.669  0.8285E-02  0.1565E+00
     30.810  0.5057E-02  0.1572E+00
     30.952  0.1756E-02  0.1574E+00
     31.093  0.4302E-02  0.1581E+00
     31.234  0.1967E-02  0.1583E+00
     31.376  0.3537E-03  0.1584E+00
     31.517  0.1769E-02  0.1586E+00
     31.659  0.2071E-02  0.1589E+00
     31.800  0.1327E-02  0.1591E+00
     31.942  0.1274E-03  0.1591E+00
     32.083  0.1568E-03  0.1592E+00
     32.224  0.3635E-03  0.1592E+00
     32.366  0.1014E-02  0.1594E+00
     32.507  0.1461E-03  0.1594E+00
     32.649  0.1009E-02  0.1595E+00
     32.790  0.5032E-03  0.1596E+00
     32.932  0.1188E-02  0.1598E+00
     33.073  0.5769E-03  0.1598E+00
     33.214  0.3174E-03  0.1599E+00
     33.356  0.3925E-05  0.1599E+00
     33.497  0.6175E-13  0.1599E+00
     33.639  0.0000E+00  0.1599E+00
     33.780  0.4022E-15  0.1599E+00
     33.922  0.3763E-06  0.1599E+00
     34.063  0.2142E-03  0.1599E+00
     34.205  0.2923E-03  0.1600E+00
     34.346  0.3292E-03  0.1600E+00
     34.487  0.1828E-05  0.1600E+00
     34.629  0.9906E-14  0.1600E+00
     34.770  0.0000E+00  0.1600E+00
     34.912  0.0000E+00  0.1600E+00
     35.053  0.0000E+00  0.1600E+00
     35.195  0.0000E+00  0.1600E+00
     35.336  0.0000E+00  0.1600E+00
     35.477  0.0000E+00  0.1600E+00
     35.619  0.0000E+00  0.1600E+00
     35.760  0.0000E+00  0.1600E+00
     35.902  0.0000E+00  0.1600E+00
     36.043  0.0000E+00  0.1600E+00
     36.185  0.0000E+00  0.1600E+00
