    1    1  100    1
  0.1386300E+02  0.2621157E-09  0.2621157E-09  0.2621157E-09  0.5000000E-15
  1.000000000000000E-004
  CAR 
 unknown system                          
      4    120      8
 
  0.0000000E+00  0.0000000E+00  0.0000000E+00  0.2962963E-03
    1       -4.316583   1.000000
    2       21.286185   0.000000
    3       21.286185   0.000000
    4       21.286185   0.000000
    5       22.438376   0.000000
    6       22.438376   0.000000
    7       22.438376   0.000000
    8       26.130517   0.000000
 
  0.6666667E-01  0.0000000E+00  0.0000000E+00  0.3555556E-02
    1       -4.180522   1.000000
    2       19.678653   0.000000
    3       20.155104   0.000000
    4       21.094517   0.000000
    5       21.991999   0.000000
    6       23.201236   0.000000
    7       23.797184   0.000000
    8       25.223305   0.000000
 
  0.1333333E+00  0.0000000E+00  0.0000000E+00  0.3555556E-02
    1       -3.772858   1.000000
    2       17.067447   0.000000
    3       18.817991   0.000000
    4       20.575953   0.000000
    5       21.015427   0.000000
    6       22.970480   0.000000
    7       25.143361   0.000000
    8       25.813430   0.000000
 
  0.2000000E+00  0.0000000E+00  0.0000000E+00  0.3555556E-02
    1       -3.095217   1.000000
    2       14.247824   0.000000
    3       17.682763   0.000000
    4       19.890814   0.000000
    5       19.960626   0.000000
    6       22.022636   0.000000
    7       26.009882   0.000000
    8       26.194430   0.000000
 
  0.2666667E+00  0.0000000E+00  0.0000000E+00  0.3555556E-02
    1       -2.150345   1.000000
    2       11.474893   0.000000
    3       16.771008   0.000000
    4       19.028231   0.000000
    5       19.209235   0.000000
    6       21.162177   0.000000
    7       26.819381   0.000000
    8       27.083864   0.000000
 
  0.3333333E+00  0.0000000E+00  0.0000000E+00  0.3555556E-02
    1       -0.942130   1.000000
    2        8.853398   1.000000
    3       16.086819   0.000000
    4       18.296164   0.000000
    5       18.639931   0.000000
    6       20.486097   0.000000
    7       27.721550   0.000000
    8       28.294202   0.000000
 
  0.4000000E+00  0.0000000E+00  0.0000000E+00  0.3555556E-02
    1        0.523669   1.000000
    2        6.430925   1.000000
    3       15.630824   0.000000
    4       17.796222   0.000000
    5       18.239020   0.000000
    6       20.022317   0.000000
    7       28.825614   0.000000
    8       29.562585   0.000000
 
  0.4666667E+00  0.0000000E+00  0.0000000E+00  0.3555556E-02
    1        2.231875   1.000000
    2        4.240873   1.000000
    3       15.402922   0.000000
    4       17.543512   0.000000
    5       18.033210   0.000000
    6       19.786543   0.000000
    7       29.902470   0.000000
    8       30.584049   0.000000
 
  0.6666667E-01  0.6666667E-01  0.0000000E+00  0.7111111E-02
    1       -3.908664   1.000000
    2       18.184063   0.000000
    3       18.729940   0.000000
    4       20.079087   0.000000
    5       22.148338   0.000000
    6       23.504015   0.000000
    7       24.460052   0.000000
    8       24.999698   0.000000
 
  0.1333333E+00  0.6666667E-01 -0.6938894E-17  0.1422222E-01
    1       -3.366006   1.000000
    2       15.713321   0.000000
    3       17.275396   0.000000
    4       19.110374   0.000000
    5       21.670015   0.000000
    6       23.060570   0.000000
    7       24.771294   0.000000
    8       26.393220   0.000000
 
  0.2000000E+00  0.6666667E-01 -0.6938894E-17  0.1422222E-01
    1       -2.554740   1.000000
    2       12.930506   0.000000
    3       16.211035   0.000000
    4       18.195974   0.000000
    5       20.938578   0.000000
    6       22.398436   0.000000
    7       25.327901   0.000000
    8       27.651915   0.000000
 
  0.2666667E+00  0.6666667E-01  0.6938894E-17  0.1422222E-01
    1       -1.478135   1.000000
    2       10.233228   0.000000
    3       15.386050   0.000000
    4       17.427065   0.000000
    5       20.235810   0.000000
    6       21.810020   0.000000
    7       26.123548   0.000000
    8       28.799715   0.000000
 
  0.3333333E+00  0.6666667E-01 -0.2081668E-16  0.1422222E-01
    1       -0.140850   1.000000
    2        7.710339   1.000000
    3       14.794967   0.000000
    4       16.856603   0.000000
    5       19.691091   0.000000
    6       21.342550   0.000000
    7       27.185259   0.000000
    8       29.911662   0.000000
 
  0.4000000E+00  0.6666667E-01  0.6938894E-17  0.1422222E-01
    1        1.449294   1.000000
    2        5.400574   1.000000
    3       14.439364   0.000000
    4       16.507804   0.000000
    5       19.352096   0.000000
    6       21.044617   0.000000
    7       28.447884   0.000000
    8       30.522660   0.000000
 
  0.4666667E+00  0.6666667E-01  0.6938894E-17  0.7111111E-02
    1        3.103555   1.000000
    2        3.505277   1.000000
    3       14.320676   0.000000
    4       16.390641   0.000000
    5       19.237433   0.000000
    6       20.942663   0.000000
    7       29.597272   0.000000
    8       29.955030   0.000000
 
  0.1333333E+00  0.1333333E+00  0.0000000E+00  0.7111111E-02
    1       -2.689707   1.000000
    2       14.350951   0.000000
    3       14.816870   0.000000
    4       18.052712   0.000000
    5       21.879644   0.000000
    6       22.979431   0.000000
    7       25.455865   0.000000
    8       26.759055   0.000000
 
  0.2000000E+00  0.1333333E+00  0.1387779E-16  0.1422222E-01
    1       -1.746655   1.000000
    2       11.822135   0.000000
    3       13.645415   0.000000
    4       17.189477   0.000000
    5       21.529394   0.000000
    6       23.031934   0.000000
    7       25.762298   0.000000
    8       28.188635   0.000000
 
  0.2666667E+00  0.1333333E+00  0.0000000E+00  0.1422222E-01
    1       -0.540753   1.000000
    2        9.226432   1.000000
    3       12.902556   0.000000
    4       16.515873   0.000000
    5       20.975701   0.000000
    6       23.264267   0.000000
    7       26.022148   0.000000
    8       29.783181   0.000000
 
  0.3333333E+00  0.1333333E+00  0.0000000E+00  0.1422222E-01
    1        0.922293   1.000000
    2        6.814349   1.000000
    3       12.409474   0.000000
    4       16.056551   0.000000
    5       20.551414   0.000000
    6       23.308470   0.000000
    7       26.812017   0.000000
    8       30.322754   0.000000
 
  0.4000000E+00  0.1333333E+00  0.0000000E+00  0.1422222E-01
    1        2.627697   1.000000
    2        4.629818   1.000000
    3       12.162652   0.000000
    4       15.824290   0.000000
    5       20.329856   0.000000
    6       23.268264   0.000000
    7       27.996797   0.000000
    8       29.431523   0.000000
 
  0.2000000E+00  0.2000000E+00  0.0000000E+00  0.7111111E-02
    1       -0.674230   1.000000
    2       10.800536   0.000000
    3       11.152507   0.000000
    4       16.420645   0.000000
    5       22.045681   0.000000
    6       22.933727   0.000000
    7       27.328641   0.000000
    8       28.257451   0.000000
 
  0.2666667E+00  0.2000000E+00  0.1387779E-16  0.1422222E-01
    1        0.657837   1.000000
    2        8.461178   1.000000
    3       10.365901   0.000000
    4       15.855179   0.000000
    5       21.900566   0.000000
    6       23.578535   0.000000
    7       27.462054   0.000000
    8       29.404645   0.000000
 
  0.3333333E+00  0.2000000E+00  0.1387779E-16  0.1422222E-01
    1        2.241869   1.000000
    2        6.171290   1.000000
    3        9.982498   0.001104
    4       15.509707   0.000000
    5       21.637915   0.000000
    6       24.485514   0.000000
    7       27.297956   0.000000
    8       29.348226   0.000000
 
  0.4000000E+00  0.2000000E+00  0.1387779E-16  0.7111111E-02
    1        3.897433   1.000000
    2        4.277848   1.000000
    3        9.855546   0.701994
    4       15.393648   0.000000
    5       21.539800   0.000000
    6       24.944270   0.000000
    7       27.268575   0.000000
    8       28.918498   0.000000
 
  0.2666667E+00  0.2666667E+00  0.0000000E+00  0.7111111E-02
    1        2.111779   1.000000
    2        7.811827   1.000000
    3        8.121325   1.000000
    4       15.403493   0.000000
    5       22.769789   0.000000
    6       23.669106   0.000000
    7       27.859001   0.000000
    8       29.715657   0.000000
 
  0.3333333E+00  0.2666667E+00  0.0000000E+00  0.1422222E-01
    1        3.806261   1.000000
    2        5.785838   1.000000
    3        7.725280   1.000000
    4       15.174067   0.000000
    5       22.893230   0.000000
    6       24.674924   0.000000
    7       26.528910   0.000000
    8       30.537216   0.000000
 
  0.3333333E+00  0.3333333E+00  0.0000000E+00  0.2370370E-02
    1        5.314991   1.000000
    2        5.819857   1.000000
    3        5.819857   1.000000
    4       15.060654   0.000000
    5       23.704827   0.000000
    6       25.143156   0.000000
    7       25.143156   0.000000
    8       32.529793   0.000000
 
  0.6666667E-01  0.6666667E-01  0.6666667E-01  0.2370370E-02
    1       -3.501536   1.000000
    2       16.716575   0.000000
    3       17.704394   0.000000
    4       17.704394   0.000000
    5       23.365472   0.000000
    6       23.365472   0.000000
    7       25.499935   0.000000
    8       25.499935   0.000000
 
  0.1333333E+00  0.6666667E-01  0.6666667E-01  0.7111111E-02
    1       -2.824806   1.000000
    2       14.434147   0.000000
    3       15.990837   0.000000
    4       16.644777   0.000000
    5       23.066607   0.000000
    6       23.731998   0.000000
    7       25.829396   0.000000
    8       26.308419   0.000000
 
  0.2000000E+00  0.6666667E-01  0.6666667E-01  0.7111111E-02
    1       -1.881150   1.000000
    2       11.715330   0.000000
    3       14.989975   0.000000
    4       15.727216   0.000000
    5       22.622155   0.000000
    6       23.171414   0.000000
    7       27.047242   0.000000
    8       27.048520   0.000000
 
  0.2666667E+00  0.6666667E-01  0.6666667E-01  0.7111111E-02
    1       -0.674452   1.000000
    2        9.105589   1.000000
    3       14.267075   0.000000
    4       15.013349   0.000000
    5       22.167991   0.000000
    6       22.605754   0.000000
    7       27.955844   0.000000
    8       28.365019   0.000000
 
  0.3333333E+00  0.6666667E-01  0.6666667E-01  0.7111111E-02
    1        0.789582   1.000000
    2        6.688208   1.000000
    3       13.787546   0.000000
    4       14.528532   0.000000
    5       21.817659   0.000000
    6       22.197578   0.000000
    7       29.036900   0.000000
    8       29.679455   0.000000
 
  0.4000000E+00  0.6666667E-01  0.6666667E-01  0.7111111E-02
    1        2.496041   1.000000
    2        4.501052   1.000000
    3       13.547863   0.000000
    4       14.283900   0.000000
    5       21.630571   0.000000
    6       21.986539   0.000000
    7       30.060379   0.000000
    8       30.709732   0.000000
 
 -0.6666667E-01  0.6666667E-01  0.6666667E-01  0.1777778E-02
    1       -4.044557   1.000000
    2       19.230581   0.000000
    3       19.230581   0.000000
    4       20.251911   0.000000
    5       22.704383   0.000000
    6       23.647761   0.000000
    7       23.785300   0.000000
    8       23.785300   0.000000
 
  0.1333333E+00  0.1333333E+00  0.6666667E-01  0.7111111E-02
    1       -2.015657   1.000000
    2       13.164479   0.000000
    3       13.677624   0.000000
    4       15.328228   0.000000
    5       23.660322   0.000000
    6       24.536564   0.000000
    7       26.147088   0.000000
    8       27.117086   0.000000
 
  0.2000000E+00  0.1333333E+00  0.6666667E-01  0.1422222E-01
    1       -0.941833   1.000000
    2       10.719580   0.000000
    3       12.591613   0.000000
    4       14.484468   0.000000
    5       23.587168   0.000000
    6       24.619945   0.000000
    7       26.955880   0.000000
    8       28.353451   0.000000
 
  0.2666667E+00  0.1333333E+00  0.6666667E-01  0.1422222E-01
    1        0.392102   1.000000
    2        8.218398   1.000000
    3       11.963040   0.000000
    4       13.880309   0.000000
    5       23.270603   0.000000
    6       24.538677   0.000000
    7       27.844683   0.000000
    8       29.785954   0.000000
 
  0.3333333E+00  0.1333333E+00  0.6666667E-01  0.1422222E-01
    1        1.978457   1.000000
    2        5.917494   1.000000
    3       11.589221   0.000000
    4       13.515476   0.000000
    5       23.018565   0.000000
    6       24.423866   0.000000
    7       28.959692   0.000000
    8       30.651364   0.000000
 
  0.4000000E+00  0.1333333E+00  0.6666667E-01  0.7111111E-02
    1        3.633588   1.000000
    2        4.022609   1.000000
    3       11.464708   0.000000
    4       13.393458   0.000000
    5       22.927806   0.000000
    6       24.374012   0.000000
    7       29.899703   0.000000
    8       30.404443   0.000000
 
 -0.1333333E+00  0.1333333E+00  0.6666667E-01  0.7111111E-02
    1       -3.637128   1.000000
    2       17.070037   0.000000
    3       17.931894   0.000000
    4       19.712509   0.000000
    5       22.084140   0.000000
    6       22.379377   0.000000
    7       24.246954   0.000000
    8       25.413038   0.000000
 
  0.2000000E+00  0.2000000E+00  0.6666667E-01  0.7111111E-02
    1        0.259367   1.000000
    2        9.812978   0.958554
    3       10.172298   0.000000
    4       13.750329   0.000000
    5       24.220200   0.000000
    6       25.223527   0.000000
    7       28.090023   0.000000
    8       28.924851   0.000000
 
  0.2666667E+00  0.2000000E+00  0.6666667E-01  0.1422222E-01
    1        1.716805   1.000000
    2        7.576300   1.000000
    3        9.504179   1.000000
    4       13.264290   0.000000
    5       24.311164   0.000000
    6       25.813847   0.000000
    7       28.592954   0.000000
    8       30.038514   0.000000
 
  0.3333333E+00  0.2000000E+00  0.6666667E-01  0.1422222E-01
    1        3.416030   1.000000
    2        5.406477   1.000000
    3        9.245064   1.000000
    4       13.020497   0.000000
    5       24.221429   0.000000
    6       26.334390   0.000000
    7       28.903314   0.000000
    8       30.252186   0.000000
 
 -0.2000000E+00  0.2000000E+00  0.6666667E-01  0.7111111E-02
    1       -2.959908   1.000000
    2       14.334754   0.000000
    3       16.788232   0.000000
    4       19.087895   0.000000
    5       21.082277   0.000000
    6       21.837184   0.000000
    7       24.299217   0.000000
    8       27.646516   0.000000
 
 -0.1333333E+00  0.2000000E+00  0.6666667E-01  0.7111111E-02
    1       -3.095163   1.000000
    2       15.674692   0.000000
    3       15.991205   0.000000
    4       19.118978   0.000000
    5       21.333850   0.000000
    6       21.834051   0.000000
    7       25.133420   0.000000
    8       26.045015   0.000000
 
  0.2666667E+00  0.2666667E+00  0.6666667E-01  0.7111111E-02
    1        3.291373   1.000000
    2        7.050707   1.000000
    3        7.367098   1.000000
    4       12.899003   0.000000
    5       25.170551   0.000000
    6       26.337956   0.000000
    7       28.846614   0.000000
    8       30.608294   0.000000
 
  0.3333333E+00  0.2666667E+00  0.6666667E-01  0.7111111E-02
    1        4.933182   1.000000
    2        5.311694   1.000000
    3        7.099213   1.000000
    4       12.777125   0.000000
    5       25.385584   0.000000
    6       27.037026   0.000000
    7       28.018134   0.000000
    8       31.392778   0.000000
 
 -0.2666667E+00  0.2666667E+00  0.6666667E-01  0.7111111E-02
    1       -2.015633   1.000000
    2       11.586933   0.000000
    3       15.857694   0.000000
    4       18.358523   0.000000
    5       20.180675   0.000000
    6       21.540383   0.000000
    7       24.544551   0.000000
    8       29.380581   0.000000
 
 -0.2000000E+00  0.2666667E+00  0.6666667E-01  0.1422222E-01
    1       -2.284931   1.000000
    2       13.126017   0.000000
    3       14.792800   0.000000
    4       18.597382   0.000000
    5       20.786221   0.000000
    6       21.419458   0.000000
    7       25.144547   0.000000
    8       27.811473   0.000000
 
 -0.3333333E+00  0.3333333E+00  0.6666667E-01  0.7111111E-02
    1       -0.808214   1.000000
    2        8.975239   1.000000
    3       15.154630   0.000000
    4       17.729593   0.000000
    5       19.471921   0.000000
    6       21.218788   0.000000
    7       25.250480   0.000000
    8       30.285899   0.000000
 
 -0.2666667E+00  0.3333333E+00  0.6666667E-01  0.1422222E-01
    1       -1.209721   1.000000
    2       10.466673   0.000000
    3       13.946360   0.000000
    4       17.975963   0.000000
    5       20.095193   0.000000
    6       21.722434   0.000000
    7       24.908456   0.000000
    8       29.672886   0.000000
 
 -0.2000000E+00  0.3333333E+00  0.6666667E-01  0.7111111E-02
    1       -1.343733   1.000000
    2       12.001356   0.000000
    3       12.330085   0.000000
    4       18.360709   0.000000
    5       20.690427   0.000000
    6       20.841592   0.000000
    7       26.788459   0.000000
    8       27.681296   0.000000
 
 -0.4000000E+00  0.4000000E+00  0.6666667E-01  0.7111111E-02
    1        0.656620   1.000000
    2        6.557508   1.000000
    3       14.684181   0.000000
    4       17.286387   0.000000
    5       18.988742   0.000000
    6       20.933313   0.000000
    7       26.342321   0.000000
    8       30.330533   0.000000
 
 -0.3333333E+00  0.4000000E+00  0.6666667E-01  0.1422222E-01
    1        0.125792   1.000000
    2        7.958595   1.000000
    3       13.340349   0.000000
    4       17.461527   0.000000
    5       19.528809   0.000000
    6       22.109217   0.000000
    7       25.082413   0.000000
    8       29.915570   0.000000
 
 -0.2666667E+00  0.4000000E+00  0.6666667E-01  0.1422222E-01
    1       -0.140240   1.000000
    2        9.582655   1.000000
    3       11.437769   0.000000
    4       17.947251   0.000000
    5       20.152268   0.000000
    6       21.406514   0.000000
    7       26.675832   0.000000
    8       28.858297   0.000000
 
 -0.4666667E+00  0.4666667E+00  0.6666667E-01  0.7111111E-02
    1        2.363836   1.000000
    2        4.369892   1.000000
    3       14.448537   0.000000
    4       17.059480   0.000000
    5       18.744758   0.000000
    6       20.771206   0.000000
    7       27.691195   0.000000
    8       29.189130   0.000000
 
 -0.4000000E+00  0.4666667E+00  0.6666667E-01  0.1422222E-01
    1        1.713795   1.000000
    2        5.656182   1.000000
    3       12.975659   0.000000
    4       17.136432   0.000000
    5       19.175001   0.000000
    6       22.275789   0.000000
    7       25.876092   0.000000
    8       28.737482   0.000000
 
 -0.3333333E+00  0.4666667E+00  0.6666667E-01  0.1422222E-01
    1        1.319747   1.000000
    2        7.190664   1.000000
    3       10.933986   0.000000
    4       17.584144   0.000000
    5       19.699725   0.000000
    6       22.399621   0.000000
    7       26.165704   0.000000
    8       28.608160   0.000000
 
 -0.2666667E+00  0.4666667E+00  0.6666667E-01  0.7111111E-02
    1        1.188011   1.000000
    2        8.815724   1.000000
    3        9.112871   1.000000
    4       17.693564   0.000000
    5       20.827251   0.000000
    6       21.069884   0.000000
    7       27.056850   0.000000
    8       28.974410   0.000000
 
 -0.4666667E+00 -0.4666667E+00  0.6666667E-01  0.7111111E-02
    1        3.369673   1.000000
    2        3.760706   1.000000
    3       12.853895   0.000000
    4       17.026072   0.000000
    5       19.055329   0.000000
    6       22.302334   0.000000
    7       26.856511   0.000000
    8       27.562197   0.000000
 
 -0.4000000E+00 -0.4666667E+00  0.6666667E-01  0.1422222E-01
    1        3.021738   1.000000
    2        5.015075   1.000000
    3       10.683093   0.000000
    4       17.386813   0.000000
    5       19.465267   0.000000
    6       23.362051   0.000000
    7       25.614827   0.000000
    8       27.903987   0.000000
 
 -0.3333333E+00 -0.4666667E+00  0.6666667E-01  0.1422222E-01
    1        2.767091   1.000000
    2        6.673688   1.000000
    3        8.595998   1.000000
    4       17.453474   0.000000
    5       20.609616   0.000000
    6       22.192616   0.000000
    7       25.499577   0.000000
    8       29.700651   0.000000
 
 -0.4000000E+00 -0.4000000E+00  0.6666667E-01  0.7111111E-02
    1        4.421937   1.000000
    2        4.787078   1.000000
    3        8.465172   1.000000
    4       17.363898   0.000000
    5       20.502954   0.000000
    6       23.298734   0.000000
    7       24.245561   0.000000
    8       29.787656   0.000000
 
 -0.3333333E+00 -0.4000000E+00  0.6666667E-01  0.7111111E-02
    1        4.449770   1.000000
    2        6.291586   1.000000
    3        6.577709   1.000000
    4       17.319139   0.000000
    5       21.709565   0.000000
    6       22.279493   0.000000
    7       23.801359   0.000000
    8       31.667171   0.000000
 
  0.1333333E+00  0.1333333E+00  0.1333333E+00  0.2370370E-02
    1       -1.075727   1.000000
    2       12.049761   0.000000
    3       12.717959   0.000000
    4       12.717959   0.000000
    5       25.316201   0.000000
    6       25.316201   0.000000
    7       27.352086   0.000000
    8       27.352086   0.000000
 
  0.2000000E+00  0.1333333E+00  0.1333333E+00  0.7111111E-02
    1        0.126335   1.000000
    2        9.841874   0.820383
    3       11.581482   0.000000
    4       11.981399   0.000000
    5       25.554589   0.000000
    6       25.889429   0.000000
    7       28.387727   0.000000
    8       28.528891   0.000000
 
  0.2666667E+00  0.1333333E+00  0.1333333E+00  0.7111111E-02
    1        1.584884   1.000000
    2        7.454651   1.000000
    3       11.064135   0.000000
    4       11.484529   0.000000
    5       25.566428   0.000000
    6       25.795856   0.000000
    7       29.596299   0.000000
    8       29.874626   0.000000
 
  0.3333333E+00  0.1333333E+00  0.1333333E+00  0.7111111E-02
    1        3.285515   1.000000
    2        5.278995   1.000000
    3       10.811667   0.000000
    4       11.234749   0.000000
    5       25.528454   0.000000
    6       25.684193   0.000000
    7       30.464329   0.000000
    8       31.004435   0.000000
 
 -0.1333333E+00  0.1333333E+00  0.1333333E+00  0.1777778E-02
    1       -3.230497   1.000000
    2       16.630173   0.000000
    3       16.630174   0.000000
    4       18.259433   0.000000
    5       20.514689   0.000000
    6       23.500539   0.000000
    7       25.031908   0.000000
    8       25.031908   0.000000
 
  0.2000000E+00  0.2000000E+00  0.1333333E+00  0.7111111E-02
    1        1.453286   1.000000
    2        9.053508   1.000000
    3        9.424354   1.000000
    4       11.179857   0.000000
    5       26.464786   0.000000
    6       27.178579   0.000000
    7       29.096990   0.000000
    8       29.573274   0.000000
 
  0.2666667E+00  0.2000000E+00  0.1333333E+00  0.1422222E-01
    1        3.031262   1.000000
    2        6.939203   1.000000
    3        8.875469   1.000000
    4       10.799431   0.000000
    5       26.779032   0.000000
    6       27.717052   0.000000
    7       29.991687   0.000000
    8       30.644466   0.000000
 
  0.3333333E+00  0.2000000E+00  0.1333333E+00  0.7111111E-02
    1        4.681274   1.000000
    2        5.056905   1.000000
    3        8.743103   1.000000
    4       10.673557   0.000000
    5       26.823399   0.000000
    6       27.884857   0.000000
    7       30.379504   0.000000
    8       31.161067   0.000000
 
 -0.2000000E+00  0.2000000E+00  0.1333333E+00  0.7111111E-02
    1       -2.554589   1.000000
    2       14.535070   0.000000
    3       15.471591   0.000000
    4       17.665045   0.000000
    5       19.635080   0.000000
    6       23.047674   0.000000
    7       25.222457   0.000000
    8       26.775253   0.000000
 
  0.2666667E+00  0.2666667E+00  0.1333333E+00  0.7111111E-02
    1        4.712451   1.000000
    2        6.550202   1.000000
    3        6.860785   1.000000
    4       10.543071   0.000000
    5       27.568246   0.000000
    6       28.825120   0.000000
    7       29.907896   0.000000
    8       31.477508   0.000000
 
 -0.2666667E+00  0.2666667E+00  0.1333333E+00  0.7111111E-02
    1       -1.612115   1.000000
    2       11.909724   0.000000
    3       14.526256   0.000000
    4       17.027868   0.000000
    5       19.831804   0.000000
    6       22.222895   0.000000
    7       24.897263   0.000000
    8       29.239512   0.000000
 
 -0.2000000E+00  0.2666667E+00  0.1333333E+00  0.7111111E-02
    1       -1.746420   1.000000
    2       13.350034   0.000000
    3       13.579555   0.000000
    4       17.284835   0.000000
    5       18.766127   0.000000
    6       22.872902   0.000000
    7       26.464082   0.000000
    8       27.152132   0.000000
 
 -0.3333333E+00  0.3333333E+00  0.1333333E+00  0.7111111E-02
    1       -0.407062   1.000000
    2        9.336565   1.000000
    3       13.811131   0.000000
    4       16.385596   0.000000
    5       20.502475   0.000000
    6       21.543796   0.000000
    7       24.581258   0.000000
    8       29.474427   0.000000
 
 -0.2666667E+00  0.3333333E+00  0.1333333E+00  0.1422222E-01
    1       -0.674008   1.000000
    2       10.914791   0.000000
    3       12.626708   0.000000
    4       16.925171   0.000000
    5       18.970476   0.000000
    6       22.254277   0.000000
    7       26.213796   0.000000
    8       28.468680   0.000000
 
 -0.4000000E+00  0.4000000E+00  0.1333333E+00  0.7111111E-02
    1        1.054813   1.000000
    2        6.935448   1.000000
    3       13.332404   0.000000
    4       15.921952   0.000000
    5       21.076075   0.000000
    6       21.214307   0.000000
    7       24.591385   0.000000
    8       28.244747   0.000000
 
 -0.3333333E+00  0.4000000E+00  0.1333333E+00  0.1422222E-01
    1        0.657850   1.000000
    2        8.448914   1.000000
    3       12.010852   0.000000
    4       16.431945   0.000000
    5       19.785725   0.000000
    6       21.819212   0.000000
    7       25.479724   0.000000
    8       28.079992   0.000000
 
 -0.2666667E+00  0.4000000E+00  0.1333333E+00  0.7111111E-02
    1        0.525303   1.000000
    2       10.040522   0.000001
    3       10.312268   0.000000
    4       17.346865   0.000000
    5       18.678502   0.000000
    6       21.795377   0.000000
    7       26.475310   0.000000
    8       28.431650   0.000000
 
 -0.4666667E+00  0.4666667E+00  0.1333333E+00  0.7111111E-02
    1        2.758802   1.000000
    2        4.755985   1.000000
    3       13.092535   0.000000
    4       15.683746   0.000000
    5       20.838717   0.000000
    6       21.637307   0.000000
    7       25.077096   0.000000
    8       26.918078   0.000000
 
 -0.4000000E+00  0.4666667E+00  0.1333333E+00  0.1422222E-01
    1        2.241320   1.000000
    2        6.164558   1.000000
    3       11.641176   0.000000
    4       16.097419   0.000000
    5       20.500813   0.000000
    6       21.911599   0.000000
    7       24.527122   0.000000
    8       27.300360   0.000000
 
 -0.3333333E+00  0.4666667E+00  0.1333333E+00  0.1422222E-01
    1        1.979881   1.000000
    2        7.808099   1.000000
    3        9.685047   1.000000
    4       17.265750   0.000000
    5       19.357286   0.000000
    6       21.506386   0.000000
    7       24.789995   0.000000
    8       29.046731   0.000000
 
 -0.4666667E+00 -0.4666667E+00  0.1333333E+00  0.7111111E-02
    1        3.899424   1.000000
    2        4.270393   1.000000
    3       11.517849   0.000000
    4       15.982430   0.000000
    5       20.661532   0.000000
    6       22.436377   0.000000
    7       23.778581   0.000000
    8       27.011496   0.000000
 
 -0.4000000E+00 -0.4666667E+00  0.1333333E+00  0.1422222E-01
    1        3.675345   1.000000
    2        5.653057   1.000000
    3        9.429234   1.000000
    4       17.103794   0.000000
    5       20.106928   0.000000
    6       21.828562   0.000000
    7       23.108117   0.000000
    8       29.073792   0.000000
 
 -0.3333333E+00 -0.4666667E+00  0.1333333E+00  0.7111111E-02
    1        3.550309   1.000000
    2        7.297524   1.000000
    3        7.576002   1.000000
    4       17.926344   0.000000
    5       19.580901   0.000000
    6       21.254752   0.000000
    7       23.055706   0.000000
    8       30.945038   0.000000
 
 -0.4000000E+00 -0.4000000E+00  0.1333333E+00  0.7111111E-02
    1        5.197121   1.000000
    2        5.546916   1.000000
    3        7.324187   1.000000
    4       18.055477   0.000000
    5       20.168338   0.000000
    6       21.306316   0.000000
    7       21.881974   0.000000
    8       31.547228   0.000000
 
  0.2000000E+00  0.2000000E+00  0.2000000E+00  0.2370370E-02
    1        2.901588   1.000000
    2        8.415587   1.000000
    3        8.921434   1.000000
    4        8.921434   1.000000
    5       28.396374   0.000000
    6       28.396374   0.000000
    7       30.184887   0.000000
    8       30.184887   0.000000
 
  0.2666667E+00  0.2000000E+00  0.2000000E+00  0.7111111E-02
    1        4.588523   1.000000
    2        6.557106   1.000000
    3        8.363406   1.000000
    4        8.668942   1.000000
    5       28.933483   0.000000
    6       29.269169   0.000000
    7       30.883878   0.000000
    8       31.157324   0.000000
 
 -0.2000000E+00  0.2000000E+00  0.2000000E+00  0.1777778E-02
    1       -1.880825   1.000000
    2       14.300675   0.000000
    3       14.300675   0.000000
    4       16.213346   0.000000
    5       17.815245   0.000000
    6       24.819121   0.000000
    7       26.355658   0.000000
    8       26.355658   0.000000
 