 vasp.6.2.0 18Jan21 (build Aug 12 2022 13:00:08) complex                        
  
 executed on             LinuxIFC date 2024.11.03  22:07:47
 running on    4 total cores
 distrk:  each k-point on    4 cores,    1 groups
 distr:  one band on NCORE=   1 cores,    4 groups


--------------------------------------------------------------------------------------------------------


 INCAR:
   ISTART = 0            (Read existing wavefunction, if there)
   ISPIN = 1            (Non-Spin polarised DFT)
   LREAL = .FALSE.       (Projection operators: automatic)
   LWAVE = .FALSE.        (Write WAVECAR or not)
   LCHARG = .FALSE.        (Write CHGCAR or not)
   ADDGRID = .TRUE.        (Increase grid, helps GGA convergence)
   LASPH = .TRUE.        (Give more accurate total energies and band structure calculations)
   PREC = Accurate      (Accurate strictly avoids any aliasing or wrap around errors)
   ENCUT = 450          (Cut-off energy for plane wave basis set, in eV)
   ISMEAR = 0            (Gaussian smearing, metals:1)
   SIGMA = 0.05         (Smearing value in eV, metals:0.2)
   NELM = 90           (Max electronic SCF steps)
   NELMIN = 6            (Min electronic SCF steps)
   EDIFF = 1E-06        (SCF energy convergence, in eV)
   NSW = 100          (Max ionic steps)
   IBRION = 2            (Algorithm: 0-MD, 1-Quasi-New, 2-CG)
   ISIF = 3            (Stress/relaxation: 2-Ions, 3-Shape/Ions/V, 4-Shape/Ions)
   EDIFFG = -2E-03        (Ionic convergence, eV/AA)
   ISYM = 2              (Symmetry: 0\=none, 2\=GGA, 3\=hybrids)

 POTCAR:    PAW_PBE Si 05Jan2001                  
 POTCAR:    PAW_PBE Si 05Jan2001                  
   VRHFIN =Si: s2p2                                                                                 
   LEXCH  = PE                                                                                      
   EATOM  =   103.0669 eV,    7.5752 Ry                                                             
                                                                                                    
   TITEL  = PAW_PBE Si 05Jan2001                                                                    
   LULTRA =        F    use ultrasoft PP ?                                                          
   IUNSCR =        1    unscreen: 0-lin 1-nonlin 2-no                                               
   RPACOR =    1.500    partial core radius                                                         
   POMASS =   28.085; ZVAL   =    4.000    mass and valenz                                          
   RCORE  =    1.900    outmost cutoff radius                                                       
   RWIGS  =    2.480; RWIGS  =    1.312    wigner-seitz radius (au A)                               
   ENMAX  =  245.345; ENMIN  =  184.009 eV                                                          
   ICORE  =        2    local potential                                                             
   LCOR   =        T    correct aug charges                                                         
   LPAW   =        T    paw PP                                                                      
   EAUG   =  322.069                                                                                
   DEXC   =    0.000                                                                                
   RMAX   =    1.950    core radius for proj-oper                                                   
   RAUG   =    1.300    factor for augmentation sphere                                              
   RDEP   =    1.993    radius for radial grids                                                     
   RDEPT  =    1.837    core radius for aug-charge                                                  
                                                                                                    
   Atomic configuration                                                                             
    6 entries                                                                                       
     n  l   j            E        occ.                                                              
     1  0  0.50     -1785.8828   2.0000                                                             
     2  0  0.50      -139.4969   2.0000                                                             
     2  1  1.50       -95.5546   6.0000                                                             
     3  0  0.50       -10.8127   2.0000                                                             
     3  1  0.50        -4.0811   2.0000                                                             
     3  2  1.50        -4.0817   0.0000                                                             
   Description                                                                                      
     l       E           TYP  RCUT    TYP  RCUT                                                     
     0    -10.8127223     23  1.900                                                                 
     0     -7.6451159     23  1.900                                                                 
     1     -4.0811372     23  1.900                                                                 
     1      2.4879257     23  1.900                                                                 
     2     -4.0817478      7  1.900                                                                 
  local pseudopotential read in
  partial core-charges read in
  partial kinetic energy density read in
  atomic valenz-charges read in
  non local Contribution for L=           0  read in
    real space projection operators read in
  non local Contribution for L=           0  read in
    real space projection operators read in
  non local Contribution for L=           1  read in
    real space projection operators read in
  non local Contribution for L=           1  read in
    real space projection operators read in
    PAW grid and wavefunctions read in
 
   number of l-projection  operators is LMAX  =           4
   number of lm-projection operators is LMMAX =           8
 
  PAW_PBE Si 05Jan2001                  :
 energy of atom  1       EATOM= -103.0669
 kinetic energy error for atom=    0.0009 (will be added to EATOM!!)
 
 
 POSCAR: Si1
  positions in direct lattice
  No initial velocities read in
 exchange correlation table for  LEXCH =        8
   RHO(1)=    0.500       N(1)  =     2000
   RHO(2)=  100.500       N(2)  =     4000
 


--------------------------------------------------------------------------------------------------------


 ion  position               nearest neighbor table
   1  0.000  0.000  0.000-
 
  LATTYP: Found a body centered cubic cell.
 ALAT       =     3.0266512600
  
  Lattice vectors:
  
 A1 = (   1.5133256300,   1.5133256300,   1.5133256300)
 A2 = (   1.5133256300,  -1.5133256300,  -1.5133256300)
 A3 = (  -1.5133256300,   1.5133256300,  -1.5133256300)


Analysis of symmetry for initial positions (statically):
=====================================================================
 Subroutine PRICEL returns:
 Original cell was already a primitive cell.
 

 Routine SETGRP: Setting up the symmetry group for a 
 body centered cubic supercell.


 Subroutine GETGRP returns: Found 48 space group operations
 (whereof 48 operations were pure point group operations)
 out of a pool of 48 trial point group operations.


The static configuration has the point symmetry O_h .


Analysis of symmetry for dynamics (positions and initial velocities):
=====================================================================
 Subroutine PRICEL returns:
 Original cell was already a primitive cell.
 

 Routine SETGRP: Setting up the symmetry group for a 
 body centered cubic supercell.


 Subroutine GETGRP returns: Found 48 space group operations
 (whereof 48 operations were pure point group operations)
 out of a pool of 48 trial point group operations.


The dynamic configuration has the point symmetry O_h .


 Subroutine INISYM returns: Found 48 space group operations
 (whereof 48 operations are pure point group operations),
 and found     1 'primitive' translations


----------------------------------------------------------------------------------------

                                     Primitive cell                                     

  volume of cell :      13.8630

  direct lattice vectors                    reciprocal lattice vectors
     1.513325630  1.513325630  1.513325630     0.330398158  0.330398158  0.000000000
     1.513325630 -1.513325630 -1.513325630     0.330398158  0.000000000 -0.330398158
    -1.513325630  1.513325630 -1.513325630     0.000000000  0.330398158 -0.330398158

  length of vectors
     2.621156880  2.621156880  2.621156880     0.467253555  0.467253555  0.467253555

  position of ions in fractional coordinates (direct lattice)
     0.000000000  0.000000000  0.000000000

  ion indices of the primitive-cell ions
   primitive index   ion index
                 1           1

----------------------------------------------------------------------------------------

 
 
 KPOINTS: Automatic                               

Automatic generation of k-mesh.
 Grid dimensions read from file:
 generate k-points for:   15   15   15

 Generating k-lattice:

  Cartesian coordinates                     Fractional coordinates (reciprocal lattice)
     0.022026544  0.022026544  0.000000000     0.066666667  0.000000000  0.000000000
     0.022026544  0.000000000 -0.022026544     0.000000000  0.066666667  0.000000000
     0.000000000  0.022026544 -0.022026544     0.000000000  0.000000000  0.066666667

  Length of vectors
     0.031150237  0.031150237  0.031150237

  Shift w.r.t. Gamma in fractional coordinates (k-lattice)
     0.000000000  0.000000000  0.000000000

 
 Subroutine IBZKPT returns following result:
 ===========================================
 
 Found    120 irreducible k-points:
 
 Following reciprocal coordinates:
            Coordinates               Weight
  0.000000  0.000000  0.000000      1.000000
  0.066667  0.000000  0.000000     12.000000
  0.133333  0.000000  0.000000     12.000000
  0.200000  0.000000  0.000000     12.000000
  0.266667  0.000000  0.000000     12.000000
  0.333333  0.000000  0.000000     12.000000
  0.400000  0.000000  0.000000     12.000000
  0.466667  0.000000  0.000000     12.000000
  0.066667  0.066667  0.000000     24.000000
  0.133333  0.066667 -0.000000     48.000000
  0.200000  0.066667 -0.000000     48.000000
  0.266667  0.066667  0.000000     48.000000
  0.333333  0.066667 -0.000000     48.000000
  0.400000  0.066667  0.000000     48.000000
  0.466667  0.066667  0.000000     24.000000
  0.133333  0.133333  0.000000     24.000000
  0.200000  0.133333  0.000000     48.000000
  0.266667  0.133333  0.000000     48.000000
  0.333333  0.133333  0.000000     48.000000
  0.400000  0.133333  0.000000     48.000000
  0.200000  0.200000  0.000000     24.000000
  0.266667  0.200000  0.000000     48.000000
  0.333333  0.200000  0.000000     48.000000
  0.400000  0.200000  0.000000     24.000000
  0.266667  0.266667  0.000000     24.000000
  0.333333  0.266667  0.000000     48.000000
  0.333333  0.333333  0.000000      8.000000
  0.066667  0.066667  0.066667      8.000000
  0.133333  0.066667  0.066667     24.000000
  0.200000  0.066667  0.066667     24.000000
  0.266667  0.066667  0.066667     24.000000
  0.333333  0.066667  0.066667     24.000000
  0.400000  0.066667  0.066667     24.000000
 -0.066667  0.066667  0.066667      6.000000
  0.133333  0.133333  0.066667     24.000000
  0.200000  0.133333  0.066667     48.000000
  0.266667  0.133333  0.066667     48.000000
  0.333333  0.133333  0.066667     48.000000
  0.400000  0.133333  0.066667     24.000000
 -0.133333  0.133333  0.066667     24.000000
  0.200000  0.200000  0.066667     24.000000
  0.266667  0.200000  0.066667     48.000000
  0.333333  0.200000  0.066667     48.000000
 -0.200000  0.200000  0.066667     24.000000
 -0.133333  0.200000  0.066667     24.000000
  0.266667  0.266667  0.066667     24.000000
  0.333333  0.266667  0.066667     24.000000
 -0.266667  0.266667  0.066667     24.000000
 -0.200000  0.266667  0.066667     48.000000
 -0.333333  0.333333  0.066667     24.000000
 -0.266667  0.333333  0.066667     48.000000
 -0.200000  0.333333  0.066667     24.000000
 -0.400000  0.400000  0.066667     24.000000
 -0.333333  0.400000  0.066667     48.000000
 -0.266667  0.400000  0.066667     48.000000
 -0.466667  0.466667  0.066667     24.000000
 -0.400000  0.466667  0.066667     48.000000
 -0.333333  0.466667  0.066667     48.000000
 -0.266667  0.466667  0.066667     24.000000
 -0.466667 -0.466667  0.066667     24.000000
 -0.400000 -0.466667  0.066667     48.000000
 -0.333333 -0.466667  0.066667     48.000000
 -0.400000 -0.400000  0.066667     24.000000
 -0.333333 -0.400000  0.066667     24.000000
  0.133333  0.133333  0.133333      8.000000
  0.200000  0.133333  0.133333     24.000000
  0.266667  0.133333  0.133333     24.000000
  0.333333  0.133333  0.133333     24.000000
 -0.133333  0.133333  0.133333      6.000000
  0.200000  0.200000  0.133333     24.000000
  0.266667  0.200000  0.133333     48.000000
  0.333333  0.200000  0.133333     24.000000
 -0.200000  0.200000  0.133333     24.000000
  0.266667  0.266667  0.133333     24.000000
 -0.266667  0.266667  0.133333     24.000000
 -0.200000  0.266667  0.133333     24.000000
 -0.333333  0.333333  0.133333     24.000000
 -0.266667  0.333333  0.133333     48.000000
 -0.400000  0.400000  0.133333     24.000000
 -0.333333  0.400000  0.133333     48.000000
 -0.266667  0.400000  0.133333     24.000000
 -0.466667  0.466667  0.133333     24.000000
 -0.400000  0.466667  0.133333     48.000000
 -0.333333  0.466667  0.133333     48.000000
 -0.466667 -0.466667  0.133333     24.000000
 -0.400000 -0.466667  0.133333     48.000000
 -0.333333 -0.466667  0.133333     24.000000
 -0.400000 -0.400000  0.133333     24.000000
  0.200000  0.200000  0.200000      8.000000
  0.266667  0.200000  0.200000     24.000000
 -0.200000  0.200000  0.200000      6.000000
  0.266667  0.266667  0.200000      8.000000
 -0.266667  0.266667  0.200000     24.000000
 -0.333333  0.333333  0.200000     24.000000
 -0.266667  0.333333  0.200000     24.000000
 -0.400000  0.400000  0.200000     24.000000
 -0.333333  0.400000  0.200000     48.000000
 -0.466667  0.466667  0.200000     24.000000
 -0.400000  0.466667  0.200000     48.000000
 -0.333333  0.466667  0.200000     24.000000
 -0.466667 -0.466667  0.200000     24.000000
 -0.400000 -0.466667  0.200000     48.000000
 -0.400000 -0.400000  0.200000      8.000000
 -0.266667  0.266667  0.266667      6.000000
 -0.333333  0.333333  0.266667     24.000000
 -0.400000  0.400000  0.266667     24.000000
 -0.333333  0.400000  0.266667     24.000000
 -0.466667  0.466667  0.266667     24.000000
 -0.400000  0.466667  0.266667     48.000000
 -0.466667 -0.466667  0.266667     24.000000
 -0.400000 -0.466667  0.266667     24.000000
 -0.333333  0.333333  0.333333      6.000000
 -0.400000  0.400000  0.333333     24.000000
 -0.466667  0.466667  0.333333     24.000000
 -0.400000  0.466667  0.333333     24.000000
 -0.466667 -0.466667  0.333333     24.000000
 -0.400000  0.400000  0.400000      6.000000
 -0.466667  0.466667  0.400000     24.000000
 -0.466667 -0.466667  0.400000      8.000000
 -0.466667  0.466667  0.466667      6.000000
 
 Following cartesian coordinates:
            Coordinates               Weight
  0.000000  0.000000  0.000000      1.000000
  0.022027  0.022027  0.000000     12.000000
  0.044053  0.044053  0.000000     12.000000
  0.066080  0.066080  0.000000     12.000000
  0.088106  0.088106  0.000000     12.000000
  0.110133  0.110133  0.000000     12.000000
  0.132159  0.132159  0.000000     12.000000
  0.154186  0.154186  0.000000     12.000000
  0.044053  0.022027 -0.022027     24.000000
  0.066080  0.044053 -0.022027     48.000000
  0.088106  0.066080 -0.022027     48.000000
  0.110133  0.088106 -0.022027     48.000000
  0.132159  0.110133 -0.022027     48.000000
  0.154186  0.132159 -0.022027     48.000000
  0.176212  0.154186 -0.022027     24.000000
  0.088106  0.044053 -0.044053     24.000000
  0.110133  0.066080 -0.044053     48.000000
  0.132159  0.088106 -0.044053     48.000000
  0.154186  0.110133 -0.044053     48.000000
  0.176212  0.132159 -0.044053     48.000000
  0.132159  0.066080 -0.066080     24.000000
  0.154186  0.088106 -0.066080     48.000000
  0.176212  0.110133 -0.066080     48.000000
  0.198239  0.132159 -0.066080     24.000000
  0.176212  0.088106 -0.088106     24.000000
  0.198239  0.110133 -0.088106     48.000000
  0.220265  0.110133 -0.110133      8.000000
  0.044053  0.044053 -0.044053      8.000000
  0.066080  0.066080 -0.044053     24.000000
  0.088106  0.088106 -0.044053     24.000000
  0.110133  0.110133 -0.044053     24.000000
  0.132159  0.132159 -0.044053     24.000000
  0.154186  0.154186 -0.044053     24.000000
  0.000000  0.000000 -0.044053      6.000000
  0.088106  0.066080 -0.066080     24.000000
  0.110133  0.088106 -0.066080     48.000000
  0.132159  0.110133 -0.066080     48.000000
  0.154186  0.132159 -0.066080     48.000000
  0.176212  0.154186 -0.066080     24.000000
  0.000000 -0.022027 -0.066080     24.000000
  0.132159  0.088106 -0.088106     24.000000
  0.154186  0.110133 -0.088106     48.000000
  0.176212  0.132159 -0.088106     48.000000
  0.000000 -0.044053 -0.088106     24.000000
  0.022027 -0.022027 -0.088106     24.000000
  0.176212  0.110133 -0.110133     24.000000
  0.198239  0.132159 -0.110133     24.000000
  0.000000 -0.066080 -0.110133     24.000000
  0.022027 -0.044053 -0.110133     48.000000
  0.000000 -0.088106 -0.132159     24.000000
  0.022027 -0.066080 -0.132159     48.000000
  0.044053 -0.044053 -0.132159     24.000000
  0.000000 -0.110133 -0.154186     24.000000
  0.022027 -0.088106 -0.154186     48.000000
  0.044053 -0.066080 -0.154186     48.000000
  0.000000 -0.132159 -0.176212     24.000000
  0.022027 -0.110133 -0.176212     48.000000
  0.044053 -0.088106 -0.176212     48.000000
  0.066080 -0.066080 -0.176212     24.000000
 -0.308372 -0.132159  0.132159     24.000000
 -0.286345 -0.110133  0.132159     48.000000
 -0.264319 -0.088106  0.132159     48.000000
 -0.264319 -0.110133  0.110133     24.000000
 -0.242292 -0.088106  0.110133     24.000000
  0.088106  0.088106 -0.088106      8.000000
  0.110133  0.110133 -0.088106     24.000000
  0.132159  0.132159 -0.088106     24.000000
  0.154186  0.154186 -0.088106     24.000000
  0.000000  0.000000 -0.088106      6.000000
  0.132159  0.110133 -0.110133     24.000000
  0.154186  0.132159 -0.110133     48.000000
  0.176212  0.154186 -0.110133     24.000000
  0.000000 -0.022027 -0.110133     24.000000
  0.176212  0.132159 -0.132159     24.000000
  0.000000 -0.044053 -0.132159     24.000000
  0.022027 -0.022027 -0.132159     24.000000
  0.000000 -0.066080 -0.154186     24.000000
  0.022027 -0.044053 -0.154186     48.000000
  0.000000 -0.088106 -0.176212     24.000000
  0.022027 -0.066080 -0.176212     48.000000
  0.044053 -0.044053 -0.176212     24.000000
  0.000000 -0.110133 -0.198239     24.000000
  0.022027 -0.088106 -0.198239     48.000000
  0.044053 -0.066080 -0.198239     48.000000
 -0.308372 -0.110133  0.110133     24.000000
 -0.286345 -0.088106  0.110133     48.000000
 -0.264319 -0.066080  0.110133     24.000000
 -0.264319 -0.088106  0.088106     24.000000
  0.132159  0.132159 -0.132159      8.000000
  0.154186  0.154186 -0.132159     24.000000
  0.000000  0.000000 -0.132159      6.000000
  0.176212  0.154186 -0.154186      8.000000
  0.000000 -0.022027 -0.154186     24.000000
  0.000000 -0.044053 -0.176212     24.000000
  0.022027 -0.022027 -0.176212     24.000000
  0.000000 -0.066080 -0.198239     24.000000
  0.022027 -0.044053 -0.198239     48.000000
  0.000000 -0.088106 -0.220265     24.000000
  0.022027 -0.066080 -0.220265     48.000000
  0.044053 -0.044053 -0.220265     24.000000
 -0.308372 -0.088106  0.088106     24.000000
 -0.286345 -0.066080  0.088106     48.000000
 -0.264319 -0.066080  0.066080      8.000000
  0.000000  0.000000 -0.176212      6.000000
  0.000000 -0.022027 -0.198239     24.000000
  0.000000 -0.044053 -0.220265     24.000000
  0.022027 -0.022027 -0.220265     24.000000
  0.000000 -0.066080 -0.242292     24.000000
  0.022027 -0.044053 -0.242292     48.000000
 -0.308372 -0.066080  0.066080     24.000000
 -0.286345 -0.044053  0.066080     24.000000
  0.000000  0.000000 -0.220265      6.000000
  0.000000 -0.022027 -0.242292     24.000000
  0.000000 -0.044053 -0.264319     24.000000
  0.022027 -0.022027 -0.264319     24.000000
 -0.308372 -0.044053  0.044053     24.000000
  0.000000  0.000000 -0.264319      6.000000
  0.000000 -0.022027 -0.286345     24.000000
 -0.308372 -0.022027  0.022027      8.000000
  0.000000  0.000000 -0.308372      6.000000
 


--------------------------------------------------------------------------------------------------------




 Dimension of arrays:
   k-points           NKPTS =    120   k-points in BZ     NKDIM =    120   number of bands    NBANDS=      8
   number of dos      NEDOS =    301   number of ions     NIONS =      1
   non local maximal  LDIM  =      4   non local SUM 2l+1 LMDIM =      8
   total plane-waves  NPLWV =   5832
   max r-space proj   IRMAX =      1   max aug-charges    IRDMAX= 112712
   dimension x,y,z NGX =    18 NGY =   18 NGZ =   18
   dimension x,y,z NGXF=    36 NGYF=   36 NGZF=   36
   support grid    NGXF=    72 NGYF=   72 NGZF=   72
   ions per type =               1
   NGX,Y,Z   is equivalent  to a cutoff of  11.42, 11.42, 11.42 a.u.
   NGXF,Y,Z  is equivalent  to a cutoff of  22.83, 22.83, 22.83 a.u.

 SYSTEM =  unknown system                          
 POSCAR =  Si1                                     

 Startparameter for this run:
   NWRITE =      2    write-flag & timer
   PREC   = accura    normal or accurate (medium, high low for compatibility)
   ISTART =      0    job   : 0-new  1-cont  2-samecut
   ICHARG =      2    charge: 1-file 2-atom 10-const
   ISPIN  =      1    spin polarized calculation?
   LNONCOLLINEAR =      F non collinear calculations
   LSORBIT =      F    spin-orbit coupling
   INIWAV =      1    electr: 0-lowe 1-rand  2-diag
   LASPH  =      T    aspherical Exc in radial PAW
   METAGGA=      F    non-selfconsistent MetaGGA calc.

 Electronic Relaxation 1
   ENCUT  =  450.0 eV  33.07 Ry    5.75 a.u.   4.53  4.53  4.53*2*pi/ulx,y,z
   ENINI  =  450.0     initial cutoff
   ENAUG  =  322.1 eV  augmentation charge cutoff
   NELM   =     90;   NELMIN=  6; NELMDL= -5     # of ELM steps 
   EDIFF  = 0.1E-05   stopping-criterion for ELM
   LREAL  =      F    real-space projection
   NLSPLINE    = F    spline interpolate recip. space projectors
   LCOMPAT=      F    compatible to vasp.4.4
   GGA_COMPAT  = T    GGA compatible to vasp.4.4-vasp.4.6
   LMAXPAW     = -100 max onsite density
   LMAXMIX     =    2 max onsite mixed and CHGCAR
   VOSKOWN=      0    Vosko Wilk Nusair interpolation
   ROPT   =    0.00000
 Ionic relaxation
   EDIFFG = -.2E-02   stopping-criterion for IOM
   NSW    =    100    number of steps for IOM
   NBLOCK =      1;   KBLOCK =    100    inner block; outer block 
   IBRION =      2    ionic relax: 0-MD 1-quasi-New 2-CG
   NFREE  =      1    steps in history (QN), initial steepest desc. (CG)
   ISIF   =      3    stress and relaxation
   IWAVPR =     11    prediction:  0-non 1-charg 2-wave 3-comb
   ISYM   =      2    0-nonsym 1-usesym 2-fastsym
   LCORR  =      T    Harris-Foulkes like correction to forces

   POTIM  = 0.5000    time-step for ionic-motion
   TEIN   =    0.0    initial temperature
   TEBEG  =    0.0;   TEEND  =   0.0 temperature during run
   SMASS  =  -3.00    Nose mass-parameter (am)
   estimated Nose-frequenzy (Omega)   =  0.10E-29 period in steps = 0.13E+47 mass=  -0.157E-27a.u.
   SCALEE = 1.0000    scale energy and forces
   NPACO  =    256;   APACO  = 16.0  distance and # of slots for P.C.
   PSTRESS=    0.0 pullay stress

  Mass of Ions in am
   POMASS =  28.09
  Ionic Valenz
   ZVAL   =   4.00
  Atomic Wigner-Seitz radii
   RWIGS  =  -1.00
  virtual crystal weights 
   VCA    =   1.00
   NELECT =       4.0000    total number of electrons
   NUPDOWN=      -1.0000    fix difference up-down

 DOS related values:
   EMIN   =  10.00;   EMAX   =-10.00  energy-range for DOS
   EFERMI =   0.00
   ISMEAR =     0;   SIGMA  =   0.05  broadening in eV -4-tet -1-fermi 0-gaus

 Electronic relaxation 2 (details)
   IALGO  =     38    algorithm
   LDIAG  =      T    sub-space diagonalisation (order eigenvalues)
   LSUBROT=      F    optimize rotation matrix (better conditioning)
   TURBO    =      0    0=normal 1=particle mesh
   IRESTART =      0    0=no restart 2=restart with 2 vectors
   NREBOOT  =      0    no. of reboots
   NMIN     =      0    reboot dimension
   EREF     =   0.00    reference energy to select bands
   IMIX   =      4    mixing-type and parameters
     AMIX     =   0.40;   BMIX     =  1.00
     AMIX_MAG =   1.60;   BMIX_MAG =  1.00
     AMIN     =   0.10
     WC   =   100.;   INIMIX=   1;  MIXPRE=   1;  MAXMIX= -45

 Intra band minimization:
   WEIMIN = 0.0010     energy-eigenvalue tresh-hold
   EBREAK =  0.31E-07  absolut break condition
   DEPER  =   0.30     relativ break condition  

   TIME   =   0.40     timestep for ELM

  volume/ion in A,a.u.               =      13.86        93.55
  Fermi-wavevector in a.u.,A,eV,Ry     =   1.081789  2.044284 15.922447  1.170267
  Thomas-Fermi vector in A             =   2.217814
 
 Write flags
   LWAVE        =      F    write WAVECAR
   LDOWNSAMPLE  =      F    k-point downsampling of WAVECAR
   LCHARG       =      F    write CHGCAR
   LVTOT        =      F    write LOCPOT, total local potential
   LVHAR        =      F    write LOCPOT, Hartree potential only
   LELF         =      F    write electronic localiz. function (ELF)
   LORBIT       =      0    0 simple, 1 ext, 2 COOP (PROOUT), +10 PAW based schemes


 Dipole corrections
   LMONO  =      F    monopole corrections only (constant potential shift)
   LDIPOL =      F    correct potential (dipole corrections)
   IDIPOL =      0    1-x, 2-y, 3-z, 4-all directions 
   EPSILON=  1.0000000 bulk dielectric constant

 Exchange correlation treatment:
   GGA     =    --    GGA type
   LEXCH   =     8    internal setting for exchange type
   VOSKOWN=      0    Vosko Wilk Nusair interpolation
   LHFCALC =     F    Hartree Fock is set to
   LHFONE  =     F    Hartree Fock one center treatment
   AEXX    =    0.0000 exact exchange contribution

 Linear response parameters
   LEPSILON=     F    determine dielectric tensor
   LRPA    =     F    only Hartree local field effects (RPA)
   LNABLA  =     F    use nabla operator in PAW spheres
   LVEL    =     F    velocity operator in full k-point grid
   LINTERFAST=   F  fast interpolation
   KINTER  =     0    interpolate to denser k-point grid
   CSHIFT  =0.1000    complex shift for real part using Kramers Kronig
   OMEGAMAX=  -1.0    maximum frequency
   DEG_THRESHOLD= 0.2000000E-02 threshold for treating states as degnerate
   RTIME   =   -0.100 relaxation time in fs
  (WPLASMAI=    0.000 imaginary part of plasma frequency in eV, 0.658/RTIME)
   DFIELD  = 0.0000000 0.0000000 0.0000000 field for delta impulse in time
 
 Orbital magnetization related:
   ORBITALMAG=     F  switch on orbital magnetization
   LCHIMAG   =     F  perturbation theory with respect to B field
   DQ        =  0.001000  dq finite difference perturbation B field
   LLRAUG    =     F  two centre corrections for induced B field



--------------------------------------------------------------------------------------------------------


 conjugate gradient relaxation of ions
 charge density and potential will be updated during run
 non-spin polarized calculation
 Variant of blocked Davidson
 Davidson routine will perform the subspace rotation
 perform sub-space diagonalisation
    after iterative eigenvector-optimisation
 modified Broyden-mixing scheme, WC =      100.0
 initial mixing is a Kerker type mixing with AMIX =  0.4000 and BMIX =      1.0000
 Hartree-type preconditioning will be used
 using additional bands            6
 reciprocal scheme for non local part
 use partial core corrections
 calculate Harris-corrections to forces 
   (improved forces if not selfconsistent)
 use gradient corrections 
 use of overlap-Matrix (Vanderbilt PP)
 Gauss-broadening in eV      SIGMA  =   0.05


--------------------------------------------------------------------------------------------------------


  energy-cutoff  :      450.00
  volume of cell :       13.86
      direct lattice vectors                 reciprocal lattice vectors
     1.513325630  1.513325630  1.513325630     0.330398158  0.330398158  0.000000000
     1.513325630 -1.513325630 -1.513325630     0.330398158  0.000000000 -0.330398158
    -1.513325630  1.513325630 -1.513325630     0.000000000  0.330398158 -0.330398158

  length of vectors
     2.621156880  2.621156880  2.621156880     0.467253555  0.467253555  0.467253555


 
 k-points in units of 2pi/SCALE and weight: Automatic                               
   0.00000000  0.00000000  0.00000000       0.000
   0.02202654  0.02202654  0.00000000       0.004
   0.04405309  0.04405309  0.00000000       0.004
   0.06607963  0.06607963  0.00000000       0.004
   0.08810618  0.08810618  0.00000000       0.004
   0.11013272  0.11013272  0.00000000       0.004
   0.13215926  0.13215926  0.00000000       0.004
   0.15418581  0.15418581  0.00000000       0.004
   0.04405309  0.02202654 -0.02202654       0.007
   0.06607963  0.04405309 -0.02202654       0.014
   0.08810618  0.06607963 -0.02202654       0.014
   0.11013272  0.08810618 -0.02202654       0.014
   0.13215926  0.11013272 -0.02202654       0.014
   0.15418581  0.13215926 -0.02202654       0.014
   0.17621235  0.15418581 -0.02202654       0.007
   0.08810618  0.04405309 -0.04405309       0.007
   0.11013272  0.06607963 -0.04405309       0.014
   0.13215926  0.08810618 -0.04405309       0.014
   0.15418581  0.11013272 -0.04405309       0.014
   0.17621235  0.13215926 -0.04405309       0.014
   0.13215926  0.06607963 -0.06607963       0.007
   0.15418581  0.08810618 -0.06607963       0.014
   0.17621235  0.11013272 -0.06607963       0.014
   0.19823889  0.13215926 -0.06607963       0.007
   0.17621235  0.08810618 -0.08810618       0.007
   0.19823889  0.11013272 -0.08810618       0.014
   0.22026544  0.11013272 -0.11013272       0.002
   0.04405309  0.04405309 -0.04405309       0.002
   0.06607963  0.06607963 -0.04405309       0.007
   0.08810618  0.08810618 -0.04405309       0.007
   0.11013272  0.11013272 -0.04405309       0.007
   0.13215926  0.13215926 -0.04405309       0.007
   0.15418581  0.15418581 -0.04405309       0.007
   0.00000000  0.00000000 -0.04405309       0.002
   0.08810618  0.06607963 -0.06607963       0.007
   0.11013272  0.08810618 -0.06607963       0.014
   0.13215926  0.11013272 -0.06607963       0.014
   0.15418581  0.13215926 -0.06607963       0.014
   0.17621235  0.15418581 -0.06607963       0.007
   0.00000000 -0.02202654 -0.06607963       0.007
   0.13215926  0.08810618 -0.08810618       0.007
   0.15418581  0.11013272 -0.08810618       0.014
   0.17621235  0.13215926 -0.08810618       0.014
   0.00000000 -0.04405309 -0.08810618       0.007
   0.02202654 -0.02202654 -0.08810618       0.007
   0.17621235  0.11013272 -0.11013272       0.007
   0.19823889  0.13215926 -0.11013272       0.007
   0.00000000 -0.06607963 -0.11013272       0.007
   0.02202654 -0.04405309 -0.11013272       0.014
   0.00000000 -0.08810618 -0.13215926       0.007
   0.02202654 -0.06607963 -0.13215926       0.014
   0.04405309 -0.04405309 -0.13215926       0.007
   0.00000000 -0.11013272 -0.15418581       0.007
   0.02202654 -0.08810618 -0.15418581       0.014
   0.04405309 -0.06607963 -0.15418581       0.014
   0.00000000 -0.13215926 -0.17621235       0.007
   0.02202654 -0.11013272 -0.17621235       0.014
   0.04405309 -0.08810618 -0.17621235       0.014
   0.06607963 -0.06607963 -0.17621235       0.007
  -0.30837161 -0.13215926  0.13215926       0.007
  -0.28634507 -0.11013272  0.13215926       0.014
  -0.26431853 -0.08810618  0.13215926       0.014
  -0.26431853 -0.11013272  0.11013272       0.007
  -0.24229198 -0.08810618  0.11013272       0.007
   0.08810618  0.08810618 -0.08810618       0.002
   0.11013272  0.11013272 -0.08810618       0.007
   0.13215926  0.13215926 -0.08810618       0.007
   0.15418581  0.15418581 -0.08810618       0.007
   0.00000000  0.00000000 -0.08810618       0.002
   0.13215926  0.11013272 -0.11013272       0.007
   0.15418581  0.13215926 -0.11013272       0.014
   0.17621235  0.15418581 -0.11013272       0.007
   0.00000000 -0.02202654 -0.11013272       0.007
   0.17621235  0.13215926 -0.13215926       0.007
   0.00000000 -0.04405309 -0.13215926       0.007
   0.02202654 -0.02202654 -0.13215926       0.007
   0.00000000 -0.06607963 -0.15418581       0.007
   0.02202654 -0.04405309 -0.15418581       0.014
   0.00000000 -0.08810618 -0.17621235       0.007
   0.02202654 -0.06607963 -0.17621235       0.014
   0.04405309 -0.04405309 -0.17621235       0.007
   0.00000000 -0.11013272 -0.19823889       0.007
   0.02202654 -0.08810618 -0.19823889       0.014
   0.04405309 -0.06607963 -0.19823889       0.014
  -0.30837161 -0.11013272  0.11013272       0.007
  -0.28634507 -0.08810618  0.11013272       0.014
  -0.26431853 -0.06607963  0.11013272       0.007
  -0.26431853 -0.08810618  0.08810618       0.007
   0.13215926  0.13215926 -0.13215926       0.002
   0.15418581  0.15418581 -0.13215926       0.007
   0.00000000  0.00000000 -0.13215926       0.002
   0.17621235  0.15418581 -0.15418581       0.002
   0.00000000 -0.02202654 -0.15418581       0.007
   0.00000000 -0.04405309 -0.17621235       0.007
   0.02202654 -0.02202654 -0.17621235       0.007
   0.00000000 -0.06607963 -0.19823889       0.007
   0.02202654 -0.04405309 -0.19823889       0.014
   0.00000000 -0.08810618 -0.22026544       0.007
   0.02202654 -0.06607963 -0.22026544       0.014
   0.04405309 -0.04405309 -0.22026544       0.007
  -0.30837161 -0.08810618  0.08810618       0.007
  -0.28634507 -0.06607963  0.08810618       0.014
  -0.26431853 -0.06607963  0.06607963       0.002
   0.00000000  0.00000000 -0.17621235       0.002
   0.00000000 -0.02202654 -0.19823889       0.007
   0.00000000 -0.04405309 -0.22026544       0.007
   0.02202654 -0.02202654 -0.22026544       0.007
   0.00000000 -0.06607963 -0.24229198       0.007
   0.02202654 -0.04405309 -0.24229198       0.014
  -0.30837161 -0.06607963  0.06607963       0.007
  -0.28634507 -0.04405309  0.06607963       0.007
   0.00000000  0.00000000 -0.22026544       0.002
   0.00000000 -0.02202654 -0.24229198       0.007
   0.00000000 -0.04405309 -0.26431853       0.007
   0.02202654 -0.02202654 -0.26431853       0.007
  -0.30837161 -0.04405309  0.04405309       0.007
   0.00000000  0.00000000 -0.26431853       0.002
   0.00000000 -0.02202654 -0.28634507       0.007
  -0.30837161 -0.02202654  0.02202654       0.002
   0.00000000  0.00000000 -0.30837161       0.002
 
 k-points in reciprocal lattice and weights: Automatic                               
   0.00000000  0.00000000  0.00000000       0.000
   0.06666667  0.00000000  0.00000000       0.004
   0.13333333  0.00000000  0.00000000       0.004
   0.20000000  0.00000000  0.00000000       0.004
   0.26666667  0.00000000  0.00000000       0.004
   0.33333333  0.00000000  0.00000000       0.004
   0.40000000  0.00000000  0.00000000       0.004
   0.46666667  0.00000000  0.00000000       0.004
   0.06666667  0.06666667  0.00000000       0.007
   0.13333333  0.06666667 -0.00000000       0.014
   0.20000000  0.06666667 -0.00000000       0.014
   0.26666667  0.06666667  0.00000000       0.014
   0.33333333  0.06666667 -0.00000000       0.014
   0.40000000  0.06666667  0.00000000       0.014
   0.46666667  0.06666667  0.00000000       0.007
   0.13333333  0.13333333  0.00000000       0.007
   0.20000000  0.13333333  0.00000000       0.014
   0.26666667  0.13333333  0.00000000       0.014
   0.33333333  0.13333333  0.00000000       0.014
   0.40000000  0.13333333  0.00000000       0.014
   0.20000000  0.20000000  0.00000000       0.007
   0.26666667  0.20000000  0.00000000       0.014
   0.33333333  0.20000000  0.00000000       0.014
   0.40000000  0.20000000  0.00000000       0.007
   0.26666667  0.26666667  0.00000000       0.007
   0.33333333  0.26666667  0.00000000       0.014
   0.33333333  0.33333333  0.00000000       0.002
   0.06666667  0.06666667  0.06666667       0.002
   0.13333333  0.06666667  0.06666667       0.007
   0.20000000  0.06666667  0.06666667       0.007
   0.26666667  0.06666667  0.06666667       0.007
   0.33333333  0.06666667  0.06666667       0.007
   0.40000000  0.06666667  0.06666667       0.007
  -0.06666667  0.06666667  0.06666667       0.002
   0.13333333  0.13333333  0.06666667       0.007
   0.20000000  0.13333333  0.06666667       0.014
   0.26666667  0.13333333  0.06666667       0.014
   0.33333333  0.13333333  0.06666667       0.014
   0.40000000  0.13333333  0.06666667       0.007
  -0.13333333  0.13333333  0.06666667       0.007
   0.20000000  0.20000000  0.06666667       0.007
   0.26666667  0.20000000  0.06666667       0.014
   0.33333333  0.20000000  0.06666667       0.014
  -0.20000000  0.20000000  0.06666667       0.007
  -0.13333333  0.20000000  0.06666667       0.007
   0.26666667  0.26666667  0.06666667       0.007
   0.33333333  0.26666667  0.06666667       0.007
  -0.26666667  0.26666667  0.06666667       0.007
  -0.20000000  0.26666667  0.06666667       0.014
  -0.33333333  0.33333333  0.06666667       0.007
  -0.26666667  0.33333333  0.06666667       0.014
  -0.20000000  0.33333333  0.06666667       0.007
  -0.40000000  0.40000000  0.06666667       0.007
  -0.33333333  0.40000000  0.06666667       0.014
  -0.26666667  0.40000000  0.06666667       0.014
  -0.46666667  0.46666667  0.06666667       0.007
  -0.40000000  0.46666667  0.06666667       0.014
  -0.33333333  0.46666667  0.06666667       0.014
  -0.26666667  0.46666667  0.06666667       0.007
  -0.46666667 -0.46666667  0.06666667       0.007
  -0.40000000 -0.46666667  0.06666667       0.014
  -0.33333333 -0.46666667  0.06666667       0.014
  -0.40000000 -0.40000000  0.06666667       0.007
  -0.33333333 -0.40000000  0.06666667       0.007
   0.13333333  0.13333333  0.13333333       0.002
   0.20000000  0.13333333  0.13333333       0.007
   0.26666667  0.13333333  0.13333333       0.007
   0.33333333  0.13333333  0.13333333       0.007
  -0.13333333  0.13333333  0.13333333       0.002
   0.20000000  0.20000000  0.13333333       0.007
   0.26666667  0.20000000  0.13333333       0.014
   0.33333333  0.20000000  0.13333333       0.007
  -0.20000000  0.20000000  0.13333333       0.007
   0.26666667  0.26666667  0.13333333       0.007
  -0.26666667  0.26666667  0.13333333       0.007
  -0.20000000  0.26666667  0.13333333       0.007
  -0.33333333  0.33333333  0.13333333       0.007
  -0.26666667  0.33333333  0.13333333       0.014
  -0.40000000  0.40000000  0.13333333       0.007
  -0.33333333  0.40000000  0.13333333       0.014
  -0.26666667  0.40000000  0.13333333       0.007
  -0.46666667  0.46666667  0.13333333       0.007
  -0.40000000  0.46666667  0.13333333       0.014
  -0.33333333  0.46666667  0.13333333       0.014
  -0.46666667 -0.46666667  0.13333333       0.007
  -0.40000000 -0.46666667  0.13333333       0.014
  -0.33333333 -0.46666667  0.13333333       0.007
  -0.40000000 -0.40000000  0.13333333       0.007
   0.20000000  0.20000000  0.20000000       0.002
   0.26666667  0.20000000  0.20000000       0.007
  -0.20000000  0.20000000  0.20000000       0.002
   0.26666667  0.26666667  0.20000000       0.002
  -0.26666667  0.26666667  0.20000000       0.007
  -0.33333333  0.33333333  0.20000000       0.007
  -0.26666667  0.33333333  0.20000000       0.007
  -0.40000000  0.40000000  0.20000000       0.007
  -0.33333333  0.40000000  0.20000000       0.014
  -0.46666667  0.46666667  0.20000000       0.007
  -0.40000000  0.46666667  0.20000000       0.014
  -0.33333333  0.46666667  0.20000000       0.007
  -0.46666667 -0.46666667  0.20000000       0.007
  -0.40000000 -0.46666667  0.20000000       0.014
  -0.40000000 -0.40000000  0.20000000       0.002
  -0.26666667  0.26666667  0.26666667       0.002
  -0.33333333  0.33333333  0.26666667       0.007
  -0.40000000  0.40000000  0.26666667       0.007
  -0.33333333  0.40000000  0.26666667       0.007
  -0.46666667  0.46666667  0.26666667       0.007
  -0.40000000  0.46666667  0.26666667       0.014
  -0.46666667 -0.46666667  0.26666667       0.007
  -0.40000000 -0.46666667  0.26666667       0.007
  -0.33333333  0.33333333  0.33333333       0.002
  -0.40000000  0.40000000  0.33333333       0.007
  -0.46666667  0.46666667  0.33333333       0.007
  -0.40000000  0.46666667  0.33333333       0.007
  -0.46666667 -0.46666667  0.33333333       0.007
  -0.40000000  0.40000000  0.40000000       0.002
  -0.46666667  0.46666667  0.40000000       0.007
  -0.46666667 -0.46666667  0.40000000       0.002
  -0.46666667  0.46666667  0.46666667       0.002
 
 position of ions in fractional coordinates (direct lattice) 
   0.00000000  0.00000000  0.00000000
 
 position of ions in cartesian coordinates  (Angst):
   0.00000000  0.00000000  0.00000000
 


--------------------------------------------------------------------------------------------------------


 k-point   1 :   0.0000 0.0000 0.0000  plane waves:     321
 k-point   2 :   0.0667 0.0000 0.0000  plane waves:     321
 k-point   3 :   0.1333 0.0000 0.0000  plane waves:     315
 k-point   4 :   0.2000 0.0000 0.0000  plane waves:     305
 k-point   5 :   0.2667 0.0000 0.0000  plane waves:     305
 k-point   6 :   0.3333 0.0000 0.0000  plane waves:     298
 k-point   7 :   0.4000 0.0000 0.0000  plane waves:     300
 k-point   8 :   0.4667 0.0000 0.0000  plane waves:     300
 k-point   9 :   0.0667 0.0667 0.0000  plane waves:     315
 k-point  10 :   0.1333 0.0667-0.0000  plane waves:     305
 k-point  11 :   0.2000 0.0667-0.0000  plane waves:     305
 k-point  12 :   0.2667 0.0667 0.0000  plane waves:     302
 k-point  13 :   0.3333 0.0667-0.0000  plane waves:     298
 k-point  14 :   0.4000 0.0667 0.0000  plane waves:     300
 k-point  15 :   0.4667 0.0667 0.0000  plane waves:     300
 k-point  16 :   0.1333 0.1333 0.0000  plane waves:     303
 k-point  17 :   0.2000 0.1333 0.0000  plane waves:     303
 k-point  18 :   0.2667 0.1333 0.0000  plane waves:     301
 k-point  19 :   0.3333 0.1333 0.0000  plane waves:     300
 k-point  20 :   0.4000 0.1333 0.0000  plane waves:     301
 k-point  21 :   0.2000 0.2000 0.0000  plane waves:     296
 k-point  22 :   0.2667 0.2000 0.0000  plane waves:     301
 k-point  23 :   0.3333 0.2000 0.0000  plane waves:     303
 k-point  24 :   0.4000 0.2000 0.0000  plane waves:     304
 k-point  25 :   0.2667 0.2667 0.0000  plane waves:     296
 k-point  26 :   0.3333 0.2667 0.0000  plane waves:     301
 k-point  27 :   0.3333 0.3333 0.0000  plane waves:     309
 k-point  28 :   0.0667 0.0667 0.0667  plane waves:     303
 k-point  29 :   0.1333 0.0667 0.0667  plane waves:     303
 k-point  30 :   0.2000 0.0667 0.0667  plane waves:     303
 k-point  31 :   0.2667 0.0667 0.0667  plane waves:     301
 k-point  32 :   0.3333 0.0667 0.0667  plane waves:     300
 k-point  33 :   0.4000 0.0667 0.0667  plane waves:     303
 k-point  34 :  -0.0667 0.0667 0.0667  plane waves:     321
 k-point  35 :   0.1333 0.1333 0.0667  plane waves:     300
 k-point  36 :   0.2000 0.1333 0.0667  plane waves:     301
 k-point  37 :   0.2667 0.1333 0.0667  plane waves:     300
 k-point  38 :   0.3333 0.1333 0.0667  plane waves:     302
 k-point  39 :   0.4000 0.1333 0.0667  plane waves:     301
 k-point  40 :  -0.1333 0.1333 0.0667  plane waves:     309
 k-point  41 :   0.2000 0.2000 0.0667  plane waves:     304
 k-point  42 :   0.2667 0.2000 0.0667  plane waves:     300
 k-point  43 :   0.3333 0.2000 0.0667  plane waves:     306
 k-point  44 :  -0.2000 0.2000 0.0667  plane waves:     300
 k-point  45 :  -0.1333 0.2000 0.0667  plane waves:     307
 k-point  46 :   0.2667 0.2667 0.0667  plane waves:     303
 k-point  47 :   0.3333 0.2667 0.0667  plane waves:     305
 k-point  48 :  -0.2667 0.2667 0.0667  plane waves:     301
 k-point  49 :  -0.2000 0.2667 0.0667  plane waves:     305
 k-point  50 :  -0.3333 0.3333 0.0667  plane waves:     302
 k-point  51 :  -0.2667 0.3333 0.0667  plane waves:     304
 k-point  52 :  -0.2000 0.3333 0.0667  plane waves:     306
 k-point  53 :  -0.4000 0.4000 0.0667  plane waves:     300
 k-point  54 :  -0.3333 0.4000 0.0667  plane waves:     300
 k-point  55 :  -0.2667 0.4000 0.0667  plane waves:     301
 k-point  56 :  -0.4667 0.4667 0.0667  plane waves:     296
 k-point  57 :  -0.4000 0.4667 0.0667  plane waves:     299
 k-point  58 :  -0.3333 0.4667 0.0667  plane waves:     298
 k-point  59 :  -0.2667 0.4667 0.0667  plane waves:     298
 k-point  60 :  -0.4667-0.4667 0.0667  plane waves:     298
 k-point  61 :  -0.4000-0.4667 0.0667  plane waves:     297
 k-point  62 :  -0.3333-0.4667 0.0667  plane waves:     298
 k-point  63 :  -0.4000-0.4000 0.0667  plane waves:     298
 k-point  64 :  -0.3333-0.4000 0.0667  plane waves:     297
 k-point  65 :   0.1333 0.1333 0.1333  plane waves:     306
 k-point  66 :   0.2000 0.1333 0.1333  plane waves:     305
 k-point  67 :   0.2667 0.1333 0.1333  plane waves:     302
 k-point  68 :   0.3333 0.1333 0.1333  plane waves:     303
 k-point  69 :  -0.1333 0.1333 0.1333  plane waves:     309
 k-point  70 :   0.2000 0.2000 0.1333  plane waves:     305
 k-point  71 :   0.2667 0.2000 0.1333  plane waves:     301
 k-point  72 :   0.3333 0.2000 0.1333  plane waves:     302
 k-point  73 :  -0.2000 0.2000 0.1333  plane waves:     308
 k-point  74 :   0.2667 0.2667 0.1333  plane waves:     307
 k-point  75 :  -0.2667 0.2667 0.1333  plane waves:     302
 k-point  76 :  -0.2000 0.2667 0.1333  plane waves:     304
 k-point  77 :  -0.3333 0.3333 0.1333  plane waves:     303
 k-point  78 :  -0.2667 0.3333 0.1333  plane waves:     299
 k-point  79 :  -0.4000 0.4000 0.1333  plane waves:     294
 k-point  80 :  -0.3333 0.4000 0.1333  plane waves:     299
 k-point  81 :  -0.2667 0.4000 0.1333  plane waves:     303
 k-point  82 :  -0.4667 0.4667 0.1333  plane waves:     297
 k-point  83 :  -0.4000 0.4667 0.1333  plane waves:     297
 k-point  84 :  -0.3333 0.4667 0.1333  plane waves:     297
 k-point  85 :  -0.4667-0.4667 0.1333  plane waves:     294
 k-point  86 :  -0.4000-0.4667 0.1333  plane waves:     298
 k-point  87 :  -0.3333-0.4667 0.1333  plane waves:     295
 k-point  88 :  -0.4000-0.4000 0.1333  plane waves:     296
 k-point  89 :   0.2000 0.2000 0.2000  plane waves:     303
 k-point  90 :   0.2667 0.2000 0.2000  plane waves:     303
 k-point  91 :  -0.2000 0.2000 0.2000  plane waves:     309
 k-point  92 :   0.2667 0.2667 0.2000  plane waves:     312
 k-point  93 :  -0.2667 0.2667 0.2000  plane waves:     300
 k-point  94 :  -0.3333 0.3333 0.2000  plane waves:     299
 k-point  95 :  -0.2667 0.3333 0.2000  plane waves:     301
 k-point  96 :  -0.4000 0.4000 0.2000  plane waves:     298
 k-point  97 :  -0.3333 0.4000 0.2000  plane waves:     299
 k-point  98 :  -0.4667 0.4667 0.2000  plane waves:     297
 k-point  99 :  -0.4000 0.4667 0.2000  plane waves:     296
 k-point 100 :  -0.3333 0.4667 0.2000  plane waves:     297
 k-point 101 :  -0.4667-0.4667 0.2000  plane waves:     294
 k-point 102 :  -0.4000-0.4667 0.2000  plane waves:     296
 k-point 103 :  -0.4000-0.4000 0.2000  plane waves:     294
 k-point 104 :  -0.2667 0.2667 0.2667  plane waves:     305
 k-point 105 :  -0.3333 0.3333 0.2667  plane waves:     301
 k-point 106 :  -0.4000 0.4000 0.2667  plane waves:     298
 k-point 107 :  -0.3333 0.4000 0.2667  plane waves:     303
 k-point 108 :  -0.4667 0.4667 0.2667  plane waves:     300
 k-point 109 :  -0.4000 0.4667 0.2667  plane waves:     296
 k-point 110 :  -0.4667-0.4667 0.2667  plane waves:     297
 k-point 111 :  -0.4000-0.4667 0.2667  plane waves:     296
 k-point 112 :  -0.3333 0.3333 0.3333  plane waves:     297
 k-point 113 :  -0.4000 0.4000 0.3333  plane waves:     299
 k-point 114 :  -0.4667 0.4667 0.3333  plane waves:     297
 k-point 115 :  -0.4000 0.4667 0.3333  plane waves:     296
 k-point 116 :  -0.4667-0.4667 0.3333  plane waves:     291
 k-point 117 :  -0.4000 0.4000 0.4000  plane waves:     286
 k-point 118 :  -0.4667 0.4667 0.4000  plane waves:     284
 k-point 119 :  -0.4667-0.4667 0.4000  plane waves:     282
 k-point 120 :  -0.4667 0.4667 0.4667  plane waves:     294

 maximum and minimum number of plane-waves per node :       321      282

 maximum number of plane-waves:       321
 maximum index in each direction: 
   IXMAX=    5   IYMAX=    4   IZMAX=    4
   IXMIN=   -4   IYMIN=   -5   IZMIN=   -5


 serial   3D FFT for wavefunctions
 parallel 3D FFT for charge:
    minimum data exchange during FFTs selected (reduces bandwidth)


 total amount of memory used by VASP MPI-rank0    36364. kBytes
=======================================================================

   base      :      30000. kBytes
   nonl-proj :       2493. kBytes
   fftplans  :       1775. kBytes
   grid      :        819. kBytes
   one-center:          3. kBytes
   wavefun   :       1274. kBytes
 
     INWAV:  cpu time    0.0000: real time    0.0006
 Broyden mixing: mesh for mixing (old mesh)
   NGX =  9   NGY =  9   NGZ =  9
  (NGX  = 36   NGY  = 36   NGZ  = 36)
  gives a total of    729 points

 initial charge density was supplied:
 charge density of overlapping atoms calculated
 number of electron       4.0000000 magnetization 
 keeping initial charge density in first step


--------------------------------------------------------------------------------------------------------


 Maximum index for augmentation-charges        27235 (set IRDMAX)


--------------------------------------------------------------------------------------------------------


 First call to EWALD:  gamma=   0.738
 Maximum number of real-space cells 3x 3x 3
 Maximum number of reciprocal cells 3x 3x 3

    FEWALD:  cpu time    0.0030: real time    0.0034


--------------------------------------- Iteration      1(   1)  ---------------------------------------


    POTLOK:  cpu time    0.0140: real time    0.0172
    SETDIJ:  cpu time    0.1670: real time    0.1679
     EDDAV:  cpu time    0.6049: real time    0.6048
       DOS:  cpu time    0.0010: real time    0.0022
    --------------------------------------------
      LOOP:  cpu time    0.7879: real time    0.7924

 eigenvalue-minimisations  :  2088
 total energy-change (2. order) :-0.2743423E+01  (-0.1720620E+03)
 number of electron       4.0000000 magnetization 
 augmentation part        4.0000000 magnetization 

 Free energy of the ion-electron system (eV)
  ---------------------------------------------------
  alpha Z        PSCENC =         2.42827211
  Ewald energy   TEWEN  =      -138.51397499
  -Hartree energ DENC   =        -0.48179554
  -exchange      EXHF   =         0.00000000
  -V(xc)+E(xc)   XCENC  =        -8.69332222
  PAW double counting   =        88.12379961      -70.53051779
  entropy T*S    EENTRO =        -0.00077244
  eigenvalues    EBANDS =        21.85892449
  atomic energy  EATOM  =       103.06596374
  Solvation  Ediel_sol  =         0.00000000
  ---------------------------------------------------
  free energy    TOTEN  =        -2.74342303 eV

  energy without entropy =       -2.74265059  energy(sigma->0) =       -2.74303681


--------------------------------------------------------------------------------------------------------




--------------------------------------- Iteration      1(   2)  ---------------------------------------


     EDDAV:  cpu time    0.8229: real time    0.8306
       DOS:  cpu time    0.0020: real time    0.0021
    --------------------------------------------
      LOOP:  cpu time    0.8239: real time    0.8327

 eigenvalue-minimisations  :  2904
 total energy-change (2. order) :-0.2159264E+01  (-0.2078604E+01)
 number of electron       4.0000000 magnetization 
 augmentation part        4.0000000 magnetization 

 Free energy of the ion-electron system (eV)
  ---------------------------------------------------
  alpha Z        PSCENC =         2.42827211
  Ewald energy   TEWEN  =      -138.51397499
  -Hartree energ DENC   =        -0.48179554
  -exchange      EXHF   =         0.00000000
  -V(xc)+E(xc)   XCENC  =        -8.69332222
  PAW double counting   =        88.12379961      -70.53051779
  entropy T*S    EENTRO =        -0.00061878
  eigenvalues    EBANDS =        19.69950641
  atomic energy  EATOM  =       103.06596374
  Solvation  Ediel_sol  =         0.00000000
  ---------------------------------------------------
  free energy    TOTEN  =        -4.90268745 eV

  energy without entropy =       -4.90206867  energy(sigma->0) =       -4.90237806


--------------------------------------------------------------------------------------------------------




--------------------------------------- Iteration      1(   3)  ---------------------------------------


     EDDAV:  cpu time    0.6149: real time    0.6302
       DOS:  cpu time    0.0030: real time    0.0022
    --------------------------------------------
      LOOP:  cpu time    0.6179: real time    0.6323

 eigenvalue-minimisations  :  2112
 total energy-change (2. order) :-0.1093973E-01  (-0.1093551E-01)
 number of electron       4.0000000 magnetization 
 augmentation part        4.0000000 magnetization 

 Free energy of the ion-electron system (eV)
  ---------------------------------------------------
  alpha Z        PSCENC =         2.42827211
  Ewald energy   TEWEN  =      -138.51397499
  -Hartree energ DENC   =        -0.48179554
  -exchange      EXHF   =         0.00000000
  -V(xc)+E(xc)   XCENC  =        -8.69332222
  PAW double counting   =        88.12379961      -70.53051779
  entropy T*S    EENTRO =        -0.00058278
  eigenvalues    EBANDS =        19.68853069
  atomic energy  EATOM  =       103.06596374
  Solvation  Ediel_sol  =         0.00000000
  ---------------------------------------------------
  free energy    TOTEN  =        -4.91362718 eV

  energy without entropy =       -4.91304440  energy(sigma->0) =       -4.91333579


--------------------------------------------------------------------------------------------------------




--------------------------------------- Iteration      1(   4)  ---------------------------------------


     EDDAV:  cpu time    0.8959: real time    0.9059
       DOS:  cpu time    0.0010: real time    0.0020
    --------------------------------------------
      LOOP:  cpu time    0.8979: real time    0.9079

 eigenvalue-minimisations  :  3144
 total energy-change (2. order) :-0.9838246E-05  (-0.9837366E-05)
 number of electron       4.0000000 magnetization 
 augmentation part        4.0000000 magnetization 

 Free energy of the ion-electron system (eV)
  ---------------------------------------------------
  alpha Z        PSCENC =         2.42827211
  Ewald energy   TEWEN  =      -138.51397499
  -Hartree energ DENC   =        -0.48179554
  -exchange      EXHF   =         0.00000000
  -V(xc)+E(xc)   XCENC  =        -8.69332222
  PAW double counting   =        88.12379961      -70.53051779
  entropy T*S    EENTRO =        -0.00058272
  eigenvalues    EBANDS =        19.68852078
  atomic energy  EATOM  =       103.06596374
  Solvation  Ediel_sol  =         0.00000000
  ---------------------------------------------------
  free energy    TOTEN  =        -4.91363702 eV

  energy without entropy =       -4.91305430  energy(sigma->0) =       -4.91334566


--------------------------------------------------------------------------------------------------------




--------------------------------------- Iteration      1(   5)  ---------------------------------------


     EDDAV:  cpu time    0.6169: real time    0.6311
       DOS:  cpu time    0.0010: real time    0.0020
    CHARGE:  cpu time    0.0390: real time    0.0397
    MIXING:  cpu time    0.0010: real time    0.0009
    --------------------------------------------
      LOOP:  cpu time    0.6579: real time    0.6736

 eigenvalue-minimisations  :  2128
 total energy-change (2. order) : 0.1272156E-09  (-0.6655488E-09)
 number of electron       4.0000000 magnetization 
 augmentation part       -0.2399800 magnetization 

 Broyden mixing:
  rms(total) = 0.28519E+00    rms(broyden)= 0.28519E+00
  rms(prec ) = 0.41340E+00
  weight for this iteration     100.00

 Free energy of the ion-electron system (eV)
  ---------------------------------------------------
  alpha Z        PSCENC =         2.42827211
  Ewald energy   TEWEN  =      -138.51397499
  -Hartree energ DENC   =        -0.48179554
  -exchange      EXHF   =         0.00000000
  -V(xc)+E(xc)   XCENC  =        -8.69332222
  PAW double counting   =        88.12379961      -70.53051779
  entropy T*S    EENTRO =        -0.00058272
  eigenvalues    EBANDS =        19.68852078
  atomic energy  EATOM  =       103.06596374
  Solvation  Ediel_sol  =         0.00000000
  ---------------------------------------------------
  free energy    TOTEN  =        -4.91363702 eV

  energy without entropy =       -4.91305430  energy(sigma->0) =       -4.91334566


--------------------------------------------------------------------------------------------------------




--------------------------------------- Iteration      1(   6)  ---------------------------------------


    POTLOK:  cpu time    0.0150: real time    0.0226
    SETDIJ:  cpu time    0.1650: real time    0.1652
     EDDAV:  cpu time    0.5879: real time    0.5882
       DOS:  cpu time    0.0010: real time    0.0020
    CHARGE:  cpu time    0.0380: real time    0.0378
    MIXING:  cpu time    0.0010: real time    0.0010
    --------------------------------------------
      LOOP:  cpu time    0.8069: real time    0.8169

 eigenvalue-minimisations  :  2032
 total energy-change (2. order) : 0.1145846E-01  (-0.3593745E-03)
 number of electron       4.0000000 magnetization 
 augmentation part       -0.2419169 magnetization 

 Broyden mixing:
  rms(total) = 0.15828E+00    rms(broyden)= 0.15828E+00
  rms(prec ) = 0.23922E+00
  weight for this iteration     100.00

 eigenvalues of (default mixing * dielectric matrix)
  average eigenvalue GAMMA=   2.2367
  2.2367

 Free energy of the ion-electron system (eV)
  ---------------------------------------------------
  alpha Z        PSCENC =         2.42827211
  Ewald energy   TEWEN  =      -138.51397499
  -Hartree energ DENC   =        -0.41811260
  -exchange      EXHF   =         0.00000000
  -V(xc)+E(xc)   XCENC  =        -8.66904934
  PAW double counting   =       176.22096953     -158.63430511
  entropy T*S    EENTRO =        -0.00060349
  eigenvalues    EBANDS =        19.61866160
  atomic energy  EATOM  =       103.06596374
  Solvation  Ediel_sol  =         0.00000000
  ---------------------------------------------------
  free energy    TOTEN  =        -4.90217856 eV

  energy without entropy =       -4.90157508  energy(sigma->0) =       -4.90187682


--------------------------------------------------------------------------------------------------------




--------------------------------------- Iteration      1(   7)  ---------------------------------------


    POTLOK:  cpu time    0.0150: real time    0.0301
    SETDIJ:  cpu time    0.1650: real time    0.1653
     EDDAV:  cpu time    0.6039: real time    0.6050
       DOS:  cpu time    0.0020: real time    0.0020
    CHARGE:  cpu time    0.0370: real time    0.0379
    MIXING:  cpu time    0.0010: real time    0.0010
    --------------------------------------------
      LOOP:  cpu time    0.8249: real time    0.8414

 eigenvalue-minimisations  :  2096
 total energy-change (2. order) : 0.6574199E-02  (-0.7243075E-03)
 number of electron       4.0000000 magnetization 
 augmentation part       -0.2447408 magnetization 

 Broyden mixing:
  rms(total) = 0.13587E-01    rms(broyden)= 0.13587E-01
  rms(prec ) = 0.18314E-01
  weight for this iteration     100.00

 eigenvalues of (default mixing * dielectric matrix)
  average eigenvalue GAMMA=   2.4386
  2.4386  2.4386

 Free energy of the ion-electron system (eV)
  ---------------------------------------------------
  alpha Z        PSCENC =         2.42827211
  Ewald energy   TEWEN  =      -138.51397499
  -Hartree energ DENC   =        -0.35340949
  -exchange      EXHF   =         0.00000000
  -V(xc)+E(xc)   XCENC  =        -8.62948741
  PAW double counting   =       348.82446446     -331.25112008
  entropy T*S    EENTRO =        -0.00062878
  eigenvalues    EBANDS =        19.53431608
  atomic energy  EATOM  =       103.06596374
  Solvation  Ediel_sol  =         0.00000000
  ---------------------------------------------------
  free energy    TOTEN  =        -4.89560436 eV

  energy without entropy =       -4.89497558  energy(sigma->0) =       -4.89528997


--------------------------------------------------------------------------------------------------------




--------------------------------------- Iteration      1(   8)  ---------------------------------------


    POTLOK:  cpu time    0.0150: real time    0.0231
    SETDIJ:  cpu time    0.1660: real time    0.1654
     EDDAV:  cpu time    0.7869: real time    0.7868
       DOS:  cpu time    0.0010: real time    0.0019
    CHARGE:  cpu time    0.0400: real time    0.0401
    MIXING:  cpu time    0.0010: real time    0.0009
    --------------------------------------------
      LOOP:  cpu time    1.0088: real time    1.0182

 eigenvalue-minimisations  :  2752
 total energy-change (2. order) : 0.2127017E-04  (-0.3390754E-05)
 number of electron       4.0000000 magnetization 
 augmentation part       -0.2448233 magnetization 

 Broyden mixing:
  rms(total) = 0.11567E-02    rms(broyden)= 0.11567E-02
  rms(prec ) = 0.20370E-02
  weight for this iteration     100.00

 eigenvalues of (default mixing * dielectric matrix)
  average eigenvalue GAMMA=   2.0210
  0.9908  2.4106  2.6614

 Free energy of the ion-electron system (eV)
  ---------------------------------------------------
  alpha Z        PSCENC =         2.42827211
  Ewald energy   TEWEN  =      -138.51397499
  -Hartree energ DENC   =        -0.35525640
  -exchange      EXHF   =         0.00000000
  -V(xc)+E(xc)   XCENC  =        -8.62486230
  PAW double counting   =       333.97405893     -316.40739011
  entropy T*S    EENTRO =        -0.00062942
  eigenvalues    EBANDS =        19.53823535
  atomic energy  EATOM  =       103.06596374
  Solvation  Ediel_sol  =         0.00000000
  ---------------------------------------------------
  free energy    TOTEN  =        -4.89558309 eV

  energy without entropy =       -4.89495368  energy(sigma->0) =       -4.89526838


--------------------------------------------------------------------------------------------------------




--------------------------------------- Iteration      1(   9)  ---------------------------------------


    POTLOK:  cpu time    0.0160: real time    0.0329
    SETDIJ:  cpu time    0.1650: real time    0.1653
     EDDAV:  cpu time    0.6379: real time    0.6387
       DOS:  cpu time    0.0010: real time    0.0020
    --------------------------------------------
      LOOP:  cpu time    0.8209: real time    0.8389

 eigenvalue-minimisations  :  2192
 total energy-change (2. order) :-0.5753985E-06  (-0.4627186E-07)
 number of electron       4.0000000 magnetization 
 augmentation part       -0.2448233 magnetization 

 Free energy of the ion-electron system (eV)
  ---------------------------------------------------
  alpha Z        PSCENC =         2.42827211
  Ewald energy   TEWEN  =      -138.51397499
  -Hartree energ DENC   =        -0.35534249
  -exchange      EXHF   =         0.00000000
  -V(xc)+E(xc)   XCENC  =        -8.62427937
  PAW double counting   =       332.67234121     -315.10622426
  entropy T*S    EENTRO =        -0.00062959
  eigenvalues    EBANDS =        19.53828998
  atomic energy  EATOM  =       103.06596374
  Solvation  Ediel_sol  =         0.00000000
  ---------------------------------------------------
  free energy    TOTEN  =        -4.89558367 eV

  energy without entropy =       -4.89495408  energy(sigma->0) =       -4.89526887


--------------------------------------------------------------------------------------------------------




 average (electrostatic) potential at core
  the test charge radii are     0.9892
  (the norm of the test charge is              1.0000)
       1 -79.2908
 
 
 
 E-fermi :  10.6366     XC(G=0): -11.3699     alpha+bet :-17.3011

 Fermi energy:        10.6366395783

 k-point     1 :       0.0000    0.0000    0.0000
  band No.  band energies     occupation 
      1      -4.0989      2.00000
      2      22.7232      0.00000
      3      22.7232      0.00000
      4      22.7232      0.00000
      5      23.3999      0.00000
      6      23.3999      0.00000
      7      23.3999      0.00000
      8      27.2137      0.00000

 k-point     2 :       0.0667    0.0000    0.0000
  band No.  band energies     occupation 
      1      -3.9577      2.00000
      2      20.8560      0.00000
      3      21.3726      0.00000
      4      22.4978      0.00000
      5      22.9312      0.00000
      6      24.3866      0.00000
      7      24.9858      0.00000
      8      26.2635      0.00000

 k-point     3 :       0.1333    0.0000    0.0000
  band No.  band energies     occupation 
      1      -3.5348      2.00000
      2      18.0967      0.00000
      3      19.9696      0.00000
      4      21.8991      0.00000
      5      21.9097      0.00000
      6      24.1379      0.00000
      7      26.2462      0.00000
      8      27.0374      0.00000

 k-point     4 :       0.2000    0.0000    0.0000
  band No.  band energies     occupation 
      1      -2.8318      2.00000
      2      15.1506      0.00000
      3      18.7948      0.00000
      4      20.8099      0.00000
      5      21.1304      0.00000
      6      23.1576      0.00000
      7      27.1824      0.00000
      8      27.3727      0.00000

 k-point     5 :       0.2667    0.0000    0.0000
  band No.  band energies     occupation 
      1      -1.8517      2.00000
      2      12.2665      0.00000
      3      17.8553      0.00000
      4      19.8394      0.00000
      5      20.3837      0.00000
      6      22.2814      0.00000
      7      28.0421      0.00000
      8      28.3111      0.00000

 k-point     6 :       0.3333    0.0000    0.0000
  band No.  band energies     occupation 
      1      -0.5984      2.00000
      2       9.5454      2.00000
      3      17.1517      0.00000
      4      19.0780      0.00000
      5      19.7694      0.00000
      6      21.5924      0.00000
      7      28.9814      0.00000
      8      29.5808      0.00000

 k-point     7 :       0.4000    0.0000    0.0000
  band No.  band energies     occupation 
      1       0.9229      2.00000
      2       7.0321      2.00000
      3      16.6833      0.00000
      4      18.5584      0.00000
      5      19.3404      0.00000
      6      21.1185      0.00000
      7      30.1127      0.00000
      8      30.9164      0.00000

 k-point     8 :       0.4667    0.0000    0.0000
  band No.  band energies     occupation 
      1       2.7039      2.00000
      2       4.7518      2.00000
      3      16.4493      0.00000
      4      18.2958      0.00000
      5      19.1211      0.00000
      6      20.8772      0.00000
      7      31.1899      0.00000
      8      32.0027      0.00000

 k-point     9 :       0.0667    0.0667    0.0000
  band No.  band energies     occupation 
      1      -3.6757      2.00000
      2      19.3215      0.00000
      3      19.7775      0.00000
      4      21.2547      0.00000
      5      23.2799      0.00000
      6      24.7522      0.00000
      7      25.4884      0.00000
      8      26.2175      0.00000

 k-point    10 :       0.1333    0.0667   -0.0000
  band No.  band energies     occupation 
      1      -3.1127      2.00000
      2      16.6912      0.00000
      3      18.2980      0.00000
      4      20.1857      0.00000
      5      22.8072      0.00000
      6      24.2204      0.00000
      7      25.9088      0.00000
      8      27.6071      0.00000

 k-point    11 :       0.2000    0.0667   -0.0000
  band No.  band energies     occupation 
      1      -2.2712      2.00000
      2      13.7821      0.00000
      3      17.2068      0.00000
      4      19.2022      0.00000
      5      22.0293      0.00000
      6      23.5650      0.00000
      7      26.4862      0.00000
      8      28.8945      0.00000

 k-point    12 :       0.2667    0.0667    0.0000
  band No.  band energies     occupation 
      1      -1.1544      2.00000
      2      10.9781      0.00000
      3      16.3563      0.00000
      4      18.3878      0.00000
      5      21.2885      0.00000
      6      22.9678      0.00000
      7      27.3217      0.00000
      8      30.0930      0.00000

 k-point    13 :       0.3333    0.0667   -0.0000
  band No.  band energies     occupation 
      1       0.2330      2.00000
      2       8.3599      2.00000
      3      15.7459      0.00000
      4      17.7882      0.00000
      5      20.7186      0.00000
      6      22.4869      0.00000
      7      28.4288      0.00000
      8      31.2525      0.00000

 k-point    14 :       0.4000    0.0667    0.0000
  band No.  band energies     occupation 
      1       1.8849      2.00000
      2       5.9619      2.00000
      3      15.3784      0.00000
      4      17.4230      0.00000
      5      20.3652      0.00000
      6      22.1792      0.00000
      7      29.7334      0.00000
      8      31.8946      0.00000

 k-point    15 :       0.4667    0.0667    0.0000
  band No.  band energies     occupation 
      1       3.7032      2.00000
      2       3.8938      2.00000
      3      15.2556      0.00000
      4      17.3005      0.00000
      5      20.2458      0.00000
      6      22.0738      0.00000
      7      30.8606      0.00000
      8      31.3744      0.00000

 k-point    16 :       0.1333    0.1333    0.0000
  band No.  band energies     occupation 
      1      -2.4112      2.00000
      2      15.3439      0.00000
      3      15.6432      0.00000
      4      19.0839      0.00000
      5      23.0772      0.00000
      6      24.0511      0.00000
      7      26.7186      0.00000
      8      27.9552      0.00000

 k-point    17 :       0.2000    0.1333    0.0000
  band No.  band energies     occupation 
      1      -1.4330      2.00000
      2      12.6380      0.00000
      3      14.5026      0.00000
      4      18.1796      0.00000
      5      22.6764      0.00000
      6      24.1664      0.00000
      7      26.9885      0.00000
      8      29.4653      0.00000

 k-point    18 :       0.2667    0.1333    0.0000
  band No.  band energies     occupation 
      1      -0.1821      2.00000
      2       9.9354      2.00000
      3      13.7417      0.00000
      4      17.4761      0.00000
      5      22.0757      0.00000
      6      24.4590      0.00000
      7      27.2243      0.00000
      8      31.1210      0.00000

 k-point    19 :       0.3333    0.1333    0.0000
  band No.  band energies     occupation 
      1       1.3362      2.00000
      2       7.4310      2.00000
      3      13.2332      0.00000
      4      16.9976      0.00000
      5      21.6272      0.00000
      6      24.5183      0.00000
      7      28.0351      0.00000
      8      31.6892      0.00000

 k-point    20 :       0.4000    0.1333    0.0000
  band No.  band energies     occupation 
      1       3.1140      2.00000
      2       5.1561      2.00000
      3      12.9783      0.00000
      4      16.7560      0.00000
      5      21.3948      0.00000
      6      24.4769      0.00000
      7      29.2502      0.00000
      8      30.7889      0.00000

 k-point    21 :       0.2000    0.2000    0.0000
  band No.  band energies     occupation 
      1      -0.3207      2.00000
      2      11.6663      0.00000
      3      11.8222      0.00000
      4      17.3827      0.00000
      5      23.2763      0.00000
      6      23.9882      0.00000
      7      28.6666      0.00000
      8      29.5107      0.00000

 k-point    22 :       0.2667    0.2000    0.0000
  band No.  band energies     occupation 
      1       1.0613      2.00000
      2       9.1472      2.00000
      3      11.0987      0.00000
      4      16.7954      0.00000
      5      23.0676      0.00000
      6      24.7260      0.00000
      7      28.7432      0.00000
      8      30.7555      0.00000

 k-point    23 :       0.3333    0.2000    0.0000
  band No.  band energies     occupation 
      1       2.7068      2.00000
      2       6.7641      2.00000
      3      10.7076      0.04487
      4      16.4367      0.00000
      5      22.7733      0.00000
      6      25.7136      0.00000
      7      28.5287      0.00000
      8      30.7173      0.00000

 k-point    24 :       0.4000    0.2000    0.0000
  band No.  band energies     occupation 
      1       4.5302      2.00000
      2       4.6933      2.00000
      3      10.5771      1.90765
      4      16.3162      0.00000
      5      22.6670      0.00000
      6      26.2190      0.00000
      7      28.4554      0.00000
      8      30.2892      0.00000

 k-point    25 :       0.2667    0.2667    0.0000
  band No.  band energies     occupation 
      1       2.5706      2.00000
      2       8.5679      2.00000
      3       8.6749      2.00000
      4      16.3277      0.00000
      5      24.0458      0.00000
      6      24.7406      0.00000
      7      29.1201      0.00000
      8      31.1302      0.00000

 k-point    26 :       0.3333    0.2667    0.0000
  band No.  band energies     occupation 
      1       4.3380      2.00000
      2       6.3629      2.00000
      3       8.3585      2.00000
      4      16.0899      0.00000
      5      24.1205      0.00000
      6      25.8622      0.00000
      7      27.7241      0.00000
      8      31.9697      0.00000

 k-point    27 :       0.3333    0.3333    0.0000
  band No.  band energies     occupation 
      1       6.1038      2.00000
      2       6.2898      2.00000
      3       6.2898      2.00000
      4      15.9726      0.00000
      5      25.0790      0.00000
      6      26.2601      0.00000
      7      26.2601      0.00000
      8      34.0329      0.00000

 k-point    28 :       0.0667    0.0667    0.0667
  band No.  band energies     occupation 
      1      -3.2533      2.00000
      2      17.8461      0.00000
      3      18.6593      0.00000
      4      18.6593      0.00000
      5      24.6558      0.00000
      6      24.6558      0.00000
      7      26.5711      0.00000
      8      26.5711      0.00000

 k-point    29 :       0.1333    0.0667    0.0667
  band No.  band energies     occupation 
      1      -2.5513      2.00000
      2      15.3768      0.00000
      3      16.9797      0.00000
      4      17.5303      0.00000
      5      24.3166      0.00000
      6      25.0090      0.00000
      7      26.9537      0.00000
      8      27.4510      0.00000

 k-point    30 :       0.2000    0.0667    0.0667
  band No.  band energies     occupation 
      1      -1.5725      2.00000
      2      12.5233      0.00000
      3      15.9810      0.00000
      4      16.5626      0.00000
      5      23.8149      0.00000
      6      24.3919      0.00000
      7      28.2513      0.00000
      8      28.2629      0.00000

 k-point    31 :       0.2667    0.0667    0.0667
  band No.  band energies     occupation 
      1      -0.3207      2.00000
      2       9.8093      2.00000
      3      15.2456      0.00000
      4      15.8134      0.00000
      5      23.3148      0.00000
      6      23.8038      0.00000
      7      29.2062      0.00000
      8      29.6499      0.00000

 k-point    32 :       0.3333    0.0667    0.0667
  band No.  band energies     occupation 
      1       1.1987      2.00000
      2       7.2999      2.00000
      3      14.7553      0.00000
      4      15.3058      0.00000
      5      22.9350      0.00000
      6      23.3834      0.00000
      7      30.3208      0.00000
      8      31.0363      0.00000

 k-point    33 :       0.4000    0.0667    0.0667
  band No.  band energies     occupation 
      1       2.9778      2.00000
      2       5.0223      2.00000
      3      14.5099      0.00000
      4      15.0500      0.00000
      5      22.7338      0.00000
      6      23.1666      0.00000
      7      31.3516      0.00000
      8      32.1342      0.00000

 k-point    34 :      -0.0667    0.0667    0.0667
  band No.  band energies     occupation 
      1      -3.8167      2.00000
      2      20.3444      0.00000
      3      20.3444      0.00000
      4      21.6245      0.00000
      5      23.6762      0.00000
      6      24.6148      0.00000
      7      25.0261      0.00000
      8      25.0261      0.00000

 k-point    35 :       0.1333    0.1333    0.0667
  band No.  band energies     occupation 
      1      -1.7120      2.00000
      2      14.1391      0.00000
      3      14.4432      0.00000
      4      16.2106      0.00000
      5      24.9611      0.00000
      6      25.8141      0.00000
      7      27.3140      0.00000
      8      28.2825      0.00000

 k-point    36 :       0.2000    0.1333    0.0667
  band No.  band energies     occupation 
      1      -0.5982      2.00000
      2      11.4975      0.00000
      3      13.4145      0.00000
      4      15.3429      0.00000
      5      24.8471      0.00000
      6      25.8790      0.00000
      7      28.1678      0.00000
      8      29.6050      0.00000

 k-point    37 :       0.2667    0.1333    0.0667
  band No.  band energies     occupation 
      1       0.7857      2.00000
      2       8.8910      2.00000
      3      12.7747      0.00000
      4      14.7185      0.00000
      5      24.4843      0.00000
      6      25.7990      0.00000
      7      29.0898      0.00000
      8      31.1149      0.00000

 k-point    38 :       0.3333    0.1333    0.0667
  band No.  band energies     occupation 
      1       2.4337      2.00000
      2       6.4998      2.00000
      3      12.3903      0.00000
      4      14.3412      0.00000
      5      24.2100      0.00000
      6      25.6747      0.00000
      7      30.2474      0.00000
      8      32.0336      0.00000

 k-point    39 :       0.4000    0.1333    0.0667
  band No.  band energies     occupation 
      1       4.2559      2.00000
      2       4.4286      2.00000
      3      12.2620      0.00000
      4      14.2150      0.00000
      5      24.1125      0.00000
      6      25.6206      0.00000
      7      31.1790      0.00000
      8      31.8295      0.00000

 k-point    40 :      -0.1333    0.1333    0.0667
  band No.  band energies     occupation 
      1      -3.3940      2.00000
      2      18.0932      0.00000
      3      18.9800      0.00000
      4      21.0143      0.00000
      5      23.0732      0.00000
      6      23.3518      0.00000
      7      25.4752      0.00000
      8      26.6763      0.00000

 k-point    41 :       0.2000    0.2000    0.0667
  band No.  band energies     occupation 
      1       0.6479      2.00000
      2      10.6519      0.66516
      3      10.7994      0.00000
      4      14.5950      0.00000
      5      25.5439      0.00000
      6      26.4155      0.00000
      7      29.4213      0.00000
      8      30.1845      0.00000

[...]
      1       3.8994      2.00000
      2       4.2704      2.00000
      3      11.5178      0.00000
      4      15.9824      0.00000
      5      20.6615      0.00000
      6      22.4364      0.00000
      7      23.7786      0.00000
      8      27.0115      0.00000

 k-point    86 :      -0.4000   -0.4667    0.1333
  band No.  band energies     occupation 
      1       3.6753      2.00000
      2       5.6531      2.00000
      3       9.4292      2.00000
      4      17.1038      0.00000
      5      20.1069      0.00000
      6      21.8286      0.00000
      7      23.1081      0.00000
      8      29.0738      0.00000

 k-point    87 :      -0.3333   -0.4667    0.1333
  band No.  band energies     occupation 
      1       3.5503      2.00000
      2       7.2975      2.00000
      3       7.5760      2.00000
      4      17.9263      0.00000
      5      19.5809      0.00000
      6      21.2548      0.00000
      7      23.0557      0.00000
      8      30.9450      0.00000

 k-point    88 :      -0.4000   -0.4000    0.1333
  band No.  band energies     occupation 
      1       5.1971      2.00000
      2       5.5469      2.00000
      3       7.3242      2.00000
      4      18.0555      0.00000
      5      20.1683      0.00000
      6      21.3063      0.00000
      7      21.8820      0.00000
      8      31.5472      0.00000

 k-point    89 :       0.2000    0.2000    0.2000
  band No.  band energies     occupation 
      1       2.9016      2.00000
      2       8.4156      2.00000
      3       8.9214      2.00000
      4       8.9214      2.00000
      5      28.3964      0.00000
      6      28.3964      0.00000
      7      30.1849      0.00000
      8      30.1849      0.00000

 k-point    90 :       0.2667    0.2000    0.2000
  band No.  band energies     occupation 
      1       4.5885      2.00000
      2       6.5571      2.00000
      3       8.3634      2.00000
      4       8.6689      2.00000
      5      28.9335      0.00000
      6      29.2692      0.00000
      7      30.8839      0.00000
      8      31.1573      0.00000

 k-point    91 :      -0.2000    0.2000    0.2000
  band No.  band energies     occupation 
      1      -1.8808      2.00000
      2      14.3007      0.00000
      3      14.3007      0.00000
      4      16.2133      0.00000
      5      17.8152      0.00000
      6      24.8191      0.00000
      7      26.3557      0.00000
      8      26.3557      0.00000

 k-point    92 :       0.2667    0.2667    0.2000
  band No.  band energies     occupation 
      1       6.0680      2.00000
      2       6.6068      2.00000
      3       6.6068      2.00000
      4       8.4048      2.00000
      5      29.7223      0.00000
      6      30.6859      0.00000
      7      30.6859      0.00000
      8      31.7893      0.00000

 k-point    93 :      -0.2667    0.2667    0.2000
  band No.  band energies     occupation 
      1      -0.9414      2.00000
      2      12.3656      0.00000
      3      13.3460      0.00000
      4      15.6982      0.00000
      5      17.2932      0.00000
      6      24.5494      0.00000
      7      26.3755      0.00000
      8      28.2446      0.00000

 k-point    94 :      -0.3333    0.3333    0.2000
  band No.  band energies     occupation 
      1       0.2596      2.00000
      2       9.9185      0.21106
      3      12.6243      0.00000
      4      15.1507      0.00000
      5      17.9484      0.00000
      6      23.9322      0.00000
      7      25.3821      0.00000
      8      27.8469      0.00000

 k-point    95 :      -0.2667    0.3333    0.2000
  band No.  band energies     occupation 
      1       0.1266      2.00000
      2      11.4177      0.00000
      3      11.6071      0.00000
      4      15.5525      0.00000
      5      16.6552      0.00000
      6      24.4522      0.00000
      7      26.1346      0.00000
      8      28.1025      0.00000

 k-point    96 :      -0.4000    0.4000    0.2000
  band No.  band energies     occupation 
      1       1.7162      2.00000
      2       7.5577      2.00000
      3      12.1414      0.00000
      4      14.6913      0.00000
      5      19.0731      0.00000
      6      23.4837      0.00000
      7      23.9745      0.00000
      8      27.3406      0.00000

 k-point    97 :      -0.3333    0.4000    0.2000
  band No.  band energies     occupation 
      1       1.4527      2.00000
      2       9.1605      2.00000
      3      10.9042      0.00000
      4      15.3318      0.00000
      5      17.2600      0.00000
      6      23.5809      0.00000
      7      24.6945      0.00000
      8      28.6346      0.00000

 k-point    98 :      -0.4667    0.4667    0.2000
  band No.  band energies     occupation 
      1       3.4141      2.00000
      2       5.3958      2.00000
      3      11.8995      0.00000
      4      14.4498      0.00000
      5      20.3040      0.00000
      6      22.5521      0.00000
      7      23.2534      0.00000
      8      27.0512      0.00000

 k-point    99 :      -0.4000    0.4667    0.2000
  band No.  band energies     occupation 
      1       3.0287      2.00000
      2       6.9179      2.00000
      3      10.5302      0.00000
      4      15.0222      0.00000
      5      18.5055      0.00000
      6      22.0350      0.00000
      7      24.0563      0.00000
      8      28.6337      0.00000

 k-point   100 :      -0.3333    0.4667    0.2000
  band No.  band energies     occupation 
      1       2.8989      2.00000
      2       8.5389      2.00000
      3       8.7886      2.00000
      4      16.1153      0.00000
      5      17.1306      0.00000
      6      21.8819      0.00000
      7      24.1779      0.00000
      8      30.4111      0.00000

 k-point   101 :      -0.4667   -0.4667    0.2000
  band No.  band energies     occupation 
      1       4.6874      2.00000
      2       5.0311      2.00000
      3      10.4057      0.00000
      4      14.9089      0.00000
      5      19.5751      0.00000
      6      20.8108      0.00000
      7      23.8989      0.00000
      8      28.5996      0.00000

 k-point   102 :      -0.4000   -0.4667    0.2000
  band No.  band energies     occupation 
      1       4.5829      2.00000
      2       6.5340      2.00000
      3       8.4211      2.00000
      4      16.2051      0.00000
      5      18.2035      0.00000
      6      20.1152      0.00000
      7      23.9271      0.00000
      8      31.0201      0.00000

 k-point   103 :      -0.4000   -0.4000    0.2000
  band No.  band energies     occupation 
      1       6.1044      2.00000
      2       6.5490      2.00000
      3       6.5490      2.00000
      4      17.0521      0.00000
      5      18.5659      0.00000
      6      18.5659      0.00000
      7      23.8473      0.00000
      8      33.1343      0.00000

 k-point   104 :      -0.2667    0.2667    0.2667
  band No.  band energies     occupation 
      1      -0.0065      2.00000
      2      12.3851      0.00000
      3      12.3851      0.00000
      4      14.4078      0.00000
      5      15.6324      0.00000
      6      25.9267      0.00000
      7      26.6440      0.00000
      8      27.9919      0.00000

 k-point   105 :      -0.3333    0.3333    0.2667
  band No.  band energies     occupation 
      1       1.1885      2.00000
      2      10.6429      0.00000
      3      11.6593      0.00000
      4      14.0407      0.00000
      5      15.4550      0.00000
      6      23.8292      0.00000
      7      26.5352      0.00000
      8      28.6684      0.00000

 k-point   106 :      -0.4000    0.4000    0.2667
  band No.  band energies     occupation 
      1       2.6370      2.00000
      2       8.4046      2.00000
      3      11.1739      0.00000
      4      13.6602      0.00000
      5      16.4717      0.00000
      6      21.7526      0.00000
      7      26.1299      0.00000
      8      28.8667      0.00000

 k-point   107 :      -0.3333    0.4000    0.2667
  band No.  band energies     occupation 
      1       2.5061      2.00000
      2       9.9402      0.06245
      3      10.1123      0.00000
      4      14.1598      0.00000
      5      15.0566      0.00000
      6      21.6411      0.00000
      7      26.8116      0.00000
      8      30.0848      0.00000

 k-point   108 :      -0.4667    0.4667    0.2667
  band No.  band energies     occupation 
      1       4.3245      2.00000
      2       6.2813      2.00000
      3      10.9308      0.00000
      4      13.4267      0.00000
      5      17.8763      0.00000
      6      19.8813      0.00000
      7      25.9103      0.00000
      8      28.8777      0.00000

 k-point   109 :      -0.4000    0.4667    0.2667
  band No.  band energies     occupation 
      1       4.0702      2.00000
      2       7.8950      2.00000
      3       9.6606      2.00000
      4      14.1178      0.00000
      5      16.0005      0.00000
      6      19.5801      0.00000
      7      26.6099      0.00000
      8      30.6506      0.00000

 k-point   110 :      -0.4667   -0.4667    0.2667
  band No.  band energies     occupation 
      1       5.7234      2.00000
      2       6.0350      2.00000
      3       9.5344      2.00000
      4      14.0242      0.00000
      5      17.2497      0.00000
      6      18.0537      0.00000
      7      26.5210      0.00000
      8      30.7339      0.00000

 k-point   111 :      -0.4000   -0.4667    0.2667
  band No.  band energies     occupation 
      1       5.7324      2.00000
      2       7.5354      2.00000
      3       7.7693      2.00000
      4      15.1615      0.00000
      5      16.0878      0.00000
      6      17.6261      0.00000
      7      26.5642      0.00000
      8      32.6240      0.00000

 k-point   112 :      -0.3333    0.3333    0.3333
  band No.  band energies     occupation 
      1       2.3750      2.00000
      2      10.9310      0.00000
      3      10.9310      0.00000
      4      12.9715      0.00000
      5      13.9870      0.00000
      6      21.5371      0.00000
      7      28.9378      0.00000
      8      29.9757      0.00000

 k-point   113 :      -0.4000    0.4000    0.3333
  band No.  band energies     occupation 
      1       3.8113      2.00000
      2       9.3989      2.00000
      3      10.4441      0.00000
      4      12.7979      0.00000
      5      14.1356      0.00000
      6      19.3270      0.00000
      7      28.9518      0.00000
      8      30.7335      0.00000

 k-point   114 :      -0.4667    0.4667    0.3333
  band No.  band energies     occupation 
      1       5.4805      2.00000
      2       7.3922      2.00000
      3      10.2003      0.00000
      4      12.6294      0.00000
      5      15.4422      0.00000
      6      17.3447      0.00000
      7      28.7550      0.00000
      8      31.0049      0.00000

 k-point   115 :      -0.4000    0.4667    0.3333
  band No.  band energies     occupation 
      1       5.3556      2.00000
      2       8.9454      2.00000
      3       9.1107      2.00000
      4      13.1823      0.00000
      5      13.9865      0.00000
      6      17.1917      0.00000
      7      29.3616      0.00000
      8      32.3101      0.00000

 k-point   116 :      -0.4667   -0.4667    0.3333
  band No.  band energies     occupation 
      1       6.9858      2.00000
      2       7.2589      2.00000
      3       8.9119      2.00000
      4      13.3243      0.00000
      5      15.0084      0.00000
      6      15.5642      0.00000
      7      29.3385      0.00000
      8      32.8131      0.00000

 k-point   117 :      -0.4000    0.4000    0.4000
  band No.  band energies     occupation 
      1       5.2281      2.00000
      2       9.9563      0.02043
      3       9.9563      0.02043
      4      11.9700      0.00000
      5      12.8870      0.00000
      6      17.0557      0.00000
      7      31.5806      0.00000
      8      32.2053      0.00000

 k-point   118 :      -0.4667    0.4667    0.4000
  band No.  band energies     occupation 
      1       6.8602      2.00000
      2       8.6505      2.00000
      3       9.7121      2.00000
      4      12.0086      0.00000
      5      13.3290      0.00000
      6      15.0480      0.00000
      7      31.6600      0.00000
      8      32.9369      0.00000

 k-point   119 :      -0.4667   -0.4667    0.4000
  band No.  band energies     occupation 
      1       8.3422      2.00000
      2       8.6087      2.00000
      3       8.6087      2.00000
      4      12.4224      0.00000
      5      13.4506      0.00000
      6      13.4506      0.00000
      7      32.0859      0.00000
      8      34.2559      0.00000

 k-point   120 :      -0.4667    0.4667    0.4667
  band No.  band energies     occupation 
      1       8.3853      2.00000
      2       9.4677      2.00000
      3       9.4677      2.00000
      4      11.3570      0.00000
      5      12.3358      0.00000
      6      13.1415      0.00000
      7      34.0266      0.00000
      8      34.1550      0.00000


--------------------------------------------------------------------------------------------------------


 soft charge-density along one line, spin component           1
         0         1         2         3         4         5         6         7         8         9
 total charge-density along one line
 
 pseudopotential strength for first ion, spin component:           1
 17.986  25.091   0.000  -0.000   0.000   0.000  -0.000   0.000
 25.091  35.008   0.000  -0.000   0.000   0.000  -0.000   0.000
  0.000   0.000   4.100  -0.000   0.000   7.637  -0.000   0.000
 -0.000  -0.000  -0.000   4.100  -0.000  -0.000   7.637  -0.000
  0.000   0.000   0.000  -0.000   4.100   0.000  -0.000   7.637
  0.000   0.000   7.637  -0.000   0.000  14.238  -0.000   0.000
 -0.000  -0.000  -0.000   7.637  -0.000  -0.000  14.238  -0.000
  0.000   0.000   0.000  -0.000   7.637   0.000  -0.000  14.238
 total augmentation occupancy for first ion, spin component:           1
  4.776  -1.931   0.000   0.000   0.000   0.000   0.000   0.000
 -1.931   1.206   0.000   0.000   0.000   0.000   0.000   0.000
  0.000   0.000   2.279   0.000   0.000  -0.528   0.000   0.000
  0.000   0.000   0.000   2.279  -0.000   0.000  -0.528   0.000
  0.000   0.000  -0.000  -0.000   2.279  -0.000  -0.000  -0.528
  0.000   0.000  -0.528   0.000  -0.000   0.136   0.000   0.000
  0.000   0.000   0.000  -0.528  -0.000  -0.000   0.136   0.000
  0.000   0.000   0.000   0.000  -0.528  -0.000   0.000   0.136


------------------------ aborting loop because EDIFF is reached ----------------------------------------


    CHARGE:  cpu time    0.0370: real time    0.0377
    FORLOC:  cpu time    0.0000: real time    0.0006
    FORNL :  cpu time    0.0600: real time    0.0596
    STRESS:  cpu time    0.4699: real time    0.4700
    FORCOR:  cpu time    0.0140: real time    0.0138
    FORHAR:  cpu time    0.0030: real time    0.0028
    MIXING:  cpu time    0.0010: real time    0.0007
    OFIELD:  cpu time    0.0000: real time    0.0002

  FORCE on cell =-STRESS in cart. coord.  units (eV):
  Direction    XX          YY          ZZ          XY          YZ          ZX
  --------------------------------------------------------------------------------------
  Alpha Z     2.30085     2.30085     2.30085
  Ewald     -45.34918   -45.34918   -45.34918    -0.00000    -0.00000     0.00000
  Hartree     0.14379     0.14379     0.14379    -0.00000     0.00000     0.00000
  E(xc)     -12.66884   -12.66884   -12.66884    -0.00000     0.00000     0.00000
  Local      -5.10266    -5.10266    -5.10266    -0.00000     0.00000     0.00000
  n-local    38.93048    38.35201    38.19926    -1.09191    -1.20596     0.47212
  augment    -6.27712    -6.27712    -6.27712     0.00000    -0.00000    -0.00000
  Kinetic    24.72577    33.80720    26.84896    12.28625    13.19163    -5.82914
  Fock        0.00000     0.00000     0.00000     0.00000     0.00000     0.00000
  -------------------------------------------------------------------------------------
  Total       0.00140     0.00140     0.00140    -0.00000     0.00000     0.00000
  in kB       0.15368     0.15368     0.15368    -0.00000     0.00000     0.00000
  external pressure =        0.15 kB  Pullay stress =        0.00 kB


 VOLUME and BASIS-vectors are now :
 -----------------------------------------------------------------------------
  energy-cutoff  :      450.00
  volume of cell :       14.63
      direct lattice vectors                 reciprocal lattice vectors
     1.540761045  1.540761045  1.540761045     0.324514954  0.324514954  0.000000000
     1.540761045 -1.540761045 -1.540761045     0.324514954  0.000000000 -0.324514954
    -1.540761045  1.540761045 -1.540761045     0.000000000  0.324514954 -0.324514954

  length of vectors
     2.668676412  2.668676412  2.668676412     0.458933450  0.458933450  0.458933450


 FORCES acting on ions
    electron-ion (+dipol)            ewald-force                    non-local-force                 convergence-correction
 -----------------------------------------------------------------------------------------------
   0.191E-14 0.280E-15 -.135E-14   -.558E-16 0.212E-16 -.233E-16   -.258E-25 0.000E+00 0.000E+00   0.104E-15 0.118E-15 -.416E-16
 -----------------------------------------------------------------------------------------------
   0.191E-14 0.280E-15 -.135E-14   -.558E-16 0.212E-16 -.233E-16   -.258E-25 0.000E+00 0.000E+00   0.104E-15 0.118E-15 -.416E-16
 
 
 POSITION                                       TOTAL-FORCE (eV/Angst)
 -----------------------------------------------------------------------------------
      0.00000     -0.00000      0.00000        -0.000000     -0.000000     -0.000000
 -----------------------------------------------------------------------------------
    total drift:                                0.000000      0.000000     -0.000000


--------------------------------------------------------------------------------------------------------



  FREE ENERGIE OF THE ION-ELECTRON SYSTEM (eV)
  ---------------------------------------------------
  free  energy   TOTEN  =        -4.90852902 eV

  energy  without entropy=       -4.90804067  energy(sigma->0) =       -4.90828485
 
 d Force = 0.0000000E+00[ 0.000E+00, 0.000E+00]  d Energy = 0.1043645E-02-0.104E-02
 d Force = 0.0000000E+00[ 0.000E+00, 0.000E+00]  d Ewald  = 0.7121531E+00-0.712E+00


--------------------------------------------------------------------------------------------------------


    POTLOK:  cpu time    0.1810: real time    0.1868


--------------------------------------------------------------------------------------------------------




--------------------------------------------------------------------------------------------------------


  
 reached required accuracy - stopping structural energy minimisation
     LOOP+:  cpu time    5.4642: real time    5.6707
    4ORBIT:  cpu time    0.0000: real time    0.0000

 total amount of memory used by VASP MPI-rank0    36364. kBytes
=======================================================================

   base      :      30000. kBytes
   nonl-proj :       2493. kBytes
   fftplans  :       1775. kBytes
   grid      :        819. kBytes
   one-center:          3. kBytes
   wavefun   :       1274. kBytes
 
  
  
 General timing and accounting informations for this job:
 ========================================================
  
                  Total CPU time used (sec):       20.296
                            User time (sec):       19.865
                          System time (sec):        0.431
                         Elapsed time (sec):       21.588
  
                   Maximum memory used (kb):       67136.
                   Average memory used (kb):          N/A
  
                          Minor page faults:        10908
                          Major page faults:            1
                 Voluntary context switches:        22534
