 running on    4 total cores
 distrk:  each k-point on    4 cores,    1 groups
 distr:  one band on    1 cores,    4 groups
 vasp.6.2.0 18Jan21 (build Aug 12 2022 13:00:08) complex                        
  
 POSCAR found type information on POSCAR Si
 POSCAR found :  1 types and       1 ions
 scaLAPACK will be used
 LDA part: xc-table for Pade appr. of Perdew
 POSCAR, INCAR and KPOINTS ok, starting setup
 FFT: planning ...
 WAVECAR not read
 entering main loop
       N       E                     dE             d eps       ncg     rms          rms(c)
DAV:   1    -0.274342303237E+01   -0.27434E+01   -0.17206E+03  2088   0.341E+02
DAV:   2    -0.490268745458E+01   -0.21593E+01   -0.20786E+01  2904   0.286E+01
DAV:   3    -0.491362718058E+01   -0.10940E-01   -0.10936E-01  2112   0.210E+00
DAV:   4    -0.491363701883E+01   -0.98382E-05   -0.98374E-05  3144   0.683E-02
DAV:   5    -0.491363701870E+01    0.12722E-09   -0.66555E-09  2128   0.433E-04    0.285E+00
DAV:   6    -0.490217856179E+01    0.11458E-01   -0.35937E-03  2032   0.266E-01    0.158E+00
DAV:   7    -0.489560436235E+01    0.65742E-02   -0.72431E-03  2096   0.378E-01    0.136E-01
DAV:   8    -0.489558309218E+01    0.21270E-04   -0.33908E-05  2752   0.452E-02    0.116E-02
DAV:   9    -0.489558366758E+01   -0.57540E-06   -0.46272E-07  2192   0.388E-03
   1 F= -.48955837E+01 E0= -.48952689E+01  d E =-.489558E+01
 curvature:   0.00 expect dE= 0.000E+00 dE for cont linesearch  0.000E+00
 trial: gam= 0.00000 g(F)=  0.183E-64 g(S)=  0.343E-01 ort = 0.000E+00 (trialstep = 0.100E+01)
 search vector abs. value=  0.343E-01
 bond charge predicted
       N       E                     dE             d eps       ncg     rms          rms(c)
DAV:   1    -0.491605127130E+01   -0.20468E-01   -0.49933E-01  1960   0.284E+00    0.667E-01
DAV:   2    -0.491068699935E+01    0.53643E-02   -0.31578E-03  2144   0.451E-01    0.383E-01
DAV:   3    -0.490750017398E+01    0.31868E-02   -0.35181E-03  2056   0.253E-01    0.114E-01
DAV:   4    -0.490749710292E+01    0.30711E-05   -0.72452E-06  2512   0.248E-02    0.961E-02
DAV:   5    -0.490748494755E+01    0.12155E-04   -0.12713E-06  2384   0.779E-03    0.174E-02
DAV:   6    -0.490748537303E+01   -0.42548E-06   -0.25250E-08  1040   0.130E-03
   2 F= -.49074854E+01 E0= -.49072541E+01  d E =-.119017E-01
 trial-energy change:   -0.011902  1 .order   -0.012476   -0.034303    0.009351
 step:   0.7719(harm=  0.7858)  dis= 0.00000  next Energy=    -4.908559 (dE=-0.130E-01)
 bond charge predicted
       N       E                     dE             d eps       ncg     rms          rms(c)
DAV:   1    -0.490897767659E+01   -0.14927E-02   -0.26662E-02  1952   0.666E-01    0.151E-01
DAV:   2    -0.490869431575E+01    0.28336E-03   -0.16520E-04  2168   0.105E-01    0.865E-02
DAV:   3    -0.490852836940E+01    0.16595E-03   -0.18482E-04  2064   0.582E-02    0.281E-02
DAV:   4    -0.490852843415E+01   -0.64746E-07   -0.36815E-07  2392   0.560E-03    0.242E-02
DAV:   5    -0.490852916403E+01   -0.72989E-06   -0.70219E-08  1096   0.192E-03    0.474E-03
DAV:   6    -0.490852901754E+01    0.14649E-06   -0.30649E-09   960   0.519E-04
   3 F= -.49085290E+01 E0= -.49082848E+01  d E =-.129453E-01
 curvature:  -0.39 expect dE=-0.112E-06 dE for cont linesearch -0.112E-06
 trial: gam=-0.00287 g(F)=  0.137E-65 g(S)=  0.285E-06 ort = 0.989E-04 (trialstep = 0.954E+00)
 search vector abs. value=  0.102E-09
 reached required accuracy - stopping structural energy minimisation
