unknown system                          
   1.00000000000000     
     2.801829   -0.000000    0.000000
     0.000000    2.801829    0.000000
     0.000000    0.000000    2.801829
   Fe
     2
Direct
  0.000000  0.000000  0.000000
  0.500000  0.500000  0.500000
 
   48   48   48
  199.03      196.22      188.01      175.04      158.30      138.99      118.41      97.796      78.253      60.640    
  45.542      33.261      23.829      17.050      12.552      9.8332      8.3354      7.4783      6.8387      6.3445    
  5.9878      5.7442      5.5897      5.5050      5.4781      5.5050      5.5897      5.7442      5.9878      6.3445    
  6.8387      7.4783      8.3354      9.8332      12.552      17.050      23.829      33.261      45.542      60.640    
  78.253      97.796      118.41      138.99      158.30      175.04      188.01      196.22      196.22      193.45    
  185.37      172.61      156.13      137.11      116.83      96.511      77.238      59.862      44.967      32.852    
  23.554      16.877      12.453      9.7849      8.3156      7.4685      6.8318      6.3408      5.9861      5.7441    
  5.5903      5.5062      5.4793      5.5062      5.5903      5.7441      5.9861      6.3408      6.8318      7.4685    
  8.3156      9.7849      12.453      16.877      23.554      32.852      44.967      59.862      77.238      96.511    
  116.83      137.11      156.13      172.61      185.37      193.45      188.01      185.37      177.68      165.51    
  149.78      131.61      112.20      92.740      74.255      57.578      43.277      31.653      22.747      16.372    
  12.168      9.6456      8.2583      7.4389      6.8111      6.3294      5.9810      5.7436      5.5921      5.5094    
  5.4826      5.5094      5.5921      5.7436      5.9810      6.3294      6.8111      7.4389      8.2583      9.6456    
  12.168      16.372      22.747      31.653      43.277      57.578      74.255      92.740      112.20      131.61    
  149.78      165.51      177.68      185.37      175.04      172.61      165.51      154.27      139.72      122.87    
  104.85      86.729      69.494      53.927      40.578      29.742      21.466      15.575      11.722      9.4310    
  8.1688      7.3889      6.7763      6.3102      5.9723      5.7424      5.5946      5.5143      5.4877      5.5143    
  5.5946      5.7424      5.9723      6.3102      6.7763      7.3889      8.1688      9.4310      11.722      15.575    
  21.466      29.742      40.578      53.927      69.494      86.729      104.85      122.87      139.72      154.27    
  165.51      172.61      158.30      156.13      149.78      139.72      126.66      111.51      95.251      78.870    
  63.257      49.141      37.044      27.249      19.807      14.556      11.161      9.1651      8.0535      7.3172    
  6.7276      6.2829      5.9598      5.7400      5.5976      5.5200      5.4941      5.5200      5.5976      5.7400    
  5.9598      6.2829      6.7276      7.3172      8.0535      9.1651      11.161      14.556      19.807      27.249    
  37.044      49.141      63.257      78.870      95.251      111.51      126.66      139.72      149.78      156.13    
  138.99      137.11      131.61      122.87      111.51      98.284      84.052      69.674      55.946      43.532    
  32.912      24.351      17.900      13.402      10.539      8.8755      7.9169      7.2232      6.6659      6.2473    
  5.9436      5.7356      5.6004      5.5259      5.5013      5.5259      5.6004      5.7356      5.9436      6.2473    
  6.6659      7.2232      7.9169      8.8755      10.539      13.402      17.900      24.351      32.912      43.532    
  55.946      69.674      84.052      98.284      111.51      122.87      131.61      137.11      118.41      116.83    
  112.20      104.85      95.251      84.052      71.964      59.727      48.034      37.471      28.467      21.263    
  15.896      12.217      9.9162      8.5857      7.7591      7.1083      6.5927      6.2043      5.9239      5.7290    
  5.6026      5.5311      5.5084      5.5311      5.6026      5.7290      5.9239      6.2043      6.5927      7.1083    
  7.7591      8.5857      9.9162      12.217      15.896      21.263      28.467      37.471      48.034      59.727    
  71.964      84.052      95.251      104.85      112.20      116.83      97.796      96.511      92.740      86.729    
  78.870      69.674      59.727      49.647      40.021      31.355      24.017      18.211      13.955      11.098    
  9.3434      8.3064      7.5774      6.9774      6.5096      6.1559      5.9005      5.7206      5.6034      5.5358    
  5.5147      5.5358      5.6034      5.7206      5.9005      6.1559      6.5096      6.9774      7.5774      8.3064    
  9.3434      11.098      13.955      18.211      24.017      31.355      40.021      49.647      59.727      69.674    
  78.870      86.729      92.740      96.511      78.253      77.238      74.255      69.494      63.257      55.946    
  48.034      40.021      32.396      25.574      19.860      15.411      12.220      10.126      8.8506      8.0302    
  7.3740      6.8370      6.4190      6.1042      5.8739      5.7108      5.6021      5.5397      5.5193      5.5397    
  5.6021      5.7108      5.8739      6.1042      6.4190      6.8370      7.3740      8.0302      8.8506      10.126    
  12.220      15.411      19.860      25.574      32.396      40.021      48.034      55.946      63.257      69.494    
  74.255      77.238      60.640      59.862      57.578      53.927      49.141      43.532      37.471      31.355    
  25.574      20.459      16.244      13.033      10.789      9.3441      8.4305      7.7426      7.1596      6.6913    
  6.3256      6.0501      5.8454      5.6992      5.5995      5.5422      5.5228      5.5422      5.5995      5.6992    
  5.8454      6.0501      6.3256      6.6913      7.1596      7.7426      8.4305      9.3441      10.789      13.033    
  16.244      20.459      25.574      31.355      37.471      43.532      49.141      53.927      57.578      59.862    
  45.542      44.967      43.277      40.578      37.044      32.912      28.467      24.017      19.860      16.244    
  13.330      11.172      9.6983      8.7393      8.0427      7.4450      6.9462      6.5451      6.2334      5.9948    
  5.8164      5.6855      5.5960      5.5429      5.5256      5.5429      5.5960      5.6855      5.8164      5.9948    
  6.2334      6.5451      6.9462      7.4450      8.0427      8.7393      9.6983      11.172      13.330      16.244    
  19.860      24.017      28.467      32.912      37.044      40.578      43.277      44.967      33.261      32.852    
  31.653      29.742      27.249      24.351      21.263      18.211      15.411      13.033      11.172      9.8280    
  8.9104      8.2398      7.6590      7.1557      6.7391      6.4052      6.1433      5.9408      5.7861      5.6711    
  5.5907      5.5429      5.5269      5.5429      5.5907      5.6711      5.7861      5.9408      6.1433      6.4052    
  6.7391      7.1557      7.6590      8.2398      8.9104      9.8280      11.172      13.033      15.411      18.211    
  21.263      24.351      27.249      29.742      31.653      32.852      23.829      23.554      22.747      21.466    
  19.807      17.900      15.896      13.955      12.220      10.789      9.6983      8.9104      8.3087      7.7737    
  7.2940      6.8846      6.5463      6.2740      6.0578      5.8879      5.7557      5.6555      5.5844      5.5417    
  5.5273      5.5417      5.5844      5.6555      5.7557      5.8879      6.0578      6.2740      6.5463      6.8846    
  7.2940      7.7737      8.3087      8.9104      9.6983      10.789      12.220      13.955      15.896      17.900    
  19.807      21.466      22.747      23.554      17.050      16.877      16.372      15.575      14.556      13.402    
  12.217      11.098      10.126      9.3441      8.7393      8.2398      7.7737      7.3424      6.9627      6.6392    
  6.3715      6.1534      5.9777      5.8366      5.7247      5.6385      5.5768      5.5394      5.5269      5.5394    
  5.5768      5.6385      5.7247      5.8366      5.9777      6.1534      6.3715      6.6392      6.9627      7.3424    
  7.7737      8.2398      8.7393      9.3441      10.126      11.098      12.217      13.402      14.556      15.575    
  16.372      16.877      12.552      12.453      12.168      11.722      11.161      10.539      9.9162      9.3434    
  8.8506      8.4305      8.0427      7.6590      7.2940      6.9627      6.6717      6.4236      6.2159      6.0442    
  5.9026      5.7870      5.6936      5.6209      5.5683      5.5364      5.5256      5.5364      5.5683      5.6209    
  5.6936      5.7870      5.9026      6.0442      6.2159      6.4236      6.6717      6.9627      7.2940      7.6590    
  8.0427      8.4305      8.8506      9.3434      9.9162      10.539      11.161      11.722      12.168      12.453    
  9.8332      9.7849      9.6456      9.4310      9.1651      8.8755      8.5857      8.3064      8.0302      7.7426    
  7.4450      7.1557      6.8846      6.6392      6.4236      6.2377      6.0795      5.9455      5.8331      5.7393    
  5.6625      5.6020      5.5583      5.5317      5.5228      5.5317      5.5583      5.6020      5.6625      5.7393    
  5.8331      5.9455      6.0795      6.2377      6.4236      6.6392      6.8846      7.1557      7.4450      7.7426    
  8.0302      8.3064      8.5857      8.8755      9.1651      9.4310      9.6456      9.7849      8.3354      8.3156    
  8.2583      8.1688      8.0535      7.9169      7.7591      7.5774      7.3740      7.1596      6.9462      6.7391    
  6.5463      6.3715      6.2159      6.0795      5.9603      5.8575      5.7688      5.6935      5.6313      5.5826    
  5.5475      5.5264      5.5193      5.5264      5.5475      5.5826      5.6313      5.6935      5.7688      5.8575    
  5.9603      6.0795      6.2159      6.3715      6.5463      6.7391      6.9462      7.1596      7.3740      7.5774    
  7.7591      7.9169      8.0535      8.1688      8.2583      8.3156      7.4783      7.4685      7.4389      7.3889    
  7.3172      7.2232      7.1083      6.9774      6.8370      6.6913      6.5451      6.4052      6.2740      6.1534    
  6.0442      5.9455      5.8575      5.7790      5.7098      5.6506      5.6019      5.5638      5.5365      5.5201    
  5.5147      5.5201      5.5365      5.5638      5.6019      5.6506      5.7098      5.7790      5.8575      5.9455    
  6.0442      6.1534      6.2740      6.4052      6.5451      6.6913      6.8370      6.9774      7.1083      7.2232    
  7.3172      7.3889      7.4389      7.4685      6.8387      6.8318      6.8111      6.7763      6.7276      6.6659    
  6.5927      6.5096      6.4190      6.3256      6.2334      6.1433      6.0578      5.9777      5.9026      5.8331    
  5.7688      5.7098      5.6573      5.6121      5.5748      5.5457      5.5249      5.5125      5.5084      5.5125    
  5.5249      5.5457      5.5748      5.6121      5.6573      5.7098      5.7688      5.8331      5.9026      5.9777    
  6.0578      6.1433      6.2334      6.3256      6.4190      6.5096      6.5927      6.6659      6.7276      6.7763    
  6.8111      6.8318      6.3445      6.3408      6.3294      6.3102      6.2829      6.2473      6.2043      6.1559    
  6.1042      6.0501      5.9948      5.9408      5.8879      5.8366      5.7870      5.7393      5.6935      5.6506    
  5.6121      5.5786      5.5506      5.5288      5.5134      5.5043      5.5013      5.5043      5.5134      5.5288    
  5.5506      5.5786      5.6121      5.6506      5.6935      5.7393      5.7870      5.8366      5.8879      5.9408    
  5.9948      6.0501      6.1042      6.1559      6.2043      6.2473      6.2829      6.3102      6.3294      6.3408    
  5.9878      5.9861      5.9810      5.9723      5.9598      5.9436      5.9239      5.9005      5.8739      5.8454    
  5.8164      5.7861      5.7557      5.7247      5.6936      5.6625      5.6313      5.6019      5.5748      5.5506    
  5.5301      5.5142      5.5029      5.4963      5.4941      5.4963      5.5029      5.5142      5.5301      5.5506    
  5.5748      5.6019      5.6313      5.6625      5.6936      5.7247      5.7557      5.7861      5.8164      5.8454    
  5.8739      5.9005      5.9239      5.9436      5.9598      5.9723      5.9810      5.9861      5.7442      5.7441    
  5.7436      5.7424      5.7400      5.7356      5.7290      5.7206      5.7108      5.6992      5.6855      5.6711    
  5.6555      5.6385      5.6209      5.6020      5.5826      5.5638      5.5457      5.5288      5.5142      5.5026    
  5.4943      5.4894      5.4877      5.4894      5.4943      5.5026      5.5142      5.5288      5.5457      5.5638    
  5.5826      5.6020      5.6209      5.6385      5.6555      5.6711      5.6855      5.6992      5.7108      5.7206    
  5.7290      5.7356      5.7400      5.7424      5.7436      5.7441      5.5897      5.5903      5.5921      5.5946    
  5.5976      5.6004      5.6026      5.6034      5.6021      5.5995      5.5960      5.5907      5.5844      5.5768    
  5.5683      5.5583      5.5475      5.5365      5.5249      5.5134      5.5029      5.4943      5.4879      5.4839    
  5.4826      5.4839      5.4879      5.4943      5.5029      5.5134      5.5249      5.5365      5.5475      5.5583    
  5.5683      5.5768      5.5844      5.5907      5.5960      5.5995      5.6021      5.6034      5.6026      5.6004    
  5.5976      5.5946      5.5921      5.5903      5.5050      5.5062      5.5094      5.5143      5.5200      5.5259    
  5.5311      5.5358      5.5397      5.5422      5.5429      5.5429      5.5417      5.5394      5.5364      5.5317    
  5.5264      5.5201      5.5125      5.5043      5.4963      5.4894      5.4839      5.4804      5.4793      5.4804    
  5.4839      5.4894      5.4963      5.5043      5.5125      5.5201      5.5264      5.5317      5.5364      5.5394    
  5.5417      5.5429      5.5429      5.5422      5.5397      5.5358      5.5311      5.5259      5.5200      5.5143    
  5.5094      5.5062      5.4781      5.4793      5.4826      5.4877      5.4941      5.5013      5.5084      5.5147    
  5.5193      5.5228      5.5256      5.5269      5.5273      5.5269      5.5256      5.5228      5.5193      5.5147    
  5.5084      5.5013      5.4941      5.4877      5.4826      5.4793      5.4781      5.4793      5.4826      5.4877    
  5.4941      5.5013      5.5084      5.5147      5.5193      5.5228      5.5256      5.5269      5.5273      5.5269    
  5.5256      5.5228      5.5193      5.5147      5.5084      5.5013      5.4941      5.4877      5.4826      5.4793    
  5.5050      5.5062      5.5094      5.5143      5.5200      5.5259      5.5311      5.5358      5.5397      5.5422    
  5.5429      5.5429      5.5417      5.5394      5.5364      5.5317      5.5264      5.5201      5.5125      5.5043    
  5.4963      5.4894      5.4839      5.4804      5.4793      5.4804      5.4839      5.4894      5.4963      5.5043    
  5.5125      5.5201      5.5264      5.5317      5.5364      5.5394      5.5417      5.5429      5.5429      5.5422    
  5.5397      5.5358      5.5311      5.5259      5.5200      5.5143      5.5094      5.5062      5.5897      5.5903    
  5.5921      5.5946      5.5976      5.6004      5.6026      5.6034      5.6021      5.5995      5.5960      5.5907    
  5.5844      5.5768      5.5683      5.5583      5.5475      5.5365      5.5249      5.5134      5.5029      5.4943    
  5.4879      5.4839      5.4826      5.4839      5.4879      5.4943      5.5029      5.5134      5.5249      5.5365    
  5.5475      5.5583      5.5683      5.5768      5.5844      5.5907      5.5960      5.5995      5.6021      5.6034    
  5.6026      5.6004      5.5976      5.5946      5.5921      5.5903      5.7442      5.7441      5.7436      5.7424    
  5.7400      5.7356      5.7290      5.7206      5.7108      5.6992      5.6855      5.6711      5.6555      5.6385    
  5.6209      5.6020      5.5826      5.5638      5.5457      5.5288      5.5142      5.5026      5.4943      5.4894    
  5.4877      5.4894      5.4943      5.5026      5.5142      5.5288      5.5457      5.5638      5.5826      5.6020    
  5.6209      5.6385      5.6555      5.6711      5.6855      5.6992      5.7108      5.7206      5.7290      5.7356    
  5.7400      5.7424      5.7436      5.7441      5.9878      5.9861      5.9810      5.9723      5.9598      5.9436    
  5.9239      5.9005      5.8739      5.8454      5.8164      5.7861      5.7557      5.7247      5.6936      5.6625    
  5.6313      5.6019      5.5748      5.5506      5.5301      5.5142      5.5029      5.4963      5.4941      5.4963    
  5.5029      5.5142      5.5301      5.5506      5.5748      5.6019      5.6313      5.6625      5.6936      5.7247    
  5.7557      5.7861      5.8164      5.8454      5.8739      5.9005      5.9239      5.9436      5.9598      5.9723    
  5.9810      5.9861      6.3445      6.3408      6.3294      6.3102      6.2829      6.2473      6.2043      6.1559    
  6.1042      6.0501      5.9948      5.9408      5.8879      5.8366      5.7870      5.7393      5.6935      5.6506    
  5.6121      5.5786      5.5506      5.5288      5.5134      5.5043      5.5013      5.5043      5.5134      5.5288    
  5.5506      5.5786      5.6121      5.6506      5.6935      5.7393      5.7870      5.8366      5.8879      5.9408    
  5.9948      6.0501      6.1042      6.1559      6.2043      6.2473      6.2829      6.3102      6.3294      6.3408    
  6.8387      6.8318      6.8111      6.7763      6.7276      6.6659      6.5927      6.5096      6.4190      6.3256    
  6.2334      6.1433      6.0578      5.9777      5.9026      5.8331      5.7688      5.7098      5.6573      5.6121    
  5.5748      5.5457      5.5249      5.5125      5.5084      5.5125      5.5249      5.5457      5.5748      5.6121    
  5.6573      5.7098      5.7688      5.8331      5.9026      5.9777      6.0578      6.1433      6.2334      6.3256    
  6.4190      6.5096      6.5927      6.6659      6.7276      6.7763      6.8111      6.8318      7.4783      7.4685    
  7.4389      7.3889      7.3172      7.2232      7.1083      6.9774      6.8370      6.6913      6.5451      6.4052    
  6.2740      6.1534      6.0442      5.9455      5.8575      5.7790      5.7098      5.6506      5.6019      5.5638    
  5.5365      5.5201      5.5147      5.5201      5.5365      5.5638      5.6019      5.6506      5.7098      5.7790    
  5.8575      5.9455      6.0442      6.1534      6.2740      6.4052      6.5451      6.6913      6.8370      6.9774    
  7.1083      7.2232      7.3172      7.3889      7.4389      7.4685      8.3354      8.3156      8.2583      8.1688    
  8.0535      7.9169      7.7591      7.5774      7.3740      7.1596      6.9462      6.7391      6.5463      6.3715    
  6.2159      6.0795      5.9603      5.8575      5.7688      5.6935      5.6313      5.5826      5.5475      5.5264    
  5.5193      5.5264      5.5475      5.5826      5.6313      5.6935      5.7688      5.8575      5.9603      6.0795    
  6.2159      6.3715      6.5463      6.7391      6.9462      7.1596      7.3740      7.5774      7.7591      7.9169    
  8.0535      8.1688      8.2583      8.3156      9.8332      9.7849      9.6456      9.4310      9.1651      8.8755    
  8.5857      8.3064      8.0302      7.7426      7.4450      7.1557      6.8846      6.6392      6.4236      6.2377    
  6.0795      5.9455      5.8331      5.7393      5.6625      5.6020      5.5583      5.5317      5.5228      5.5317    
  5.5583      5.6020      5.6625      5.7393      5.8331      5.9455      6.0795      6.2377      6.4236      6.6392    
  6.8846      7.1557      7.4450      7.7426      8.0302      8.3064      8.5857      8.8755      9.1651      9.4310    
  9.6456      9.7849      12.552      12.453      12.168      11.722      11.161      10.539      9.9162      9.3434    
  8.8506      8.4305      8.0427      7.6590      7.2940      6.9627      6.6717      6.4236      6.2159      6.0442    
  5.9026      5.7870      5.6936      5.6209      5.5683      5.5364      5.5256      5.5364      5.5683      5.6209    
  5.6936      5.7870      5.9026      6.0442      6.2159      6.4236      6.6717      6.9627      7.2940      7.6590    
  8.0427      8.4305      8.8506      9.3434      9.9162      10.539      11.161      11.722      12.168      12.453    
  17.050      16.877      16.372      15.575      14.556      13.402      12.217      11.098      10.126      9.3441    
  8.7393      8.2398      7.7737      7.3424      6.9627      6.6392      6.3715      6.1534      5.9777      5.8366    
  5.7247      5.6385      5.5768      5.5394      5.5269      5.5394      5.5768      5.6385      5.7247      5.8366    
  5.9777      6.1534      6.3715      6.6392      6.9627      7.3424      7.7737      8.2398      8.7393      9.3441    
  10.126      11.098      12.217      13.402      14.556      15.575      16.372      16.877      23.829      23.554    
  22.747      21.466      19.807      17.900      15.896      13.955      12.220      10.789      9.6983      8.9104    
  8.3087      7.7737      7.2940      6.8846      6.5463      6.2740      6.0578      5.8879      5.7557      5.6555    
  5.5844      5.5417      5.5273      5.5417      5.5844      5.6555      5.7557      5.8879      6.0578      6.2740    
  6.5463      6.8846      7.2940      7.7737      8.3087      8.9104      9.6983      10.789      12.220      13.955    
  15.896      17.900      19.807      21.466      22.747      23.554      33.261      32.852      31.653      29.742    
  27.249      24.351      21.263      18.211      15.411      13.033      11.172      9.8280      8.9104      8.2398    
  7.6590      7.1557      6.7391      6.4052      6.1433      5.9408      5.7861      5.6711      5.5907      5.5429    
  5.5269      5.5429      5.5907      5.6711      5.7861      5.9408      6.1433      6.4052      6.7391      7.1557    
  7.6590      8.2398      8.9104      9.8280      11.172      13.033      15.411      18.211      21.263      24.351    
  27.249      29.742      31.653      32.852      45.542      44.967      43.277      40.578      37.044      32.912    
  28.467      24.017      19.860      16.244      13.330      11.172      9.6983      8.7393      8.0427      7.4450    
  6.9462      6.5451      6.2334      5.9948      5.8164      5.6855      5.5960      5.5429      5.5256      5.5429    
  5.5960      5.6855      5.8164      5.9948      6.2334      6.5451      6.9462      7.4450      8.0427      8.7393    
  9.6983      11.172      13.330      16.244      19.860      24.017      28.467      32.912      37.044      40.578    
  43.277      44.967      60.640      59.862      57.578      53.927      49.141      43.532      37.471      31.355    
  25.574      20.459      16.244      13.033      10.789      9.3441      8.4305      7.7426      7.1596      6.6913    
  6.3256      6.0501      5.8454      5.6992      5.5995      5.5422      5.5228      5.5422      5.5995      5.6992    
  5.8454      6.0501      6.3256      6.6913      7.1596      7.7426      8.4305      9.3441      10.789      13.033    
  16.244      20.459      25.574      31.355      37.471      43.532      49.141      53.927      57.578      59.862    
  78.253      77.238      74.255      69.494      63.257      55.946      48.034      40.021      32.396      25.574    
  19.860      15.411      12.220      10.126      8.8506      8.0302      7.3740      6.8370      6.4190      6.1042    
  5.8739      5.7108      5.6021      5.5397      5.5193      5.5397      5.6021      5.7108      5.8739      6.1042    
  6.4190      6.8370      7.3740      8.0302      8.8506      10.126      12.220      15.411      19.860      25.574    
  32.396      40.021      48.034      55.946      63.257      69.494      74.255      77.238      97.796      96.511    
  92.740      86.729      78.870      69.674      59.727      49.647      40.021      31.355      24.017      18.211    
  13.955      11.098      9.3434      8.3064      7.5774      6.9774      6.5096      6.1559      5.9005      5.7206    
  5.6034      5.5358      5.5147      5.5358      5.6034      5.7206      5.9005      6.1559      6.5096      6.9774    
  7.5774      8.3064      9.3434      11.098      13.955      18.211      24.017      31.355      40.021      49.647    
  59.727      69.674      78.870      86.729      92.740      96.511      118.41      116.83      112.20      104.85    
  95.251      84.052      71.964      59.727      48.034      37.471      28.467      21.263      15.896      12.217    
  9.9162      8.5857      7.7591      7.1083      6.5927      6.2043      5.9239      5.7290      5.6026      5.5311    
  5.5084      5.5311      5.6026      5.7290      5.9239      6.2043      6.5927      7.1083      7.7591      8.5857    
  9.9162      12.217      15.896      21.263      28.467      37.471      48.034      59.727      71.964      84.052    
  95.251      104.85      112.20      116.83      138.99      137.11      131.61      122.87      111.51      98.284    
  84.052      69.674      55.946      43.532      32.912      24.351      17.900      13.402      10.539      8.8755    
  7.9169      7.2232      6.6659      6.2473      5.9436      5.7356      5.6004      5.5259      5.5013      5.5259    
  5.6004      5.7356      5.9436      6.2473      6.6659      7.2232      7.9169      8.8755      10.539      13.402    
  17.900      24.351      32.912      43.532      55.946      69.674      84.052      98.284      111.51      122.87    
  131.61      137.11      158.30      156.13      149.78      139.72      126.66      111.51      95.251      78.870    
  63.257      49.141      37.044      27.249      19.807      14.556      11.161      9.1651      8.0535      7.3172    
  6.7276      6.2829      5.9598      5.7400      5.5976      5.5200      5.4941      5.5200      5.5976      5.7400    
  5.9598      6.2829      6.7276      7.3172      8.0535      9.1651      11.161      14.556      19.807      27.249    
  37.044      49.141      63.257      78.870      95.251      111.51      126.66      139.72      149.78      156.13    
  175.04      172.61      165.51      154.27      139.72      122.87      104.85      86.729      69.494      53.927    
  40.578      29.742      21.466      15.575      11.722      9.4310      8.1688      7.3889      6.7763      6.3102    
  5.9723      5.7424      5.5946      5.5143      5.4877      5.5143      5.5946      5.7424      5.9723      6.3102    
  6.7763      7.3889      8.1688      9.4310      11.722      15.575      21.466      29.742      40.578      53.927    
  69.494      86.729      104.85      122.87      139.72      154.27      165.51      172.61      188.01      185.37    
  177.68      165.51      149.78      131.61      112.20      92.740      74.255      57.578      43.277      31.653    
  22.747      16.372      12.168      9.6456      8.2583      7.4389      6.8111      6.3294      5.9810      5.7436    
  5.5921      5.5094      5.4826      5.5094      5.5921      5.7436      5.9810      6.3294      6.8111      7.4389    
  8.2583      9.6456      12.168      16.372      22.747      31.653      43.277      57.578      74.255      92.740    
  112.20      131.61      149.78      165.51      177.68      185.37      196.22      193.45      185.37      172.61    
  156.13      137.11      116.83      96.511      77.238      59.862      44.967      32.852      23.554      16.877    
  12.453      9.7849      8.3156      7.4685      6.8318      6.3408      5.9861      5.7441      5.5903      5.5062    
  5.4793      5.5062      5.5903      5.7441      5.9861      6.3408      6.8318      7.4685      8.3156      9.7849    
  12.453      16.877      23.554      32.852      44.967      59.862      77.238      96.511      116.83      137.11    
  156.13      172.61      185.37      193.45      196.22      193.45      185.37      172.61      156.13      137.11    
  116.83      96.511      77.238      59.862      44.967      32.852      23.554      16.877      12.453      9.7849    
  8.3156      7.4685      6.8318      6.3408      5.9861      5.7441      5.5903      5.5062      5.4793      5.5062    
  5.5903      5.7441      5.9861      6.3408      6.8318      7.4685      8.3156      9.7849      12.453      16.877    
  23.554      32.852      44.967      59.862      77.238      96.511      116.83      137.11      156.13      172.61    
  185.37      193.45      193.45      190.73      182.78      170.22      153.99      135.26      115.27      95.243    
  76.235      59.094      44.400      32.449      23.282      16.707      12.357      9.7377      8.2963      7.4588    
  6.8250      6.3371      5.9845      5.7440      5.5910      5.5073      5.4804      5.5073      5.5910      5.7440    
  5.9845      6.3371      6.8250      7.4588      8.2963      9.7377      12.357      16.707      23.282      32.449    
  44.400      59.094      76.235      95.243      115.27      135.26      153.99      170.22      182.78      190.73    
  185.37      182.78      175.20      163.23      147.74      129.84      110.71      91.522      73.291      56.838    
  42.730      31.265      22.486      16.209      12.077      9.6015      8.2403      7.4294      6.8045      6.3259    
  5.9796      5.7437      5.5929      5.5107      5.4839      5.5107      5.5929      5.7437      5.9796      6.3259    
  6.8045      7.4294      8.2403      9.6015      12.077      16.209      22.486      31.265      42.730      56.838    
  73.291      91.522      110.71      129.84      147.74      163.23      175.20      182.78      172.61      170.22    