unknown system                          
   1.00000000000000     
     2.830553   -0.000000    0.000000
     0.000000    2.830553    0.000000
     0.000000    0.000000    2.830553
   Fe
     2
Direct
 -0.000000 -0.000000 -0.000000
  0.500000  0.500000  0.500000
 
   48   48   48
 0.19209727579E+03 0.18944461394E+03 0.18169388863E+03 0.16944132262E+03 0.15359758616E+03
 0.13528121585E+03 0.11569541697E+03 0.96009725388E+02 0.77257539078E+02 0.60262378743E+02
 0.45594869472E+02 0.33564310197E+02 0.24229094131E+02 0.17432100307E+02 0.12845541658E+02
 0.10019399707E+02 0.84365228385E+01 0.75565525267E+01 0.69304120007E+01 0.64400163009E+01
 0.60849484713E+01 0.58402700623E+01 0.56860830685E+01 0.56008385315E+01 0.55744585286E+01
 0.56008385315E+01 0.56860830685E+01 0.58402700623E+01 0.60849484713E+01 0.64400163009E+01
 0.69304120007E+01 0.75565525267E+01 0.84365228385E+01 0.10019399707E+02 0.12845541658E+02
 0.17432100307E+02 0.24229094131E+02 0.33564310197E+02 0.45594869472E+02 0.60262378743E+02
 0.77257539078E+02 0.96009725388E+02 0.11569541697E+03 0.13528121585E+03 0.15359758616E+03
 0.16944132262E+03 0.18169388863E+03 0.18944461394E+03 0.18944461394E+03 0.18683382554E+03
 0.17920469454E+03 0.16714147794E+03 0.15153766743E+03 0.13349160541E+03 0.11418680665E+03
 0.94775063323E+02 0.76276487291E+02 0.59506223784E+02 0.45031850597E+02 0.33160882241E+02
 0.23953931041E+02 0.17256555182E+02 0.12743586062E+02 0.99678714945E+01 0.84149433151E+01
 0.75470223437E+01 0.69238368985E+01 0.64363488589E+01 0.60833081857E+01 0.58402131606E+01
 0.56867788587E+01 0.56020535049E+01 0.55757007324E+01 0.56020535049E+01 0.56867788587E+01
 0.58402131606E+01 0.60833081857E+01 0.64363488589E+01 0.69238368985E+01 0.75470223437E+01
 0.84149433151E+01 0.99678714945E+01 0.12743586062E+02 0.17256555182E+02 0.23953931041E+02
 0.33160882241E+02 0.45031850597E+02 0.59506223784E+02 0.76276487291E+02 0.94775063323E+02
 0.11418680665E+03 0.13349160541E+03 0.15153766743E+03 0.16714147794E+03 0.17920469454E+03
 0.18683382554E+03 0.18169388863E+03 0.17920469454E+03 0.17192846601E+03 0.16041536163E+03
 0.14550896524E+03 0.12824932557E+03 0.10976242381E+03 0.91149861342E+02 0.73393901076E+02
 0.57284350229E+02 0.43376310300E+02 0.31975811762E+02 0.23147384116E+02 0.16743262690E+02
 0.12447230713E+02 0.98187941730E+01 0.83527616399E+01 0.75183492117E+01 0.69039543653E+01
 0.64252533880E+01 0.60783468999E+01 0.58398618100E+01 0.56887259514E+01 0.56054666828E+01
 0.55792705384E+01 0.56054666828E+01 0.56887259514E+01 0.58398618100E+01 0.60783468999E+01
 0.64252533880E+01 0.69039543653E+01 0.75183492117E+01 0.83527616399E+01 0.98187941730E+01
 0.12447230713E+02 0.16743262690E+02 0.23147384116E+02 0.31975811762E+02 0.43376310300E+02
 0.57284350229E+02 0.73393901076E+02 0.91149861342E+02 0.10976242381E+03 0.12824932557E+03
 0.14550896524E+03 0.16041536163E+03 0.17192846601E+03 0.17920469454E+03 0.16944132262E+03
 0.16714147794E+03 0.16041536163E+03 0.14976072248E+03 0.13594495006E+03 0.11991847792E+03
 0.10271880204E+03 0.85368516489E+02 0.68789628370E+02 0.53731605933E+02 0.40730502209E+02
 0.30085010675E+02 0.21865318542E+02 0.15933003280E+02 0.11983792739E+02 0.95887020350E+01
 0.82564566708E+01 0.74702482147E+01 0.68702744078E+01 0.64065381749E+01 0.60697477933E+01
 0.58389724292E+01 0.56915569634E+01 0.56107711768E+01 0.55847683856E+01 0.56107711768E+01
 0.56915569634E+01 0.58389724292E+01 0.60697477933E+01 0.64065381749E+01 0.68702744078E+01
 0.74702482147E+01 0.82564566708E+01 0.95887020350E+01 0.11983792739E+02 0.15933003280E+02
 0.21865318542E+02 0.30085010675E+02 0.40730502209E+02 0.53731605933E+02 0.68789628370E+02
 0.85368516489E+02 0.10271880204E+03 0.11991847792E+03 0.13594495006E+03 0.14976072248E+03
 0.16041536163E+03 0.16714147794E+03 0.15359758616E+03 0.15153766743E+03 0.14550896524E+03
 0.13594495006E+03 0.12351846482E+03 0.10906871294E+03 0.93521940291E+02 0.77801650497E+02
 0.62752564591E+02 0.49070394123E+02 0.37261491877E+02 0.27614082466E+02 0.20200705802E+02
 0.14891788324E+02 0.11397329326E+02 0.93025164650E+01 0.81348264816E+01 0.74019758163E+01
 0.68227050211E+01 0.63799806538E+01 0.60573879042E+01 0.58369852041E+01 0.56947934475E+01
 0.56172191158E+01 0.55916313122E+01 0.56172191158E+01 0.56947934475E+01 0.58369852041E+01
 0.60573879042E+01 0.63799806538E+01 0.68227050211E+01 0.74019758163E+01 0.81348264816E+01
 0.93025164650E+01 0.11397329326E+02 0.14891788324E+02 0.20200705802E+02 0.27614082466E+02
 0.37261491877E+02 0.49070394123E+02 0.62752564591E+02 0.77801650497E+02 0.93521940291E+02
 0.10906871294E+03 0.12351846482E+03 0.13594495006E+03 0.14550896524E+03 0.15153766743E+03
 0.13528121585E+03 0.13349160541E+03 0.12824932557E+03 0.11991847792E+03 0.10906871294E+03
 0.96417829218E+02 0.82768581835E+02 0.68932687587E+02 0.55664548792E+02 0.43596546027E+02
 0.33196911560E+02 0.24734229949E+02 0.18278736783E+02 0.13707918249E+02 0.10743578635E+02
 0.89902553568E+01 0.79947783429E+01 0.73125132569E+01 0.67620453325E+01 0.63454495876E+01
 0.60413346056E+01 0.58333406199E+01 0.56980485831E+01 0.56240362292E+01 0.55993452471E+01
 0.56240362292E+01 0.56980485831E+01 0.58333406199E+01 0.60413346056E+01 0.63454495876E+01
 0.67620453325E+01 0.73125132569E+01 0.79947783429E+01 0.89902553568E+01 0.10743578635E+02
 0.13707918249E+02 0.18278736783E+02 0.24734229949E+02 0.33196911560E+02 0.43596546027E+02
 0.55664548792E+02 0.68932687587E+02 0.82768581835E+02 0.96417829218E+02 0.10906871294E+03
 0.11991847792E+03 0.12824932557E+03 0.13349160541E+03 0.11569541697E+03 0.11418680665E+03
 0.10976242381E+03 0.10271880204E+03 0.93521940291E+02 0.82768581835E+02 0.71134448340E+02
 0.59316800765E+02 0.47972962079E+02 0.37664581332E+02 0.28809121027E+02 0.21651253959E+02
 0.16248689462E+02 0.12482427807E+02 0.10083568028E+02 0.86794726655E+01 0.78387837325E+01
 0.72018511002E+01 0.66901027697E+01 0.63033529397E+01 0.60220167139E+01 0.58274807806E+01
 0.57009264091E+01 0.56302880732E+01 0.56073366653E+01 0.56302880732E+01 0.57009264091E+01
 0.58274807806E+01 0.60220167139E+01 0.63033529397E+01 0.66901027697E+01 0.72018511002E+01
 0.78387837325E+01 0.86794726655E+01 0.10083568028E+02 0.12482427807E+02 0.16248689462E+02
 0.21651253959E+02 0.28809121027E+02 0.37664581332E+02 0.47972962079E+02 0.59316800765E+02
 0.71134448340E+02 0.82768581835E+02 0.93521940291E+02 0.10271880204E+03 0.10976242381E+03
 0.11418680665E+03 0.96009725388E+02 0.94775063323E+02 0.91149861342E+02 0.85368516489E+02
 0.77801650497E+02 0.68932687587E+02 0.59316800765E+02 0.49538422700E+02 0.40155956310E+02
 0.31654566569E+02 0.24395003148E+02 0.18586544162E+02 0.14267162410E+02 0.11316421584E+02
 0.94723386767E+01 0.83868271754E+01 0.76636011527E+01 0.70739814731E+01 0.66085890651E+01
 0.62553511419E+01 0.59994505587E+01 0.58196705397E+01 0.57027364754E+01 0.56357886607E+01
 0.56147594397E+01 0.56357886607E+01 0.57027364754E+01 0.58196705397E+01 0.59994505587E+01
 0.62553511419E+01 0.66085890651E+01 0.70739814731E+01 0.76636011527E+01 0.83868271754E+01
 0.94723386767E+01 0.11316421584E+02 0.14267162410E+02 0.18586544162E+02 0.24395003148E+02
 0.31654566569E+02 0.40155956310E+02 0.49538422700E+02 0.59316800765E+02 0.68932687587E+02
 0.77801650497E+02 0.85368516489E+02 0.91149861342E+02 0.94775063323E+02 0.77257539078E+02
 0.76276487291E+02 0.73393901076E+02 0.68789628370E+02 0.62752564591E+02 0.55664548792E+02
 0.47972962079E+02 0.40155956310E+02 0.32677283339E+02 0.25939740910E+02 0.20242319294E+02
 0.15750626941E+02 0.12477623218E+02 0.10292845138E+02 0.89467913086E+01 0.81094989641E+01
 0.74674024930E+01 0.69354329502E+01 0.65195563534E+01 0.62039220758E+01 0.59737232875E+01
 0.58104402133E+01 0.57026699826E+01 0.56405052959E+01 0.56206623095E+01 0.56405052959E+01
 0.57026699826E+01 0.58104402133E+01 0.59737232875E+01 0.62039220758E+01 0.65195563534E+01
 0.69354329502E+01 0.74674024930E+01 0.81094989641E+01 0.89467913086E+01 0.10292845138E+02
 0.12477623218E+02 0.15750626941E+02 0.20242319294E+02 0.25939740910E+02 0.32677283339E+02
 0.40155956310E+02 0.47972962079E+02 0.55664548792E+02 0.62752564591E+02 0.68789628370E+02
 0.73393901076E+02 0.76276487291E+02 0.60262378743E+02 0.59506223784E+02 0.57284350229E+02
 0.53731605933E+02 0.49070394123E+02 0.43596546027E+02 0.37664581332E+02 0.31654566569E+02
 0.25939740910E+02 0.20841556869E+02 0.16595807240E+02 0.13314410092E+02 0.10984227042E+02
 0.94615548469E+01 0.85096837286E+01 0.78304177881E+01 0.72572860549E+01 0.67919591319E+01
 0.64266154853E+01 0.61506370276E+01 0.59457115179E+01 0.57998488856E+01 0.57008370345E+01
 0.56441771017E+01 0.56250352358E+01 0.56441771017E+01 0.57008370345E+01 0.57998488856E+01
 0.59457115179E+01 0.61506370276E+01 0.64266154853E+01 0.67919591319E+01 0.72572860549E+01
 0.78304177881E+01 0.85096837286E+01 0.94615548469E+01 0.10984227042E+02 0.13314410092E+02
 0.16595807240E+02 0.20841556869E+02 0.25939740910E+02 0.31654566569E+02 0.37664581332E+02
 0.43596546027E+02 0.49070394123E+02 0.53731605933E+02 0.57284350229E+02 0.59506223784E+02
 0.45594869472E+02 0.45031850597E+02 0.43376310300E+02 0.40730502209E+02 0.37261491877E+02
 0.33196911560E+02 0.28809121027E+02 0.24395003148E+02 0.20242319294E+02 0.16595807240E+02
 0.13619990458E+02 0.11382002936E+02 0.98322857699E+01 0.88235587915E+01 0.81254559569E+01
 0.75408816189E+01 0.70464039135E+01 0.66470455342E+01 0.63346637926E+01 0.60959274649E+01
 0.59172295530E+01 0.57870343755E+01 0.56980354221E+01 0.56457228517E+01 0.56285460003E+01
 0.56457228517E+01 0.56980354221E+01 0.57870343755E+01 0.59172295530E+01 0.60959274649E+01
 0.63346637926E+01 0.66470455342E+01 0.70464039135E+01 0.75408816189E+01 0.81254559569E+01
 0.88235587915E+01 0.98322857699E+01 0.11382002936E+02 0.13619990458E+02 0.16595807240E+02
 0.20242319294E+02 0.24395003148E+02 0.28809121027E+02 0.33196911560E+02 0.37261491877E+02
 0.40730502209E+02 0.43376310300E+02 0.45031850597E+02 0.33564310197E+02 0.33160882241E+02
 0.31975811762E+02 0.30085010675E+02 0.27614082466E+02 0.24734229949E+02 0.21651253959E+02
 0.18586544162E+02 0.15750626941E+02 0.13314410092E+02 0.11382002936E+02 0.99679877908E+01
 0.89992778199E+01 0.83199029863E+01 0.77525739473E+01 0.72553668170E+01 0.68414803071E+01
 0.65073071890E+01 0.62450564407E+01 0.60419864350E+01 0.58876906452E+01 0.57731075363E+01
 0.56935796644E+01 0.56461805521E+01 0.56305736717E+01 0.56461805521E+01 0.56935796644E+01
 0.57731075363E+01 0.58876906452E+01 0.60419864350E+01 0.62450564407E+01 0.65073071890E+01
 0.68414803071E+01 0.72553668170E+01 0.77525739473E+01 0.83199029863E+01 0.89992778199E+01
 0.99679877908E+01 0.11382002936E+02 0.13314410092E+02 0.15750626941E+02 0.18586544162E+02
 0.21651253959E+02 0.24734229949E+02 0.27614082466E+02 0.30085010675E+02 0.31975811762E+02
 0.33160882241E+02 0.24229094131E+02 0.23953931041E+02 0.23147384116E+02 0.21865318542E+02
 0.20200705802E+02 0.18278736783E+02 0.16248689462E+02 0.14267162410E+02 0.12477623218E+02
 0.10984227042E+02 0.98322857699E+01 0.89992778199E+01 0.83881317801E+01 0.78657656913E+01
 0.73931573911E+01 0.69869611422E+01 0.66489852510E+01 0.63763209186E+01 0.61595186701E+01
 0.59896244014E+01 0.58575111248E+01 0.57579565103E+01 0.56873826058E+01 0.56452389514E+01
 0.56310053825E+01 0.56452389514E+01 0.56873826058E+01 0.57579565103E+01 0.58575111248E+01
 0.59896244014E+01 0.61595186701E+01 0.63763209186E+01 0.66489852510E+01 0.69869611422E+01
 0.73931573911E+01 0.78657656913E+01 0.83881317801E+01 0.89992778199E+01 0.98322857699E+01
 0.10984227042E+02 0.12477623218E+02 0.14267162410E+02 0.16248689462E+02 0.18278736783E+02
 0.20200705802E+02 0.21865318542E+02 0.23147384116E+02 0.23953931041E+02 0.17432100307E+02
 0.17256555182E+02 0.16743262690E+02 0.15933003280E+02 0.14891788324E+02 0.13707918249E+02
 0.12482427807E+02 0.11316421584E+02 0.10292845138E+02 0.94615548469E+01 0.88235587915E+01
 0.83199029863E+01 0.78657656913E+01 0.74413278790E+01 0.70649555557E+01 0.67421882650E+01
 0.64741901722E+01 0.62555424309E+01 0.60795194654E+01 0.59383739925E+01 0.58269073453E+01
 0.57411980090E+01 0.56800276303E+01 0.56429162115E+01 0.56305736717E+01 0.56429162115E+01
 0.56800276303E+01 0.57411980090E+01 0.58269073453E+01 0.59383739925E+01 0.60795194654E+01
 0.62555424309E+01 0.64741901722E+01 0.67421882650E+01 0.70649555557E+01 0.74413278790E+01
 0.78657656913E+01 0.83199029863E+01 0.88235587915E+01 0.94615548469E+01 0.10292845138E+02
 0.11316421584E+02 0.12482427807E+02 0.13707918249E+02 0.14891788324E+02 0.15933003280E+02
 0.16743262690E+02 0.17256555182E+02 0.12845541658E+02 0.12743586062E+02 0.12447230713E+02
 0.11983792739E+02 0.11397329326E+02 0.10743578635E+02 0.10083568028E+02 0.94723386767E+01
 0.89467913086E+01 0.85096837286E+01 0.81254559569E+01 0.77525739473E+01 0.73931573911E+01
 0.70649555557E+01 0.67747154604E+01 0.65264908855E+01 0.63182901499E+01 0.61461046196E+01
 0.60044575844E+01 0.58890400984E+01 0.57959660144E+01 0.57235319090E+01 0.56710899345E+01
 0.56392983311E+01 0.56285460003E+01 0.56392983311E+01 0.56710899345E+01 0.57235319090E+01
 0.57959660144E+01 0.58890400984E+01 0.60044575844E+01 0.61461046196E+01 0.63182901499E+01
 0.65264908855E+01 0.67747154604E+01 0.70649555557E+01 0.73931573911E+01 0.77525739473E+01
 0.81254559569E+01 0.85096837286E+01 0.89467913086E+01 0.94723386767E+01 0.10083568028E+02
 0.10743578635E+02 0.11397329326E+02 0.11983792739E+02 0.12447230713E+02 0.12743586062E+02
 0.10019399707E+02 0.99678714945E+01 0.98187941730E+01 0.95887020350E+01 0.93025164650E+01
 0.89902553568E+01 0.86794726655E+01 0.83868271754E+01 0.81094989641E+01 0.78304177881E+01
 0.75408816189E+01 0.72553668170E+01 0.69869611422E+01 0.67421882650E+01 0.65264908855E+01
 0.63400954923E+01 0.61814360116E+01 0.60474117886E+01 0.59351320072E+01 0.58413341110E+01
 0.57645542279E+01 0.57041472864E+01 0.56604863821E+01 0.56339071922E+01 0.56250352358E+01
 0.56339071922E+01 0.56604863821E+01 0.57041472864E+01 0.57645542279E+01 0.58413341110E+01
 0.59351320072E+01 0.60474117886E+01 0.61814360116E+01 0.63400954923E+01 0.65264908855E+01
 0.67421882650E+01 0.69869611422E+01 0.72553668170E+01 0.75408816189E+01 0.78304177881E+01
 0.81094989641E+01 0.83868271754E+01 0.86794726655E+01 0.89902553568E+01 0.93025164650E+01
 0.95887020350E+01 0.98187941730E+01 0.99678714945E+01 0.84365228385E+01 0.84149433151E+01
 0.83527616399E+01 0.82564566708E+01 0.81348264816E+01 0.79947783429E+01 0.78387837325E+01
 0.76636011527E+01 0.74674024930E+01 0.72572860549E+01 0.70464039135E+01 0.68414803071E+01
 0.66489852510E+01 0.64741901722E+01 0.63182901499E+01 0.61814360116E+01 0.60622661656E+01
 0.59594281715E+01 0.58706443056E+01 0.57953575295E+01 0.57332482410E+01 0.56845043182E+01
 0.56492051293E+01 0.56278632047E+01 0.56206623095E+01 0.56278632047E+01 0.56492051293E+01
 0.56845043182E+01 0.57332482410E+01 0.57953575295E+01 0.58706443056E+01 0.59594281715E+01
 0.60622661656E+01 0.61814360116E+01 0.63182901499E+01 0.64741901722E+01 0.66489852510E+01
 0.68414803071E+01 0.70464039135E+01 0.72572860549E+01 0.74674024930E+01 0.76636011527E+01
 0.78387837325E+01 0.79947783429E+01 0.81348264816E+01 0.82564566708E+01 0.83527616399E+01
 0.84149433151E+01 0.75565525267E+01 0.75470223437E+01 0.75183492117E+01 0.74702482147E+01
 0.74019758163E+01 0.73125132569E+01 0.72018511002E+01 0.70739814731E+01 0.69354329502E+01
 0.67919591319E+01 0.66470455342E+01 0.65073071890E+01 0.63763209186E+01 0.62555424309E+01
 0.61461046196E+01 0.60474117886E+01 0.59594281715E+01 0.58807132539E+01 0.58116393307E+01
 0.57524766774E+01 0.57035458338E+01 0.56649519172E+01 0.56371624019E+01 0.56203422907E+01
 0.56147594397E+01 0.56203422907E+01 0.56371624019E+01 0.56649519172E+01 0.57035458338E+01
 0.57524766774E+01 0.58116393307E+01 0.58807132539E+01 0.59594281715E+01 0.60474117886E+01
 0.61461046196E+01 0.62555424309E+01 0.63763209186E+01 0.65073071890E+01 0.66470455342E+01
 0.67919591319E+01 0.69354329502E+01 0.70739814731E+01 0.72018511002E+01 0.73125132569E+01
 0.74019758163E+01 0.74702482147E+01 0.75183492117E+01 0.75470223437E+01 0.69304120007E+01
 0.69238368985E+01 0.69039543653E+01 0.68702744078E+01 0.68227050211E+01 0.67620453325E+01
 0.66901027697E+01 0.66085890651E+01 0.65195563534E+01 0.64266154853E+01 0.63346637926E+01
 0.62450564407E+01 0.61595186701E+01 0.60795194654E+01 0.60044575844E+01 0.59351320072E+01
 0.58706443056E+01 0.58116393307E+01 0.57590921742E+01 0.57136250069E+01 0.56756445989E+01
 0.56457869076E+01 0.56243832853E+01 0.56116037087E+01 0.56073366653E+01 0.56116037087E+01
 0.56243832853E+01 0.56457869076E+01 0.56756445989E+01 0.57136250069E+01 0.57590921742E+01
 0.58116393307E+01 0.58706443056E+01 0.59351320072E+01 0.60044575844E+01 0.60795194654E+01
 0.61595186701E+01 0.62450564407E+01 0.63346637926E+01 0.64266154853E+01 0.65195563534E+01
 0.66085890651E+01 0.66901027697E+01 0.67620453325E+01 0.68227050211E+01 0.68702744078E+01
 0.69039543653E+01 0.69238368985E+01 0.64400163009E+01 0.64363488589E+01 0.64252533880E+01
 0.64065381749E+01 0.63799806538E+01 0.63454495876E+01 0.63033529397E+01 0.62553511419E+01
 0.62039220758E+01 0.61506370276E+01 0.60959274649E+01 0.60419864350E+01 0.59896244014E+01
 0.59383739925E+01 0.58890400984E+01 0.58413341110E+01 0.57953575295E+01 0.57524766774E+01
 0.57136250069E+01 0.56793357420E+01 0.56505160025E+01 0.56279410178E+01 0.56119514857E+01
 0.56024702848E+01 0.55993452471E+01 0.56024702848E+01 0.56119514857E+01 0.56279410178E+01
 0.56505160025E+01 0.56793357420E+01 0.57136250069E+01 0.57524766774E+01 0.57953575295E+01
 0.58413341110E+01 0.58890400984E+01 0.59383739925E+01 0.59896244014E+01 0.60419864350E+01
 0.60959274649E+01 0.61506370276E+01 0.62039220758E+01 0.62553511419E+01 0.63033529397E+01
 0.63454495876E+01 0.63799806538E+01 0.64065381749E+01 0.64252533880E+01 0.64363488589E+01
 0.60849484713E+01 0.60833081857E+01 0.60783468999E+01 0.60697477933E+01 0.60573879042E+01
 0.60413346056E+01 0.60220167139E+01 0.59994505587E+01 0.59737232875E+01 0.59457115179E+01
 0.59172295530E+01 0.58876906452E+01 0.58575111248E+01 0.58269073453E+01 0.57959660144E+01
 0.57645542279E+01 0.57332482410E+01 0.57035458338E+01 0.56756445989E+01 0.56505160025E+01
 0.56292242079E+01 0.56126276065E+01 0.56008610685E+01 0.55939447480E+01 0.55916313122E+01
 0.55939447480E+01 0.56008610685E+01 0.56126276065E+01 0.56292242079E+01 0.56505160025E+01
 0.56756445989E+01 0.57035458338E+01 0.57332482410E+01 0.57645542279E+01 0.57959660144E+01
 0.58269073453E+01 0.58575111248E+01 0.58876906452E+01 0.59172295530E+01 0.59457115179E+01
 0.59737232875E+01 0.59994505587E+01 0.60220167139E+01 0.60413346056E+01 0.60573879042E+01
 0.60697477933E+01 0.60783468999E+01 0.60833081857E+01 0.58402700623E+01 0.58402131606E+01
 0.58398618100E+01 0.58389724292E+01 0.58369852041E+01 0.58333406199E+01 0.58274807806E+01
 0.58196705397E+01 0.58104402133E+01 0.57998488856E+01 0.57870343755E+01 0.57731075363E+01
 0.57579565103E+01 0.57411980090E+01 0.57235319090E+01 0.57041472864E+01 0.56845043182E+01
 0.56649519172E+01 0.56457869076E+01 0.56279410178E+01 0.56126276065E+01 0.56004463565E+01
 0.55917452658E+01 0.55864931191E+01 0.55847683856E+01 0.55864931191E+01 0.55917452658E+01
 0.56004463565E+01 0.56126276065E+01 0.56279410178E+01 0.56457869076E+01 0.56649519172E+01
 0.56845043182E+01 0.57041472864E+01 0.57235319090E+01 0.57411980090E+01 0.57579565103E+01
 0.57731075363E+01 0.57870343755E+01 0.57998488856E+01 0.58104402133E+01 0.58196705397E+01
 0.58274807806E+01 0.58333406199E+01 0.58369852041E+01 0.58389724292E+01 0.58398618100E+01
 0.58402131606E+01 0.56860830685E+01 0.56867788587E+01 0.56887259514E+01 0.56915569634E+01
 0.56947934475E+01 0.56980485831E+01 0.57009264091E+01 0.57027364754E+01 0.57026699826E+01
 0.57008370345E+01 0.56980354221E+01 0.56935796644E+01 0.56873826058E+01 0.56800276303E+01
 0.56710899345E+01 0.56604863821E+01 0.56492051293E+01 0.56371624019E+01 0.56243832853E+01
 0.56119514857E+01 0.56008610685E+01 0.55917452658E+01 0.55849254270E+01 0.55807053305E+01
 0.55792705384E+01 0.55807053305E+01 0.55849254270E+01 0.55917452658E+01 0.56008610685E+01
 0.56119514857E+01 0.56243832853E+01 0.56371624019E+01 0.56492051293E+01 0.56604863821E+01
 0.56710899345E+01 0.56800276303E+01 0.56873826058E+01 0.56935796644E+01 0.56980354221E+01
 0.57008370345E+01 0.57026699826E+01 0.57027364754E+01 0.57009264091E+01 0.56980485831E+01
 0.56947934475E+01 0.56915569634E+01 0.56887259514E+01 0.56867788587E+01 0.56008385315E+01
 0.56020535049E+01 0.56054666828E+01 0.56107711768E+01 0.56172191158E+01 0.56240362292E+01
 0.56302880732E+01 0.56357886607E+01 0.56405052959E+01 0.56441771017E+01 0.56457228517E+01
 0.56461805521E+01 0.56452389514E+01 0.56429162115E+01 0.56392983311E+01 0.56339071922E+01
 0.56278632047E+01 0.56203422907E+01 0.56116037087E+01 0.56024702848E+01 0.55939447480E+01
 0.55864931191E+01 0.55807053305E+01 0.55769598343E+01 0.55757007324E+01 0.55769598343E+01
 0.55807053305E+01 0.55864931191E+01 0.55939447480E+01 0.56024702848E+01 0.56116037087E+01
 0.56203422907E+01 0.56278632047E+01 0.56339071922E+01 0.56392983311E+01 0.56429162115E+01
 0.56452389514E+01 0.56461805521E+01 0.56457228517E+01 0.56441771017E+01 0.56405052959E+01
 0.56357886607E+01 0.56302880732E+01 0.56240362292E+01 0.56172191158E+01 0.56107711768E+01
 0.56054666828E+01 0.56020535049E+01 0.55744585286E+01 0.55757007324E+01 0.55792705384E+01
 0.55847683856E+01 0.55916313122E+01 0.55993452471E+01 0.56073366653E+01 0.56147594397E+01
 0.56206623095E+01 0.56250352358E+01 0.56285460003E+01 0.56305736717E+01 0.56310053825E+01
 0.56305736717E+01 0.56285460003E+01 0.56250352358E+01 0.56206623095E+01 0.56147594397E+01
 0.56073366653E+01 0.55993452471E+01 0.55916313122E+01 0.55847683856E+01 0.55792705384E+01
 0.55757007324E+01 0.55744585286E+01 0.55757007324E+01 0.55792705384E+01 0.55847683856E+01
 0.55916313122E+01 0.55993452471E+01 0.56073366653E+01 0.56147594397E+01 0.56206623095E+01
 0.56250352358E+01 0.56285460003E+01 0.56305736717E+01 0.56310053825E+01 0.56305736717E+01
 0.56285460003E+01 0.56250352358E+01 0.56206623095E+01 0.56147594397E+01 0.56073366653E+01
 0.55993452471E+01 0.55916313122E+01 0.55847683856E+01 0.55792705384E+01 0.55757007324E+01
 0.56008385315E+01 0.56020535049E+01 0.56054666828E+01 0.56107711768E+01 0.56172191158E+01
 0.56240362292E+01 0.56302880732E+01 0.56357886607E+01 0.56405052959E+01 0.56441771017E+01
 0.56457228517E+01 0.56461805521E+01 0.56452389514E+01 0.56429162115E+01 0.56392983311E+01
 0.56339071922E+01 0.56278632047E+01 0.56203422907E+01 0.56116037087E+01 0.56024702848E+01
 0.55939447480E+01 0.55864931191E+01 0.55807053305E+01 0.55769598343E+01 0.55757007324E+01
 0.55769598343E+01 0.55807053305E+01 0.55864931191E+01 0.55939447480E+01 0.56024702848E+01
 0.56116037087E+01 0.56203422907E+01 0.56278632047E+01 0.56339071922E+01 0.56392983311E+01
 0.56429162115E+01 0.56452389514E+01 0.56461805521E+01 0.56457228517E+01 0.56441771017E+01
 0.56405052959E+01 0.56357886607E+01 0.56302880732E+01 0.56240362292E+01 0.56172191158E+01
 0.56107711768E+01 0.56054666828E+01 0.56020535049E+01 0.56860830685E+01 0.56867788587E+01
 0.56887259514E+01 0.56915569634E+01 0.56947934475E+01 0.56980485831E+01 0.57009264091E+01
 0.57027364754E+01 0.57026699826E+01 0.57008370345E+01 0.56980354221E+01 0.56935796644E+01
 0.56873826058E+01 0.56800276303E+01 0.56710899345E+01 0.56604863821E+01 0.56492051293E+01
 0.56371624019E+01 0.56243832853E+01 0.56119514857E+01 0.56008610685E+01 0.55917452658E+01
 0.55849254270E+01 0.55807053305E+01 0.55792705384E+01 0.55807053305E+01 0.55849254270E+01
 0.55917452658E+01 0.56008610685E+01 0.56119514857E+01 0.56243832853E+01 0.56371624019E+01
 0.56492051293E+01 0.56604863821E+01 0.56710899345E+01 0.56800276303E+01 0.56873826058E+01
 0.56935796644E+01 0.56980354221E+01 0.57008370345E+01 0.57026699826E+01 0.57027364754E+01
 0.57009264091E+01 0.56980485831E+01 0.56947934475E+01 0.56915569634E+01 0.56887259514E+01
 0.56867788587E+01 0.58402700623E+01 0.58402131606E+01 0.58398618100E+01 0.58389724292E+01
 0.58369852041E+01 0.58333406199E+01 0.58274807806E+01 0.58196705397E+01 0.58104402133E+01
 0.57998488856E+01 0.57870343755E+01 0.57731075363E+01 0.57579565103E+01 0.57411980090E+01
 0.57235319090E+01 0.57041472864E+01 0.56845043182E+01 0.56649519172E+01 0.56457869076E+01
 0.56279410178E+01 0.56126276065E+01 0.56004463565E+01 0.55917452658E+01 0.55864931191E+01
 0.55847683856E+01 0.55864931191E+01 0.55917452658E+01 0.56004463565E+01 0.56126276065E+01
 0.56279410178E+01 0.56457869076E+01 0.56649519172E+01 0.56845043182E+01 0.57041472864E+01
 0.57235319090E+01 0.57411980090E+01 0.57579565103E+01 0.57731075363E+01 0.57870343755E+01
 0.57998488856E+01 0.58104402133E+01 0.58196705397E+01 0.58274807806E+01 0.58333406199E+01
 0.58369852041E+01 0.58389724292E+01 0.58398618100E+01 0.58402131606E+01 0.60849484713E+01
 0.60833081857E+01 0.60783468999E+01 0.60697477933E+01 0.60573879042E+01 0.60413346056E+01
 0.60220167139E+01 0.59994505587E+01 0.59737232875E+01 0.59457115179E+01 0.59172295530E+01
 0.58876906452E+01 0.58575111248E+01 0.58269073453E+01 0.57959660144E+01 0.57645542279E+01
 0.57332482410E+01 0.57035458338E+01 0.56756445989E+01 0.56505160025E+01 0.56292242079E+01
 0.56126276065E+01 0.56008610685E+01 0.55939447480E+01 0.55916313122E+01 0.55939447480E+01
 0.56008610685E+01 0.56126276065E+01 0.56292242079E+01 0.56505160025E+01 0.56756445989E+01
 0.57035458338E+01 0.57332482410E+01 0.57645542279E+01 0.57959660144E+01 0.58269073453E+01
 0.58575111248E+01 0.58876906452E+01 0.59172295530E+01 0.59457115179E+01 0.59737232875E+01
 0.59994505587E+01 0.60220167139E+01 0.60413346056E+01 0.60573879042E+01 0.60697477933E+01
 0.60783468999E+01 0.60833081857E+01 0.64400163009E+01 0.64363488589E+01 0.64252533880E+01
 0.64065381749E+01 0.63799806538E+01 0.63454495876E+01 0.63033529397E+01 0.62553511419E+01
 0.62039220758E+01 0.61506370276E+01 0.60959274649E+01 0.60419864350E+01 0.59896244014E+01
 0.59383739925E+01 0.58890400984E+01 0.58413341110E+01 0.57953575295E+01 0.57524766774E+01
 0.57136250069E+01 0.56793357420E+01 0.56505160025E+01 0.56279410178E+01 0.56119514857E+01
 0.56024702848E+01 0.55993452471E+01 0.56024702848E+01 0.56119514857E+01 0.56279410178E+01
 0.56505160025E+01 0.56793357420E+01 0.57136250069E+01 0.57524766774E+01 0.57953575295E+01
 0.58413341110E+01 0.58890400984E+01 0.59383739925E+01 0.59896244014E+01 0.60419864350E+01
 0.60959274649E+01 0.61506370276E+01 0.62039220758E+01 0.62553511419E+01 0.63033529397E+01
 0.63454495876E+01 0.63799806538E+01 0.64065381749E+01 0.64252533880E+01 0.64363488589E+01
 0.69304120007E+01 0.69238368985E+01 0.69039543653E+01 0.68702744078E+01 0.68227050211E+01
 0.67620453325E+01 0.66901027697E+01 0.66085890651E+01 0.65195563534E+01 0.64266154853E+01
 0.63346637926E+01 0.62450564407E+01 0.61595186701E+01 0.60795194654E+01 0.60044575844E+01
 0.59351320072E+01 0.58706443056E+01 0.58116393307E+01 0.57590921742E+01 0.57136250069E+01
 0.56756445989E+01 0.56457869076E+01 0.56243832853E+01 0.56116037087E+01 0.56073366653E+01
 0.56116037087E+01 0.56243832853E+01 0.56457869076E+01 0.56756445989E+01 0.57136250069E+01
 0.57590921742E+01 0.58116393307E+01 0.58706443056E+01 0.59351320072E+01 0.60044575844E+01
 0.60795194654E+01 0.61595186701E+01 0.62450564407E+01 0.63346637926E+01 0.64266154853E+01
 0.65195563534E+01 0.66085890651E+01 0.66901027697E+01 0.67620453325E+01 0.68227050211E+01
 0.68702744078E+01 0.69039543653E+01 0.69238368985E+01 0.75565525267E+01 0.75470223437E+01
 0.75183492117E+01 0.74702482147E+01 0.74019758163E+01 0.73125132569E+01 0.72018511002E+01
 0.70739814731E+01 0.69354329502E+01 0.67919591319E+01 0.66470455342E+01 0.65073071890E+01
 0.63763209186E+01 0.62555424309E+01 0.61461046196E+01 0.60474117886E+01 0.59594281715E+01
 0.58807132539E+01 0.58116393307E+01 0.57524766774E+01 0.57035458338E+01 0.56649519172E+01
 0.56371624019E+01 0.56203422907E+01 0.56147594397E+01 0.56203422907E+01 0.56371624019E+01
 0.56649519172E+01 0.57035458338E+01 0.57524766774E+01 0.58116393307E+01 0.58807132539E+01
 0.59594281715E+01 0.60474117886E+01 0.61461046196E+01 0.62555424309E+01 0.63763209186E+01
 0.65073071890E+01 0.66470455342E+01 0.67919591319E+01 0.69354329502E+01 0.70739814731E+01
 0.72018511002E+01 0.73125132569E+01 0.74019758163E+01 0.74702482147E+01 0.75183492117E+01
 0.75470223437E+01 0.84365228385E+01 0.84149433151E+01 0.83527616399E+01 0.82564566708E+01
 0.81348264816E+01 0.79947783429E+01 0.78387837325E+01 0.76636011527E+01 0.74674024930E+01
 0.72572860549E+01 0.70464039135E+01 0.68414803071E+01 0.66489852510E+01 0.64741901722E+01
 0.63182901499E+01 0.61814360116E+01 0.60622661656E+01 0.59594281715E+01 0.58706443056E+01
 0.57953575295E+01 0.57332482410E+01 0.56845043182E+01 0.56492051293E+01 0.56278632047E+01
 0.56206623095E+01 0.56278632047E+01 0.56492051293E+01 0.56845043182E+01 0.57332482410E+01
 0.57953575295E+01 0.58706443056E+01 0.59594281715E+01 0.60622661656E+01 0.61814360116E+01
 0.63182901499E+01 0.64741901722E+01 0.66489852510E+01 0.68414803071E+01 0.70464039135E+01
 0.72572860549E+01 0.74674024930E+01 0.76636011527E+01 0.78387837325E+01 0.79947783429E+01
 0.81348264816E+01 0.82564566708E+01 0.83527616399E+01 0.84149433151E+01 0.10019399707E+02
 0.99678714945E+01 0.98187941730E+01 0.95887020350E+01 0.93025164650E+01 0.89902553568E+01
 0.86794726655E+01 0.83868271754E+01 0.81094989641E+01 0.78304177881E+01 0.75408816189E+01
 0.72553668170E+01 0.69869611422E+01 0.67421882650E+01 0.65264908855E+01 0.63400954923E+01
 0.61814360116E+01 0.60474117886E+01 0.59351320072E+01 0.58413341110E+01 0.57645542279E+01
 0.57041472864E+01 0.56604863821E+01 0.56339071922E+01 0.56250352358E+01 0.56339071922E+01
 0.56604863821E+01 0.57041472864E+01 0.57645542279E+01 0.58413341110E+01 0.59351320072E+01
 0.60474117886E+01 0.61814360116E+01 0.63400954923E+01 0.65264908855E+01 0.67421882650E+01
 0.69869611422E+01 0.72553668170E+01 0.75408816189E+01 0.78304177881E+01 0.81094989641E+01
 0.83868271754E+01 0.86794726655E+01 0.89902553568E+01 0.93025164650E+01 0.95887020350E+01