   2   2   1   0
  0.1173411E+02  0.2863036E-09  0.2863036E-09  0.2863036E-09  0.5000000E-15
  1.000000000000000E-004
  CAR 
 unknown system                          
     45.18658729     -4.87300514  301      5.84025141      1.00000000
     -4.873  0.0000E+00  0.0000E+00  0.0000E+00  0.0000E+00
     -4.706  0.0000E+00  0.0000E+00  0.0000E+00  0.0000E+00
     -4.539  0.0000E+00  0.0000E+00  0.0000E+00  0.0000E+00
     -4.372  0.0000E+00  0.0000E+00  0.0000E+00  0.0000E+00
     -4.206 -0.3417E-32  0.0000E+00 -0.5703E-33  0.0000E+00
     -4.039 -0.1027E-26 -0.5440E-32 -0.1714E-27 -0.9077E-33
     -3.872 -0.7605E-22 -0.1557E-26 -0.1269E-22 -0.2598E-27
     -3.705 -0.1344E-17 -0.1097E-21 -0.2243E-18 -0.1831E-22
     -3.538 -0.5994E-14 -0.1845E-17 -0.1000E-14 -0.3079E-18
     -3.371 -0.6656E-11 -0.7832E-14 -0.1112E-11 -0.1307E-14
     -3.204 -0.1874E-08 -0.8278E-11 -0.3139E-09 -0.1383E-11
     -3.037 -0.1371E-06 -0.2219E-08 -0.2319E-07 -0.3717E-09
     -2.871 -0.2534E-05 -0.1546E-06 -0.4460E-06 -0.2616E-07
     -2.704 -0.6097E-05 -0.2709E-05 -0.1463E-05 -0.4781E-06
     -2.537  0.6481E-04 -0.5632E-05  0.9352E-05 -0.1418E-05
     -2.370  0.2306E-03  0.6954E-04  0.4784E-04  0.1019E-04
     -2.203  0.3649E-03  0.2339E-03  0.1087E-03  0.4922E-04
     -2.036  0.5350E-03  0.3656E-03  0.1980E-03  0.1102E-03
     -1.869  0.4671E-03  0.5329E-03  0.2759E-03  0.1991E-03
     -1.703  0.7039E-03  0.4566E-03  0.3934E-03  0.2753E-03
     -1.536  0.7568E-03  0.6937E-03  0.5197E-03  0.3911E-03
     -1.369  0.8087E-03  0.7389E-03  0.6546E-03  0.5144E-03
     -1.202  0.7292E-03  0.7906E-03  0.7763E-03  0.6463E-03
     -1.035  0.1047E-02  0.7057E-03  0.9510E-03  0.7641E-03
     -0.868  0.1232E-02  0.9539E-03  0.1157E-02  0.9232E-03
     -0.701  0.1011E-02  0.1186E-02  0.1325E-02  0.1121E-02
     -0.535  0.1004E-02  0.1044E-02  0.1493E-02  0.1295E-02
     -0.368  0.1518E-02  0.8034E-03  0.1746E-02  0.1429E-02
     -0.201  0.1634E-02  0.1322E-02  0.2019E-02  0.1650E-02
     -0.034  0.1535E-02  0.1500E-02  0.2275E-02  0.1900E-02
      0.133  0.1585E-02  0.1420E-02  0.2539E-02  0.2137E-02
      0.300  0.1933E-02  0.1229E-02  0.2862E-02  0.2342E-02
      0.467  0.2447E-02  0.1589E-02  0.3270E-02  0.2608E-02
      0.634  0.2730E-02  0.1552E-02  0.3726E-02  0.2867E-02
      0.800  0.3164E-02  0.1939E-02  0.4254E-02  0.3190E-02
      0.967  0.5873E-02  0.2181E-02  0.5234E-02  0.3554E-02
      1.134  0.1056E-01  0.1972E-02  0.6996E-02  0.3883E-02
      1.301  0.1158E-01  0.1760E-02  0.8929E-02  0.4177E-02
      1.468  0.1413E-01  0.2711E-02  0.1129E-01  0.4629E-02
      1.635  0.1813E-01  0.3011E-02  0.1431E-01  0.5132E-02
      1.802  0.1805E-01  0.3049E-02  0.1732E-01  0.5640E-02
      1.968  0.1373E-01  0.3654E-02  0.1961E-01  0.6250E-02
      2.135  0.9753E-02  0.4499E-02  0.2124E-01  0.7001E-02
      2.302  0.8621E-02  0.6274E-02  0.2268E-01  0.8048E-02
      2.469  0.1903E-01  0.7829E-02  0.2586E-01  0.9354E-02
      2.636  0.3039E-01  0.6628E-02  0.3093E-01  0.1046E-01
      2.803  0.2405E-01  0.7316E-02  0.3494E-01  0.1168E-01
      2.970  0.2020E-01  0.9203E-02  0.3831E-01  0.1322E-01
      3.137  0.2251E-01  0.1155E-01  0.4207E-01  0.1514E-01
      3.303  0.2839E-01  0.1302E-01  0.4681E-01  0.1732E-01
      3.470  0.2711E-01  0.1125E-01  0.5133E-01  0.1919E-01
      3.637  0.1639E-01  0.8290E-02  0.5406E-01  0.2058E-01
      3.804  0.9390E-02  0.5516E-02  0.5563E-01  0.2150E-01
      3.971  0.8445E-02  0.9622E-02  0.5704E-01  0.2310E-01
      4.138  0.9095E-02  0.2067E-01  0.5856E-01  0.2655E-01
      4.305  0.1209E-01  0.2645E-01  0.6057E-01  0.3097E-01
      4.471  0.1903E-01  0.2462E-01  0.6375E-01  0.3507E-01
      4.638  0.3127E-01  0.2283E-01  0.6897E-01  0.3888E-01
      4.805  0.4360E-01  0.2259E-01  0.7624E-01  0.4265E-01
      4.972  0.5052E-01  0.2428E-01  0.8467E-01  0.4670E-01
      5.139  0.3503E-01  0.2348E-01  0.9052E-01  0.5062E-01
      5.306  0.1854E-01  0.1918E-01  0.9361E-01  0.5382E-01
      5.473  0.1664E-01  0.1324E-01  0.9639E-01  0.5603E-01
      5.640  0.1393E-01  0.6571E-02  0.9871E-01  0.5713E-01
      5.806  0.1509E-01  0.5456E-02  0.1012E+00  0.5804E-01
      5.973  0.1545E-01  0.4751E-02  0.1038E+00  0.5883E-01
      6.140  0.9527E-02  0.5447E-02  0.1054E+00  0.5974E-01
      6.307  0.4382E-02  0.5924E-02  0.1061E+00  0.6073E-01
      6.474  0.2224E-02  0.8667E-02  0.1065E+00  0.6218E-01
      6.641  0.2774E-02  0.1191E-01  0.1070E+00  0.6416E-01
      6.808  0.3553E-02  0.1498E-01  0.1076E+00  0.6666E-01
      6.974  0.3208E-02  0.1779E-01  0.1081E+00  0.6963E-01
      7.141  0.2381E-02  0.2261E-01  0.1085E+00  0.7340E-01
      7.308  0.3110E-02  0.2683E-01  0.1090E+00  0.7788E-01
      7.475  0.3397E-02  0.2535E-01  0.1096E+00  0.8211E-01
      7.642  0.2026E-02  0.3211E-01  0.1099E+00  0.8747E-01
      7.809  0.2216E-02  0.4811E-01  0.1103E+00  0.9550E-01
      7.976  0.3173E-02  0.3281E-01  0.1108E+00  0.1010E+00
      8.142  0.3305E-02  0.1664E-01  0.1114E+00  0.1037E+00
      8.309  0.2826E-02  0.1138E-01  0.1118E+00  0.1056E+00
      8.476  0.2680E-02  0.6109E-02  0.1123E+00  0.1067E+00
      8.643  0.2054E-02  0.4162E-02  0.1126E+00  0.1074E+00
      8.810  0.1893E-02  0.4621E-02  0.1129E+00  0.1081E+00
      8.977  0.2588E-02  0.4405E-02  0.1134E+00  0.1089E+00
      9.144  0.2593E-02  0.3749E-02  0.1138E+00  0.1095E+00
      9.311  0.2368E-02  0.2634E-02  0.1142E+00  0.1099E+00
      9.477  0.2503E-02  0.3329E-02  0.1146E+00  0.1105E+00
      9.644  0.2648E-02  0.4873E-02  0.1151E+00  0.1113E+00
      9.811  0.1948E-02  0.3651E-02  0.1154E+00  0.1119E+00
      9.978  0.1665E-02  0.2226E-02  0.1157E+00  0.1123E+00
     10.145  0.1818E-02  0.2279E-02  0.1160E+00  0.1127E+00
     10.312  0.2120E-02  0.3441E-02  0.1163E+00  0.1132E+00
     10.479  0.1272E-02  0.3472E-02  0.1165E+00  0.1138E+00
     10.645  0.1348E-02  0.2403E-02  0.1168E+00  0.1142E+00
     10.812  0.2502E-02  0.2411E-02  0.1172E+00  0.1146E+00
     10.979  0.2088E-02  0.3195E-02  0.1175E+00  0.1152E+00
     11.146  0.1816E-02  0.2231E-02  0.1178E+00  0.1155E+00
     11.313  0.1138E-02  0.1782E-02  0.1180E+00  0.1158E+00
     11.480  0.1208E-02  0.2383E-02  0.1182E+00  0.1162E+00
     11.647  0.1111E-02  0.1905E-02  0.1184E+00  0.1165E+00
     11.814  0.4179E-03  0.1771E-02  0.1185E+00  0.1168E+00
     11.980  0.1039E-02  0.2535E-02  0.1186E+00  0.1173E+00
     12.147  0.1412E-02  0.2150E-02  0.1189E+00  0.1176E+00
     12.314  0.9956E-03  0.1694E-02  0.1190E+00  0.1179E+00
     12.481  0.9739E-03  0.1162E-02  0.1192E+00  0.1181E+00
     12.648  0.8598E-03  0.1139E-02  0.1194E+00  0.1183E+00
     12.815  0.9010E-03  0.1022E-02  0.1195E+00  0.1185E+00
     12.982  0.5675E-03  0.1173E-02  0.1196E+00  0.1186E+00
     13.148  0.3410E-03  0.1822E-02  0.1197E+00  0.1190E+00
     13.315  0.1615E-02  0.1401E-02  0.1199E+00  0.1192E+00
     13.482  0.3797E-02  0.5604E-03  0.1206E+00  0.1193E+00
     13.649  0.5273E-02  0.5883E-03  0.1214E+00  0.1194E+00
     13.816  0.5517E-02  0.8861E-03  0.1224E+00  0.1195E+00
     13.983  0.4902E-02  0.4984E-03  0.1232E+00  0.1196E+00
     14.150  0.3843E-02  0.2264E-03  0.1238E+00  0.1196E+00
     14.317  0.3638E-02  0.1510E-03  0.1244E+00  0.1197E+00
     14.483  0.3738E-02  0.1434E-02  0.1251E+00  0.1199E+00
     14.650  0.3043E-02  0.4256E-02  0.1256E+00  0.1206E+00
     14.817  0.3081E-02  0.6072E-02  0.1261E+00  0.1216E+00
     14.984  0.3007E-02  0.7073E-02  0.1266E+00  0.1228E+00
     15.151  0.2766E-02  0.5865E-02  0.1270E+00  0.1238E+00
     15.318  0.3669E-02  0.3094E-02  0.1276E+00  0.1243E+00
     15.485  0.3429E-02  0.3316E-02  0.1282E+00  0.1249E+00
     15.651  0.2986E-02  0.4152E-02  0.1287E+00  0.1256E+00
     15.818  0.4378E-02  0.4401E-02  0.1294E+00  0.1263E+00
     15.985  0.4279E-02  0.4179E-02  0.1302E+00  0.1270E+00
     16.152  0.3799E-02  0.2634E-02  0.1308E+00  0.1274E+00
     16.319  0.3373E-02  0.3393E-02  0.1314E+00  0.1280E+00
     16.486  0.3634E-02  0.3795E-02  0.1320E+00  0.1286E+00
     16.653  0.4054E-02  0.4852E-02  0.1326E+00  0.1294E+00
     16.819  0.3734E-02  0.4680E-02  0.1333E+00  0.1302E+00
     16.986  0.3609E-02  0.3898E-02  0.1339E+00  0.1309E+00
     17.153  0.3548E-02  0.4437E-02  0.1345E+00  0.1316E+00
     17.320  0.5010E-02  0.4156E-02  0.1353E+00  0.1323E+00
     17.487  0.4417E-02  0.2746E-02  0.1360E+00  0.1328E+00
     17.654  0.2380E-02  0.3635E-02  0.1364E+00  0.1334E+00
     17.821  0.2453E-02  0.4347E-02  0.1368E+00  0.1341E+00
     17.988  0.3723E-02  0.4181E-02  0.1375E+00  0.1348E+00
     18.154  0.3344E-02  0.5365E-02  0.1380E+00  0.1357E+00
     18.321  0.4062E-02  0.4463E-02  0.1387E+00  0.1364E+00
     18.488  0.5775E-02  0.2170E-02  0.1397E+00  0.1368E+00
     18.655  0.3879E-02  0.2317E-02  0.1403E+00  0.1372E+00
     18.822  0.2561E-02  0.3317E-02  0.1407E+00  0.1377E+00
     18.989  0.3567E-02  0.4810E-02  0.1413E+00  0.1385E+00
     19.156  0.2104E-02  0.5055E-02  0.1417E+00  0.1394E+00
     19.322  0.1406E-02  0.4813E-02  0.1419E+00  0.1402E+00
     19.489  0.4412E-02  0.3578E-02  0.1427E+00  0.1408E+00
     19.656  0.5586E-02  0.2876E-02  0.1436E+00  0.1413E+00
     19.823  0.4537E-02  0.2377E-02  0.1443E+00  0.1417E+00
     19.990  0.4557E-02  0.2173E-02  0.1451E+00  0.1420E+00
     20.157  0.2351E-02  0.4222E-02  0.1455E+00  0.1427E+00
     20.324  0.1540E-02  0.4884E-02  0.1458E+00  0.1435E+00
     20.491  0.2619E-02  0.5193E-02  0.1462E+00  0.1444E+00
     20.657  0.3310E-02  0.4617E-02  0.1467E+00  0.1452E+00
     20.824  0.3071E-02  0.1888E-02  0.1473E+00  0.1455E+00
     20.991  0.3601E-02  0.2589E-02  0.1479E+00  0.1459E+00
     21.158  0.5226E-02  0.3063E-02  0.1487E+00  0.1464E+00
     21.325  0.4783E-02  0.2761E-02  0.1495E+00  0.1469E+00
     21.492  0.3402E-02  0.3353E-02  0.1501E+00  0.1475E+00
     21.659  0.1860E-02  0.4459E-02  0.1504E+00  0.1482E+00
     21.825  0.1477E-02  0.5493E-02  0.1506E+00  0.1491E+00
     21.992  0.3484E-02  0.4095E-02  0.1512E+00  0.1498E+00
     22.159  0.3995E-02  0.2855E-02  0.1519E+00  0.1503E+00
     22.326  0.3997E-02  0.1321E-02  0.1526E+00  0.1505E+00
     22.493  0.4997E-02  0.2567E-02  0.1534E+00  0.1509E+00
     22.660  0.5025E-02  0.3850E-02  0.1542E+00  0.1516E+00
     22.827  0.4881E-02  0.3766E-02  0.1550E+00  0.1522E+00
     22.994  0.4336E-02  0.4194E-02  0.1558E+00  0.1529E+00
     23.160  0.3148E-02  0.5284E-02  0.1563E+00  0.1538E+00
     23.327  0.2997E-02  0.5449E-02  0.1568E+00  0.1547E+00
     23.494  0.4342E-02  0.4251E-02  0.1575E+00  0.1554E+00
     23.661  0.5718E-02  0.3710E-02  0.1585E+00  0.1560E+00
     23.828  0.5026E-02  0.4393E-02  0.1593E+00  0.1567E+00
     23.995  0.5086E-02  0.4325E-02  0.1602E+00  0.1575E+00
     24.162  0.6986E-02  0.4878E-02  0.1613E+00  0.1583E+00
     24.328  0.5421E-02  0.6636E-02  0.1622E+00  0.1594E+00
     24.495  0.4012E-02  0.7090E-02  0.1629E+00  0.1606E+00
     24.662  0.3939E-02  0.5821E-02  0.1636E+00  0.1615E+00
     24.829  0.4201E-02  0.4261E-02  0.1643E+00  0.1623E+00
     24.996  0.4162E-02  0.4394E-02  0.1650E+00  0.1630E+00
     25.163  0.5419E-02  0.4507E-02  0.1659E+00  0.1637E+00
     25.330  0.6028E-02  0.3732E-02  0.1669E+00  0.1644E+00
     25.496  0.6046E-02  0.5168E-02  0.1679E+00  0.1652E+00
     25.663  0.6119E-02  0.5722E-02  0.1689E+00  0.1662E+00
     25.830  0.5622E-02  0.5406E-02  0.1698E+00  0.1671E+00
     25.997  0.3737E-02  0.7076E-02  0.1705E+00  0.1683E+00
     26.164  0.3053E-02  0.6620E-02  0.1710E+00  0.1694E+00
     26.331  0.4501E-02  0.4004E-02  0.1717E+00  0.1700E+00
     26.498  0.6129E-02  0.3266E-02  0.1727E+00  0.1706E+00
     26.665  0.6134E-02  0.4206E-02  0.1738E+00  0.1713E+00
     26.831  0.5748E-02  0.5250E-02  0.1747E+00  0.1722E+00
     26.998  0.4332E-02  0.5876E-02  0.1754E+00  0.1731E+00
     27.165  0.4154E-02  0.5949E-02  0.1761E+00  0.1741E+00
     27.332  0.3262E-02  0.5820E-02  0.1767E+00  0.1751E+00
     27.499  0.2855E-02  0.4709E-02  0.1772E+00  0.1759E+00
     27.666  0.3566E-02  0.2802E-02  0.1778E+00  0.1764E+00
     27.833  0.3320E-02  0.3372E-02  0.1783E+00  0.1769E+00
     27.999  0.3927E-02  0.4091E-02  0.1790E+00  0.1776E+00
     28.166  0.4282E-02  0.2546E-02  0.1797E+00  0.1780E+00
     28.333  0.3982E-02  0.2495E-02  0.1803E+00  0.1784E+00
     28.500  0.3534E-02  0.4611E-02  0.1809E+00  0.1792E+00
     28.667  0.2763E-02  0.5591E-02  0.1814E+00  0.1801E+00
     28.834  0.2887E-02  0.3121E-02  0.1819E+00  0.1807E+00
     29.001  0.2099E-02  0.2336E-02  0.1822E+00  0.1811E+00
     29.168  0.2183E-02  0.3269E-02  0.1826E+00  0.1816E+00
     29.334  0.2260E-02  0.3177E-02  0.1830E+00  0.1821E+00
     29.501  0.3278E-02  0.2307E-02  0.1835E+00  0.1825E+00
     29.668  0.3948E-02  0.2361E-02  0.1842E+00  0.1829E+00
     29.835  0.3178E-02  0.2440E-02  0.1847E+00  0.1833E+00
     30.002  0.3136E-02  0.3783E-02  0.1852E+00  0.1839E+00
     30.169  0.4100E-02  0.4213E-02  0.1859E+00  0.1846E+00
     30.336  0.4572E-02  0.2771E-02  0.1867E+00  0.1851E+00
     30.502  0.5535E-02  0.3695E-02  0.1876E+00  0.1857E+00
     30.669  0.5777E-02  0.5580E-02  0.1886E+00  0.1867E+00
     30.836  0.6747E-02  0.5209E-02  0.1897E+00  0.1875E+00
     31.003  0.6229E-02  0.5928E-02  0.1907E+00  0.1885E+00
     31.170  0.5831E-02  0.6642E-02  0.1917E+00  0.1896E+00
     31.337  0.4853E-02  0.5662E-02  0.1925E+00  0.1906E+00
     31.504  0.4353E-02  0.6156E-02  0.1932E+00  0.1916E+00
     31.670  0.3731E-02  0.5422E-02  0.1939E+00  0.1925E+00
     31.837  0.3049E-02  0.3670E-02  0.1944E+00  0.1931E+00
     32.004  0.3978E-02  0.4782E-02  0.1950E+00  0.1939E+00
     32.171  0.3132E-02  0.4819E-02  0.1956E+00  0.1947E+00
     32.338  0.1649E-02  0.2837E-02  0.1958E+00  0.1952E+00
     32.505  0.1146E-02  0.2263E-02  0.1960E+00  0.1956E+00
     32.672  0.9824E-03  0.1500E-02  0.1962E+00  0.1958E+00
     32.839  0.1916E-02  0.1440E-02  0.1965E+00  0.1961E+00
     33.005  0.1360E-02  0.2451E-02  0.1967E+00  0.1965E+00
     33.172  0.7688E-03  0.1257E-02  0.1969E+00  0.1967E+00
     33.339  0.1165E-02  0.6839E-03  0.1971E+00  0.1968E+00
     33.506  0.1419E-02  0.1590E-02  0.1973E+00  0.1971E+00
     33.673  0.1389E-02  0.2046E-02  0.1975E+00  0.1974E+00
     33.840  0.7724E-03  0.1142E-02  0.1977E+00  0.1976E+00
     34.007  0.7491E-03  0.5646E-03  0.1978E+00  0.1977E+00
     34.173  0.8400E-03  0.7358E-03  0.1979E+00  0.1978E+00
     34.340  0.3214E-03  0.6786E-03  0.1980E+00  0.1979E+00
     34.507  0.6099E-04  0.3372E-03  0.1980E+00  0.1980E+00
     34.674  0.5425E-04  0.6230E-04  0.1980E+00  0.1980E+00
     34.841  0.7986E-03  0.4704E-03  0.1981E+00  0.1981E+00
     35.008  0.1015E-02  0.9772E-03  0.1983E+00  0.1982E+00
     35.175  0.2736E-03  0.5814E-03  0.1983E+00  0.1983E+00
     35.342  0.5605E-04  0.1800E-03  0.1983E+00  0.1984E+00
     35.508  0.9344E-03  0.8077E-03  0.1985E+00  0.1985E+00
     35.675  0.1120E-02  0.1109E-02  0.1987E+00  0.1987E+00
     35.842  0.7818E-03  0.8712E-03  0.1988E+00  0.1988E+00
     36.009  0.5117E-03  0.5470E-03  0.1989E+00  0.1989E+00
     36.176  0.1461E-03  0.1448E-04  0.1989E+00  0.1989E+00
     36.343  0.5073E-03  0.3445E-03  0.1990E+00  0.1990E+00
     36.510  0.2919E-03  0.5576E-03  0.1991E+00  0.1991E+00
     36.676  0.2417E-03  0.3143E-03  0.1991E+00  0.1991E+00
     36.843  0.9906E-04  0.4194E-04  0.1991E+00  0.1991E+00
     37.010  0.8785E-04  0.5829E-04  0.1991E+00  0.1991E+00
     37.177  0.5208E-03  0.5024E-03  0.1992E+00  0.1992E+00
     37.344  0.2798E-03  0.3165E-03  0.1993E+00  0.1993E+00
     37.511 -0.5097E-04 -0.4765E-04  0.1993E+00  0.1993E+00
     37.678  0.5915E-04  0.1516E-03  0.1993E+00  0.1993E+00
     37.845  0.8229E-03  0.8629E-03  0.1994E+00  0.1994E+00
     38.011  0.7973E-03  0.7118E-03  0.1995E+00  0.1995E+00
     38.178  0.2146E-03  0.2750E-03  0.1996E+00  0.1996E+00
     38.345  0.2437E-03  0.1692E-03  0.1996E+00  0.1996E+00
     38.512  0.1995E-03  0.1417E-03  0.1997E+00  0.1996E+00
     38.679  0.1105E-03  0.1331E-03  0.1997E+00  0.1997E+00
     38.846 -0.5941E-05 -0.1573E-05  0.1997E+00  0.1997E+00
     39.013 -0.1362E-04 -0.3806E-05  0.1997E+00  0.1997E+00
     39.179  0.1374E-03  0.1908E-03  0.1997E+00  0.1997E+00
     39.346  0.2637E-03  0.2293E-03  0.1997E+00  0.1997E+00
     39.513  0.4786E-04  0.6557E-05  0.1997E+00  0.1997E+00
     39.680 -0.2208E-04  0.6915E-04  0.1997E+00  0.1997E+00
     39.847  0.1293E-03  0.2718E-03  0.1998E+00  0.1998E+00
     40.014  0.2638E-03  0.9720E-04  0.1998E+00  0.1998E+00
     40.181  0.4438E-04 -0.7603E-05  0.1998E+00  0.1998E+00
     40.347  0.8185E-04  0.1894E-03  0.1998E+00  0.1998E+00
     40.514  0.2596E-03  0.2527E-03  0.1999E+00  0.1999E+00
     40.681  0.1589E-03  0.2610E-03  0.1999E+00  0.1999E+00
     40.848  0.2592E-03  0.1603E-03  0.1999E+00  0.2000E+00
     41.015  0.1093E-03 -0.4850E-05  0.2000E+00  0.2000E+00
     41.182 -0.1175E-04 -0.5577E-05  0.2000E+00  0.2000E+00
     41.349 -0.3174E-05 -0.2377E-06  0.2000E+00  0.2000E+00
     41.516 -0.9052E-07 -0.1983E-08  0.2000E+00  0.2000E+00
     41.682 -0.5325E-09 -0.3734E-11  0.2000E+00  0.2000E+00
     41.849 -0.7178E-12 -0.2487E-13  0.2000E+00  0.2000E+00
     42.016 -0.6927E-12 -0.3056E-10  0.2000E+00  0.2000E+00
     42.183 -0.4774E-09 -0.9385E-08  0.2000E+00  0.2000E+00
     42.350 -0.7518E-07 -0.6302E-06  0.2000E+00  0.2000E+00
     42.517 -0.2417E-05 -0.7079E-05  0.2000E+00  0.2000E+00
     42.684 -0.7197E-05  0.2155E-04  0.2000E+00  0.2000E+00
     42.850  0.8264E-04  0.1657E-03  0.2000E+00  0.2000E+00
     43.017  0.1791E-03  0.1115E-03  0.2000E+00  0.2000E+00
     43.184  0.4139E-04 -0.3076E-05  0.2000E+00  0.2000E+00
     43.351 -0.8228E-05 -0.3661E-05  0.2000E+00  0.2000E+00
     43.518 -0.1104E-05 -0.1545E-06  0.2000E+00  0.2000E+00
     43.685 -0.2168E-07 -0.1278E-08  0.2000E+00  0.2000E+00
     43.852 -0.9108E-10 -0.2388E-11  0.2000E+00  0.2000E+00
     44.019 -0.8861E-13 -0.1053E-14  0.2000E+00  0.2000E+00
     44.185 -0.2053E-16 -0.1262E-18  0.2000E+00  0.2000E+00
     44.352  0.0000E+00  0.0000E+00  0.2000E+00  0.2000E+00
     44.519  0.0000E+00  0.0000E+00  0.2000E+00  0.2000E+00
     44.686  0.0000E+00  0.0000E+00  0.2000E+00  0.2000E+00
     44.853  0.0000E+00  0.0000E+00  0.2000E+00  0.2000E+00
     45.020  0.0000E+00  0.0000E+00  0.2000E+00  0.2000E+00
     45.187  0.0000E+00  0.0000E+00  0.2000E+00  0.2000E+00
     45.18658729     -4.87300514  301      5.84025141      1.00000000
     -4.873  0.0000E+00  0.0000E+00  0.0000E+00  0.0000E+00  0.0000E+00  0.0000E+00  0.0000E+00  0.0000E+00  0.0000E+00  0.0000E+00  0.0000E+00  0.0000E+00  0.0000E+00  0.0000E+00  0.0000E+00  0.0000E+00  0.0000E+00  0.0000E+00
     -4.706  0.0000E+00  0.0000E+00  0.0000E+00  0.0000E+00  0.0000E+00  0.0000E+00  0.0000E+00  0.0000E+00  0.0000E+00  0.0000E+00  0.0000E+00  0.0000E+00  0.0000E+00  0.0000E+00  0.0000E+00  0.0000E+00  0.0000E+00  0.0000E+00
     -4.539  0.0000E+00  0.0000E+00  0.0000E+00  0.0000E+00  0.0000E+00  0.0000E+00  0.0000E+00  0.0000E+00  0.0000E+00  0.0000E+00  0.0000E+00  0.0000E+00  0.0000E+00  0.0000E+00  0.0000E+00  0.0000E+00  0.0000E+00  0.0000E+00
     -4.372  0.0000E+00  0.0000E+00  0.0000E+00  0.0000E+00  0.0000E+00  0.0000E+00  0.0000E+00  0.0000E+00  0.0000E+00  0.0000E+00  0.0000E+00  0.0000E+00  0.0000E+00  0.0000E+00  0.0000E+00  0.0000E+00  0.0000E+00  0.0000E+00
     -4.206 -0.1252E-30  0.0000E+00 -0.1128E-35  0.0000E+00 -0.1128E-35  0.0000E+00 -0.1128E-35  0.0000E+00 -0.1808E-43  0.0000E+00 -0.1808E-43  0.0000E+00 -0.1255E-37  0.0000E+00 -0.1808E-43  0.0000E+00 -0.1255E-37  0.0000E+00
     -4.039 -0.3764E-25 -0.1992E-30 -0.7383E-30 -0.1793E-35 -0.7383E-30 -0.1793E-35 -0.7383E-30 -0.1793E-35 -0.3339E-34 -0.1146E-42 -0.3339E-34 -0.1146E-42 -0.8203E-32 -0.1400E-37 -0.3339E-34 -0.1146E-42 -0.8203E-32 -0.1400E-37
     -3.872 -0.2786E-20 -0.5702E-25 -0.1187E-24 -0.1120E-29 -0.1187E-24 -0.1120E-29 -0.1187E-24 -0.1120E-29 -0.1160E-28 -0.3558E-34 -0.1160E-28 -0.3558E-34 -0.1317E-26 -0.8736E-32 -0.1160E-28 -0.3558E-34 -0.1317E-26 -0.8736E-32
     -3.705 -0.4924E-16 -0.4018E-20 -0.4691E-20 -0.1720E-24 -0.4691E-20 -0.1720E-24 -0.4691E-20 -0.1720E-24 -0.9899E-24 -0.1185E-28 -0.9899E-24 -0.1185E-28 -0.5185E-22 -0.1339E-26 -0.9899E-24 -0.1185E-28 -0.5185E-22 -0.1339E-26
     -3.538 -0.2195E-12 -0.6756E-16 -0.4390E-16 -0.6493E-20 -0.4390E-16 -0.6493E-20 -0.4390E-16 -0.6493E-20 -0.2007E-19 -0.9696E-24 -0.2007E-19 -0.9696E-24 -0.4815E-18 -0.5036E-22 -0.2007E-19 -0.9696E-24 -0.4815E-18 -0.5036E-22
     -3.371 -0.2436E-09 -0.2867E-12 -0.1036E-12 -0.5800E-16 -0.1036E-12 -0.5800E-16 -0.1036E-12 -0.5800E-16 -0.1014E-15 -0.1883E-19 -0.1014E-15 -0.1883E-19 -0.1117E-14 -0.4464E-18 -0.1014E-15 -0.1883E-19 -0.1117E-14 -0.4464E-18
     -3.204 -0.6850E-07 -0.3028E-09 -0.6007E-10 -0.1306E-12 -0.6007E-10 -0.1306E-12 -0.6007E-10 -0.1306E-12 -0.1241E-12 -0.9124E-16 -0.1241E-12 -0.9124E-16 -0.6256E-12 -0.9882E-15 -0.1241E-12 -0.9124E-16 -0.6256E-12 -0.9882E-15
     -3.037 -0.4999E-05 -0.8106E-07 -0.8606E-08 -0.7230E-10 -0.8606E-08 -0.7230E-10 -0.8606E-08 -0.7230E-10 -0.3639E-10 -0.1070E-12 -0.3639E-10 -0.1070E-12 -0.8329E-10 -0.5276E-12 -0.3639E-10 -0.1070E-12 -0.8329E-10 -0.5276E-12
     -2.871 -0.9195E-04 -0.5632E-05 -0.2987E-06 -0.9882E-08 -0.2987E-06 -0.9882E-08 -0.2987E-06 -0.9882E-08 -0.2484E-08 -0.3005E-10 -0.2484E-08 -0.3005E-10 -0.2514E-08 -0.6685E-10 -0.2484E-08 -0.3005E-10 -0.2514E-08 -0.6685E-10
     -2.704 -0.2174E-03 -0.9822E-04 -0.2007E-05 -0.3265E-06 -0.2007E-05 -0.3265E-06 -0.2007E-05 -0.3265E-06 -0.3483E-07 -0.1961E-08 -0.3483E-07 -0.1961E-08 -0.1522E-07 -0.1909E-08 -0.3483E-07 -0.1961E-08 -0.1522E-07 -0.1909E-08
     -2.537  0.2361E-02 -0.2001E-03  0.4899E-05 -0.2044E-05  0.4899E-05 -0.2044E-05  0.4899E-05 -0.2044E-05 -0.2746E-07 -0.2601E-07 -0.2746E-07 -0.2601E-07 -0.4332E-07 -0.1065E-07 -0.2746E-07 -0.2601E-07 -0.4332E-07 -0.1065E-07
     -2.370  0.8328E-02  0.2530E-02  0.4141E-04  0.5662E-05  0.4141E-04  0.5662E-05  0.4141E-04  0.5662E-05  0.4262E-06 -0.1270E-07  0.4262E-06 -0.1270E-07  0.7780E-07 -0.2773E-07  0.4262E-06 -0.1270E-07  0.7780E-07 -0.2773E-07
     -2.203  0.1294E-01  0.8438E-02  0.1426E-03  0.4299E-04  0.1426E-03  0.4299E-04  0.1426E-03  0.4299E-04  0.2907E-05  0.3314E-06  0.2907E-05  0.3314E-06  0.3423E-05  0.7353E-07  0.2907E-05  0.3314E-06  0.3423E-05  0.7353E-07
     -2.036  0.1870E-01  0.1294E-01  0.2941E-03  0.1458E-03  0.2941E-03  0.1458E-03  0.2941E-03  0.1458E-03  0.9863E-05  0.2123E-05  0.9863E-05  0.2123E-05  0.6922E-05  0.2432E-05  0.9863E-05  0.2123E-05  0.6922E-05  0.2432E-05
     -1.869  0.1604E-01  0.1861E-01  0.3429E-03  0.2959E-03  0.3429E-03  0.2959E-03  0.3429E-03  0.2959E-03  0.1973E-04  0.6976E-05  0.1973E-04  0.6976E-05  0.9480E-05  0.4765E-05  0.1973E-04  0.6976E-05  0.9480E-05  0.4765E-05
     -1.703  0.2363E-01  0.1567E-01  0.6789E-03  0.3384E-03  0.6789E-03  0.3384E-03  0.6789E-03  0.3384E-03  0.3784E-04  0.1350E-04  0.3784E-04  0.1350E-04  0.4092E-04  0.6108E-05  0.3784E-04  0.1350E-04  0.4092E-04  0.6108E-05
     -1.536  0.2502E-01  0.2328E-01  0.8350E-03  0.6748E-03  0.8350E-03  0.6748E-03  0.8350E-03  0.6748E-03  0.6021E-04  0.2580E-04  0.6021E-04  0.2580E-04  0.5903E-04  0.2659E-04  0.6021E-04  0.2580E-04  0.5903E-04  0.2659E-04
     -1.369  0.2614E-01  0.2446E-01  0.1045E-02  0.8192E-03  0.1045E-02  0.8192E-03  0.1045E-02  0.8192E-03  0.1276E-03  0.3826E-04  0.1276E-03  0.3826E-04  0.6142E-04  0.3803E-04  0.1276E-03  0.3826E-04  0.6142E-04  0.3803E-04
     -1.202  0.2313E-01  0.2559E-01  0.1059E-02  0.1037E-02  0.1059E-02  0.1037E-02  0.1059E-02  0.1037E-02  0.1231E-03  0.8279E-04  0.1231E-03  0.8279E-04  0.9796E-04  0.3824E-04  0.1231E-03  0.8279E-04  0.9796E-04  0.3824E-04
     -1.035  0.3220E-01  0.2249E-01  0.1759E-02  0.1025E-02  0.1759E-02  0.1025E-02  0.1759E-02  0.1025E-02  0.2229E-03  0.7979E-04  0.2229E-03  0.7979E-04  0.2503E-03  0.5448E-04  0.2229E-03  0.7979E-04  0.2503E-03  0.5448E-04
     -0.868  0.3716E-01  0.2952E-01  0.2203E-02  0.1625E-02  0.2203E-02  0.1625E-02  0.2203E-02  0.1625E-02  0.3776E-03  0.1260E-03  0.3776E-03  0.1260E-03  0.3290E-03  0.1408E-03  0.3776E-03  0.1260E-03  0.3290E-03  0.1408E-03
     -0.701  0.2987E-01  0.3612E-01  0.1941E-02  0.2156E-02  0.1941E-02  0.2156E-02  0.1941E-02  0.2156E-02  0.4229E-03  0.2216E-03  0.4229E-03  0.2216E-03  0.2494E-03  0.1916E-03  0.4229E-03  0.2216E-03  0.2494E-03  0.1916E-03
     -0.535  0.2847E-01  0.3117E-01  0.2110E-02  0.2048E-02  0.2110E-02  0.2048E-02  0.2110E-02  0.2048E-02  0.5962E-03  0.2628E-03  0.5962E-03  0.2628E-03  0.3853E-03  0.1634E-03  0.5962E-03  0.2628E-03  0.3853E-03  0.1634E-03
     -0.368  0.4184E-01  0.2337E-01  0.3416E-02  0.1714E-02  0.3416E-02  0.1714E-02  0.3416E-02  0.1714E-02  0.8714E-03  0.2821E-03  0.8714E-03  0.2821E-03  0.9425E-03  0.1358E-03  0.8714E-03  0.2821E-03  0.9425E-03  0.1358E-03
     -0.201  0.4366E-01  0.3730E-01  0.3901E-02  0.3068E-02  0.3901E-02  0.3068E-02  0.3901E-02  0.3068E-02  0.1128E-02  0.4797E-03  0.1128E-02  0.4797E-03  0.1148E-02  0.4373E-03  0.1128E-02  0.4797E-03  0.1148E-02  0.4373E-03
     -0.034  0.3939E-01  0.4148E-01  0.3697E-02  0.3690E-02  0.3697E-02  0.3690E-02  0.3697E-02  0.3690E-02  0.1606E-02  0.5663E-03  0.1606E-02  0.5663E-03  0.1239E-02  0.5846E-03  0.1606E-02  0.5663E-03  0.1239E-02  0.5846E-03
      0.133  0.3876E-01  0.3829E-01  0.3927E-02  0.3669E-02  0.3927E-02  0.3669E-02  0.3927E-02  0.3669E-02  0.2229E-02  0.6928E-03  0.2229E-02  0.6928E-03  0.1409E-02  0.5987E-03  0.2229E-02  0.6928E-03  0.1409E-02  0.5987E-03
      0.300  0.4498E-01  0.3200E-01  0.5066E-02  0.3278E-02  0.5066E-02  0.3278E-02  0.5066E-02  0.3278E-02  0.2768E-02  0.9085E-03  0.2768E-02  0.9085E-03  0.2513E-02  0.5670E-03  0.2768E-02  0.9085E-03  0.2513E-02  0.5670E-03
      0.467  0.5340E-01  0.4023E-01  0.6468E-02  0.4439E-02  0.6468E-02  0.4439E-02  0.6468E-02  0.4439E-02  0.4005E-02  0.1363E-02  0.4005E-02  0.1363E-02  0.4493E-02  0.7643E-03  0.4005E-02  0.1363E-02  0.4493E-02  0.7643E-03
      0.634  0.5627E-01  0.3807E-01  0.7155E-02  0.4635E-02  0.7155E-02  0.4635E-02  0.7155E-02  0.4635E-02  0.6013E-02  0.1148E-02  0.6013E-02  0.1148E-02  0.4929E-02  0.1178E-02  0.6013E-02  0.1148E-02  0.4929E-02  0.1178E-02
      0.800  0.5716E-01  0.4544E-01  0.7014E-02  0.5930E-02  0.7014E-02  0.5930E-02  0.7014E-02  0.5930E-02  0.1100E-01  0.1795E-02  0.1100E-01  0.1795E-02  0.7154E-02  0.1950E-02  0.1100E-01  0.1795E-02  0.7154E-02  0.1950E-02
      0.967  0.7442E-01  0.4964E-01  0.8761E-02  0.6748E-02  0.8761E-02  0.6748E-02  0.8761E-02  0.6748E-02  0.2886E-01  0.2650E-02  0.2886E-01  0.2650E-02  0.2804E-01  0.2056E-02  0.2886E-01  0.2650E-02  0.2804E-01  0.2056E-02
      1.134  0.1049E+00  0.4324E-01  0.1301E-01  0.6183E-02  0.1301E-01  0.6183E-02  0.1301E-01  0.6183E-02  0.5188E-01  0.2914E-02  0.5188E-01  0.2914E-02  0.7280E-01  0.1947E-02  0.5188E-01  0.2914E-02  0.7280E-01  0.1947E-02
      1.301  0.8516E-01  0.3630E-01  0.1157E-01  0.5400E-02  0.1157E-01  0.5400E-02  0.1157E-01  0.5400E-02  0.5526E-01  0.3332E-02  0.5526E-01  0.3332E-02  0.1052E+00  0.2259E-02  0.5526E-01  0.3332E-02  0.1052E+00  0.2259E-02
      1.468  0.8139E-01  0.5311E-01  0.1539E-01  0.8743E-02  0.1539E-01  0.8743E-02  0.1539E-01  0.8743E-02  0.6054E-01  0.5154E-02  0.6054E-01  0.5154E-02  0.1498E+00  0.4304E-02  0.6054E-01  0.5154E-02  0.1498E+00  0.4304E-02
      1.635  0.7965E-01  0.5603E-01  0.2060E-01  0.9745E-02  0.2060E-01  0.9745E-02  0.2060E-01  0.9745E-02  0.6692E-01  0.6057E-02  0.6692E-01  0.6057E-02  0.2216E+00  0.5976E-02  0.6692E-01  0.6057E-02  0.2216E+00  0.5976E-02
      1.802  0.6235E-01  0.5264E-01  0.2094E-01  0.9268E-02  0.2094E-01  0.9268E-02  0.2094E-01  0.9268E-02  0.6956E-01  0.8019E-02  0.6956E-01  0.8019E-02  0.2265E+00  0.6888E-02  0.6956E-01  0.8019E-02  0.2265E+00  0.6888E-02
      1.968  0.3991E-01  0.5808E-01  0.1447E-01  0.1028E-01  0.1447E-01  0.1028E-01  0.1447E-01  0.1028E-01  0.7354E-01  0.1271E-01  0.7354E-01  0.1271E-01  0.1510E+00  0.8390E-02  0.7354E-01  0.1271E-01  0.1510E+00  0.8390E-02
      2.135  0.1919E-01  0.6189E-01  0.9226E-02  0.1008E-01  0.9226E-02  0.1008E-01  0.9226E-02  0.1008E-01  0.6213E-01  0.2001E-01  0.6213E-01  0.2001E-01  0.1013E+00  0.1448E-01  0.6213E-01  0.2001E-01  0.1013E+00  0.1448E-01
      2.302  0.9929E-02  0.7386E-01  0.8873E-02  0.1251E-01  0.8873E-02  0.1251E-01  0.8873E-02  0.1251E-01  0.5474E-01  0.3109E-01  0.5474E-01  0.3109E-01  0.9323E-01  0.2585E-01  0.5474E-01  0.3109E-01  0.9323E-01  0.2585E-01
      2.469  0.2975E-02  0.8535E-01  0.1591E-01  0.1521E-01  0.1591E-01  0.1521E-01  0.1591E-01  0.1521E-01  0.1962E+00  0.4119E-01  0.1962E+00  0.4119E-01  0.1192E+00  0.3368E-01  0.1962E+00  0.4119E-01  0.1192E+00  0.3368E-01
      2.636  0.3299E-02  0.6452E-01  0.2220E-01  0.1182E-01  0.2220E-01  0.1182E-01  0.2220E-01  0.1182E-01  0.3404E+00  0.3918E-01  0.3404E+00  0.3918E-01  0.1602E+00  0.2907E-01  0.3404E+00  0.3918E-01  0.1602E+00  0.2907E-01
      2.803  0.5919E-02  0.6043E-01  0.1622E-01  0.1385E-01  0.1622E-01  0.1385E-01  0.1622E-01  0.1385E-01  0.2695E+00  0.4126E-01  0.2695E+00  0.4126E-01  0.1282E+00  0.3979E-01  0.2695E+00  0.4126E-01  0.1282E+00  0.3979E-01
      2.970  0.9215E-02  0.5857E-01  0.1779E-01  0.1644E-01  0.1779E-01  0.1644E-01  0.1779E-01  0.1644E-01  0.2233E+00  0.4259E-01  0.2233E+00  0.4259E-01  0.1028E+00  0.7488E-01  0.2233E+00  0.4259E-01  0.1028E+00  0.7488E-01
      3.137  0.1290E-01  0.5049E-01  0.2602E-01  0.1864E-01  0.2602E-01  0.1864E-01  0.2602E-01  0.1864E-01  0.2462E+00  0.4651E-01  0.2462E+00  0.4651E-01  0.1061E+00  0.1209E+00  0.2462E+00  0.4651E-01  0.1061E+00  0.1209E+00
      3.303  0.1891E-01  0.4226E-01  0.3424E-01  0.1956E-01  0.3424E-01  0.1956E-01  0.3424E-01  0.1956E-01  0.3112E+00  0.4863E-01  0.3112E+00  0.4863E-01  0.1304E+00  0.1527E+00  0.3112E+00  0.4863E-01  0.1304E+00  0.1527E+00
      3.470  0.1847E-01  0.2921E-01  0.3054E-01  0.1578E-01  0.3054E-01  0.1578E-01  0.3054E-01  0.1578E-01  0.2996E+00  0.5182E-01  0.2996E+00  0.5182E-01  0.1262E+00  0.1253E+00  0.2996E+00  0.5182E-01  0.1262E+00  0.1253E+00