    2    2  100    2
  0.1173411E+02  0.2863035E-09  0.2863035E-09  0.2863035E-09  0.5000000E-15
  1.000000000000000E-004
  CAR 
 unknown system                          
     16    120     20
 
  0.0000000E+00  0.0000000E+00  0.0000000E+00  0.2962963E-03
    1       -2.597569     -2.436542   1.000000   1.000000
    2        0.986712      2.801195   1.000000   1.000000
    3        0.986712      2.801336   1.000000   1.000000
    4        3.538509      5.438517   1.000000   1.007773
    5        3.538509      5.438650   1.000000   1.007790
    6        3.538509      5.438660   1.000000   1.007791
    7        4.751394      7.497774   1.000000  -0.000000
    8        4.751395      7.497937   1.000000  -0.000000
    9        5.963693      8.137444   0.072412  -0.000000
   10        5.963695      8.137568   0.072409  -0.000000
   11        5.963695      8.137580   0.072409  -0.000000
   12       15.795593     16.060224   0.000000   0.000000
   13       15.795593     16.060225   0.000000   0.000000
   14       15.795593     16.060227   0.000000   0.000000
   15       21.511562     22.562523   0.000000   0.000000
   16       21.511564     22.562536   0.000000   0.000000
   17       26.650340     27.750269   0.000000   0.000000
   18       30.887489     30.629244   0.000000   0.000000
   19       30.887489     30.629244   0.000000   0.000000
   20       30.887489     30.629244   0.000000   0.000000
 
  0.6666667E-01  0.1540744E-32  0.0000000E+00  0.1777778E-02
    1       -2.505039     -2.343621   1.000000   1.000000
    2        1.026196      2.834562   1.000000   1.000000
    3        1.027920      2.848137   1.000000   1.000000
    4        3.537731      5.434283   1.000000   1.007251
    5        3.537732      5.434427   1.000000   1.007268
    6        3.563856      5.466573   1.000000   1.011944
    7        4.710092      7.443936   1.000000  -0.000000
    8        4.767737      7.518566   1.000000  -0.000000
    9        5.885356      8.033982   0.314422  -0.000000
   10        5.885358      8.034117   0.314416  -0.000000
   11        5.936091      8.106541   0.141540  -0.000000
   12       15.124660     15.506049   0.000000   0.000000
   13       15.971064     16.261542   0.000000   0.000000
   14       15.971064     16.261543   0.000000   0.000000
   15       21.538190     22.580990   0.000000   0.000000
   16       22.018114     22.970723   0.000000   0.000000
   17       26.950410     28.035483   0.000000   0.000000
   18       30.253696     30.078039   0.000000   0.000000
   19       30.806475     30.588177   0.000000   0.000000
   20       30.806475     30.588178   0.000000   0.000000
 
  0.1333333E+00  0.0000000E+00  0.0000000E+00  0.1777778E-02
    1       -2.231115     -2.067936   1.000000   1.000000
    2        1.143268      2.922444   1.000000   1.000000
    3        1.143941      2.987514   1.000000   1.000000
    4        3.538042      5.424918   1.000000   1.006192
    5        3.538043      5.425060   1.000000   1.006207
    6        3.638939      5.549318   1.000000   1.029617
    7        4.587757      7.284584   1.000000  -0.000000
    8        4.815642      7.577918   1.000000  -0.000000
    9        5.669833      7.756544   1.002200  -0.000000
   10        5.669834      7.756676   1.002199  -0.000000
   11        5.854656      8.015042   0.439223  -0.000000
   12       13.651571     14.235968   0.000000   0.000000
   13       16.477069     16.831555   0.000000   0.000000
   14       16.477070     16.831558   0.000000   0.000000
   15       21.619662     22.637978   0.000000   0.000000
   16       22.899038     23.720351   0.000000   0.000000
   17       27.959070     28.938978   0.000000   0.000000
   18       28.987286     28.987647   0.000000   0.000000
   19       30.446646     30.372365   0.000000   0.000000
   20       30.446647     30.372368   0.000000   0.000000
 
  0.2000000E+00 -0.6162976E-32  0.0000000E+00  0.1777778E-02
    1       -1.787550     -1.619065   1.000000   1.000000
    2        1.311725      3.028328   1.000000   1.000000
    3        1.333693      3.215066   1.000000   1.000000
    4        3.546814      5.419769   1.000000   1.005663
    5        3.546814      5.419911   1.000000   1.005677
    6        3.760908      5.683842   1.000000   0.985310
    7        4.389144      7.026612   1.000000  -0.000000
    8        4.892790      7.377200   1.000000  -0.000000
    9        5.363531      7.377331   1.001917  -0.000000
   10        5.363532      7.668703   1.001917  -0.000000
   11        5.723308      7.867596   0.913038  -0.000000
   12       11.961665     12.758145   0.000000   0.000000
   13       17.264279     17.695021   0.000000   0.000000
   14       17.264279     17.695025   0.000000   0.000000
   15       21.760682     22.738221   0.000000   0.000000
   16       23.539017     24.280664   0.000000   0.000000
   17       27.661650     27.733196   0.000000   0.000000
   18       29.605000     29.770925   0.000000   0.000000
   19       29.605001     29.770930   0.000000   0.000000
   20       29.734860     30.672635   0.000000   0.000000
 
  0.2666667E+00  0.0000000E+00  0.0000000E+00  0.1777778E-02
    1       -1.196758     -1.014233   1.000000   1.000000
    2        1.490990      3.087502   1.000000   1.000000
    3        1.590436      3.523573   1.000000   1.000000
    4        3.574602      5.432123   1.000000   1.006995
    5        3.574603      5.432263   1.000000   1.007012
    6        3.925071      5.865147   1.000000   0.395558
    7        4.122352      6.681718   1.000000  -0.000000
    8        4.999662      6.965435   1.000000  -0.000000
    9        5.017649      6.965566   1.000000  -0.000000
   10        5.017650      7.671406   1.000000  -0.000000
   11        5.548324      7.781418   1.029408  -0.000000
   12       10.292097     11.336343  -0.000000   0.000000
   13       18.276446     18.776945   0.000000   0.000000
   14       18.276447     18.776950   0.000000   0.000000
   15       21.969050     22.889678   0.000000   0.000000
   16       23.959829     24.634324   0.000000   0.000000
   17       26.444486     26.634591   0.000000   0.000000
   18       28.330572     28.711721   0.000000   0.000000
   19       28.330572     28.711728   0.000000   0.000000
   20       30.136238     30.556643   0.000000   0.000000
 
  0.3333333E+00  0.0000000E+00  0.0000000E+00  0.1777778E-02
    1       -0.497756     -0.280896   1.000000   1.000000
    2        1.621507      3.009035   1.000000   1.000000
    3        1.903618      3.902664   1.000000   1.000000
    4        3.633479      5.477124   1.000000   1.013838
    5        3.633480      5.477262   1.000000   1.013863
    6        3.798954      6.086227   1.000000  -0.035454
    7        4.124958      6.266440   1.000000  -0.005119
    8        4.673989      6.570597   1.000000  -0.000002
    9        4.673990      6.570727   1.000000  -0.000002
   10        5.148266      7.436029   1.000006  -0.000000
   11        5.338055      7.909902   1.001102  -0.000000
   12        8.756658     10.120435  -0.000000  -0.000000
   13       19.464354     20.019745   0.000000   0.000000
   14       19.464354     20.019749   0.000000   0.000000
   15       22.255555     23.103582   0.000000   0.000000
   16       24.339023     24.941122   0.000000   0.000000
   17       25.380505     25.691043   0.000000   0.000000
   18       26.839390     27.351615   0.000000   0.000000
   19       26.839391     27.351621   0.000000   0.000000
   20       28.638383     29.047991   0.000000   0.000000
 
  0.4000000E+00  0.0000000E+00  0.0000000E+00  0.1777778E-02
    1        0.242654      0.538094   1.000000   1.000000
    2        1.621216      2.701524   1.000000   1.000000
    3        2.260561      4.338565   1.000000   1.000000
    4        3.433560      5.569145   1.000000   1.033266
    5        3.734773      5.569282   1.000000   1.033286
    6        3.734773      5.801270   1.000000   0.661519
    7        4.352539      6.222581   1.000000  -0.010524
    8        4.361226      6.222712   1.000000  -0.010503
    9        4.361227      6.338394   1.000000  -0.001207
   10        5.102315      7.172635   1.000001  -0.000000
   11        5.377206      8.061015   1.002540  -0.000000
   12        7.443856      9.207364  -0.000000  -0.000000
   13       20.788819     21.381566   0.000000   0.000000
   14       20.788820     21.381568   0.000000   0.000000
   15       22.633650     23.394322   0.000000   0.000000
   16       24.477349     24.908804   0.000000   0.000000
   17       24.802418     25.332664   0.000000   0.000000
   18       25.279408     25.859697   0.000000   0.000000
   19       25.279409     25.859702   0.000000   0.000000
   20       27.339278     27.748733   0.000000   0.000000
 
  0.4666667E+00 -0.1232595E-31  0.0000000E+00  0.1777778E-02
    1        0.917847      1.375974   1.000000   1.000000
    2        1.400053      2.134880   1.000000   1.000000
    3        2.646125      4.814172   1.000000   1.000000
    4        3.043211      5.309279   1.000000   1.000564
    5        3.887459      5.719986   1.000000   0.920608
    6        3.887459      5.720121   1.000000   0.920307
    7        4.096466      5.937179   1.000000   0.138455
    8        4.096467      5.937312   1.000000   0.138080
    9        4.598395      6.611357   1.000000  -0.000000
   10        4.852029      6.893559   1.000000  -0.000000
   11        5.769051      8.270243   0.781152  -0.000000
   12        6.436494      8.615929  -0.000104  -0.000000
   13       22.218379     22.829793   0.000000   0.000000
   14       22.218380     22.829793   0.000000   0.000000
   15       23.118897     23.779144   0.000000   0.000000
   16       23.725145     24.277346   0.000000   0.000000
   17       23.725146     24.334292   0.000000   0.000000
   18       23.728001     24.334294   0.000000   0.000000
   19       25.429368     25.898944   0.000000   0.000000
   20       26.267972     26.696336   0.000000   0.000000
 
  0.6666667E-01  0.6666667E-01  0.0000000E+00  0.3555556E-02
    1       -2.413222     -2.251313   1.000000   1.000000
    2        1.064898      2.876219   1.000000   1.000000
    3        1.069248      2.885955   1.000000   1.000000
    4        3.488230      5.378055   1.000000   1.002583
    5        3.534490      5.427559   1.000000   1.006478
    6        3.637656      5.546474   1.000000   1.029014
    7        4.701825      7.431689   1.000000  -0.000000
    8        4.755470      7.502447   1.000000  -0.000000
    9        5.745818      7.864775   0.854429  -0.000000
   10        5.807082      7.930937   0.638232  -0.000000
   11        5.975267      8.150480   0.049129  -0.000000
   12       15.142277     15.563674   0.000000   0.000000
   13       15.438692     15.830882   0.000000   0.000000
   14       16.141156     16.454016   0.000000   0.000000
   15       21.799180     22.788206   0.000000   0.000000
   16       22.333541     23.229944   0.000000   0.000000
   17       27.225501     28.299604   0.000000   0.000000
   18       29.691796     29.618183   0.000000   0.000000
   19       30.611088     30.412105   0.000000   0.000000
   20       30.756465     30.566786   0.000000   0.000000
 
  0.1333333E+00  0.6666667E-01  0.0000000E+00  0.7111111E-02
    1       -2.141516     -1.977476   1.000000   1.000000
    2        1.176535      2.968066   1.000000   1.000000
    3        1.188504      3.018876   1.000000   1.000000
    4        3.448768      5.327027   1.000000   1.000857
    5        3.527554      5.410972   1.000000   1.004843
    6        3.751725      5.670470   1.000000   1.001523
    7        4.601273      7.297702   1.000000  -0.000000
    8        4.794648      7.550526   1.000000  -0.000000
    9        5.492370      7.552596   1.016865  -0.000000
   10        5.592647      7.656507   1.035431  -0.000000
   11        5.946070      8.115792   0.114343  -0.000000
   12       13.769524     14.377772   0.000000   0.000000
   13       15.799552     16.268684   0.000000   0.000000
   14       16.633231     17.002449   0.000000   0.000000
   15       21.968020     22.917509   0.000000   0.000000
   16       23.235793     24.007498   0.000000   0.000000
   17       28.166211     28.481242   0.000000   0.000000
   18       28.416027     29.193460   0.000000   0.000000
   19       30.155722     30.078606   0.000000   0.000000
   20       30.475666     30.404923   0.000000   0.000000
 
  0.2000000E+00  0.6666667E-01  0.0000000E+00  0.7111111E-02
    1       -1.702152     -1.531958   1.000000   1.000000
    2        1.346131      3.074793   1.000000   1.000000
    3        1.372691      3.240001   1.000000   1.000000
    4        3.431358      5.295640   1.000000   1.000404
    5        3.523185      5.393628   1.000000   1.003507
    6        3.898355      5.830251   1.000000   0.542256
    7        4.423793      7.060079   1.000000  -0.000000
    8        4.873302      7.167898   1.000000  -0.000000
    9        5.173661      7.287205   1.000013  -0.000000
   10        5.290873      7.643821   1.000358  -0.000000
   11        5.845643      7.999809   0.477196  -0.000000
   12       12.076677     12.890319   0.000000   0.000000
   13       16.520991     17.068092   0.000000   0.000000
   14       17.402597     17.840653   0.000000   0.000000
   15       22.146619     23.049708   0.000000   0.000000
   16       23.966307     24.658418   0.000000   0.000000
   17       27.021966     27.215741   0.000000   0.000000
   18       29.268006     29.384149   0.000000   0.000000
   19       29.691566     29.854956   0.000000   0.000000
   20       29.872876     30.814733   0.000000   0.000000
 
  0.2666667E+00  0.6666667E-01  0.0000000E+00  0.7111111E-02
    1       -1.118292     -0.932304   1.000000   1.000000
    2        1.526850      3.132834   1.000000   1.000000
    3        1.620004      3.538567   1.000000   1.000000
    4        3.441741      5.291289   1.000000   1.000362
    5        3.523259      5.385831   1.000000   1.003015
    6        4.077452      6.026376   1.000000  -0.016349
    7        4.196356      6.745438   1.000000  -0.000000
    8        4.827959      6.762296   1.000000  -0.000000
    9        4.956217      6.898547   1.000000  -0.000000
   10        4.981849      7.760225   1.000000  -0.000000
   11        5.689288      7.821735   0.977568  -0.000000
   12       10.400377     11.452570  -0.000000   0.000000
   13       17.437869     18.054860   0.000000   0.000000
   14       18.396929     18.899538   0.000000   0.000000
   15       22.397110     23.237811   0.000000   0.000000
   16       24.473313     25.103395   0.000000   0.000000
   17       25.681571     26.005528   0.000000   0.000000
   18       28.058937     28.325590   0.000000   0.000000
   19       28.422221     28.806687   0.000000   0.000000
   20       31.199283     31.606088   0.000000   0.000000
 
  0.3333333E+00  0.6666667E-01  0.0000000E+00  0.7111111E-02
    1       -0.430042     -0.206411   1.000000   1.000000
    2        1.654757      3.050446   1.000000   1.000000
    3        1.922362      3.902441   1.000000   1.000000
    4        3.488397      5.324921   1.000000   1.000817
    5        3.494378      5.388833   1.000000   1.003197
    6        3.976131      6.255729   1.000000  -0.006176
    7        4.285881      6.376694   1.000000  -0.000494
    8        4.489616      6.384681   1.000000  -0.000406
    9        4.634869      6.546071   1.000000  -0.000004
   10        5.132322      7.597388   1.000003  -0.000000
   11        5.490614      7.892169   1.016500  -0.000000
   12        8.853396     10.211195  -0.000000  -0.000000
   13       18.489758     19.158779   0.000000   0.000000
   14       19.569174     20.123692   0.000000   0.000000
   15       22.741487     23.503609   0.000000   0.000000
   16       24.417329     24.872513   0.000000   0.000000
   17       24.942085     25.508629   0.000000   0.000000
   18       26.779900     27.131036   0.000000   0.000000
   19       26.922292     27.437669   0.000000   0.000000
   20       29.717880     30.141110   0.000000   0.000000
 
  0.4000000E+00  0.6666667E-01  0.0000000E+00  0.7111111E-02
    1        0.295151      0.602570   1.000000   1.000000
    2        1.648986      2.739734   1.000000   1.000000
    3        2.265262      4.314264   1.000000   1.000000
    4        3.316725      5.357558   1.000000   1.001690
    5        3.580325      5.408267   1.000000   1.004611
    6        3.904044      6.037942   1.000000  -0.023887
    7        4.183906      6.055510   1.000000  -0.031340
    8        4.359931      6.259200   1.000000  -0.005817
    9        4.517593      6.511793   1.000000  -0.000011
   10        5.262250      7.340988   1.000170  -0.000000
   11        5.368111      8.048024   1.002109  -0.000000
   12        7.520011      9.262680  -0.000000  -0.000000
   13       19.627234     20.324609   0.000000   0.000000
   14       20.881079     21.471661   0.000000   0.000000
   15       23.203624     23.776789   0.000000   0.000000
   16       23.203668     23.873771   0.000000   0.000000
   17       25.357183     25.938250   0.000000   0.000000
   18       25.508220     26.011564   0.000000   0.000000
   19       25.600868     26.016050   0.000000   0.000000
   20       28.369884     28.800057   0.000000   0.000000
 
  0.4666667E+00  0.6666667E-01  0.0000000E+00  0.7111111E-02
    1        0.953503      1.428553   1.000000   1.000000
    2        1.426021      2.176920   1.000000   1.000000
    3        2.631045      4.746587   1.000000   1.000000
    4        2.995991      5.140547   1.000000   1.000004
    5        3.725018      5.551454   1.000000   1.030060
    6        3.926518      5.760928   1.000000   0.808165
    7        3.988778      5.938383   1.000000   0.135076
    8        4.145708      6.046016   1.000000  -0.027866
    9        4.764338      6.785518   1.000000  -0.000000
   10        5.016248      7.066010   1.000000  -0.000000
   11        5.780074      8.267800   0.742304  -0.000000
   12        6.480909      8.636201  -0.000029  -0.000000
   13       20.809482     21.505424   0.000000   0.000000
   14       22.005907     22.662370   0.000000   0.000000
   15       22.301593     22.910810   0.000000   0.000000
   16       23.803290     24.385995   0.000000   0.000000
   17       23.813840     24.411258   0.000000   0.000000
   18       24.605789     25.087312   0.000000   0.000000
   19       26.250387     26.714662   0.000000   0.000000
   20       27.204421     27.644497   0.000000   0.000000
 
  0.1333333E+00  0.1333333E+00  0.0000000E+00  0.3555556E-02
    1       -1.877052     -1.709544   1.000000   1.000000
    2        1.272181      3.101209   1.000000   1.000000
    3        1.316600      3.102001   1.000000   1.000000
    4        3.347943      5.209565   1.000000   1.000039
    5        3.501554      5.374468   1.000000   1.002403
    6        3.924589      5.859363   1.000000   0.419541
    7        4.601960      7.190415   1.000000  -0.000000
    8        4.768951      7.283891   1.000000  -0.000000
    9        5.185703      7.395700   1.000019  -0.000000
   10        5.384168      7.518251   1.002918  -0.000000
   11        6.008044      8.187037   0.000645  -0.000000
   12       13.752340     14.424170   0.000000   0.000000
   13       14.726500     15.378551   0.000000   0.000000
   14       17.088627     17.496554   0.000000   0.000000
   15       22.310131     23.193731   0.000000   0.000000
   16       24.236084     24.889073   0.000000   0.000000
   17       27.101040     27.329002   0.000000   0.000000
   18       28.898808     29.593011   0.000000   0.000000
   19       29.637748     29.909264   0.000000   0.000000
   20       30.449598     30.415129   0.000000   0.000000
 
  0.2000000E+00  0.1333333E+00  0.0000000E+00  0.7111111E-02
    1       -1.451315     -1.274575   1.000000   1.000000
    2        1.417233      3.199037   1.000000   1.000000
    3        1.511208      3.313799   1.000000   1.000000
    4        3.275017      5.118982   1.000000   1.000002
    5        3.470588      5.327701   1.000000   1.000871
    6        4.121898      6.074957   1.000000  -0.035025
    7        4.503563      6.783061   1.000000  -0.000000
    8        4.823886      7.061102   1.000000  -0.000000
    9        4.836580      7.136093   1.000000  -0.000000
   10        5.099465      7.582500   1.000001  -0.000000
   11        5.988336      8.162892   0.026802  -0.000000
   12       12.336665     13.182529   0.000000   0.000000
   13       15.078902     15.811464   0.000000   0.000000
   14       17.809676     18.268112   0.000000   0.000000
   15       22.530632     23.359290   0.000000   0.000000
   16       25.234334     25.802979   0.000000   0.000000
   17       25.612442     25.970094   0.000000   0.000000
   18       28.824787     28.881267   0.000000   0.000000
   19       29.928430     30.077143   0.000000   0.000000
   20       30.353854     31.304995   0.000000   0.000000
 
  0.2666667E+00  0.1333333E+00  0.0000000E+00  0.7111111E-02
    1       -0.890330     -0.691391   1.000000   1.000000
    2        1.579070      3.242759   1.000000   1.000000
    3        1.752920      3.593156   1.000000   1.000000
    4        3.238646      5.065903   1.000000   1.000000
    5        3.435924      5.280821   1.000000   1.000277
    6        4.340016      6.313748   1.000000  -0.002051
    7        4.352524      6.375405   1.000000  -0.000510
    8        4.480321      6.741246   1.000000  -0.000000
    9        4.800971      6.898803   1.000000  -0.000000
   10        4.931697      7.701429   1.000000  -0.000000
   11        5.894976      8.053893   0.277771  -0.000000
   12       10.673587     11.735360  -0.000000   0.000000
   13       15.870526     16.653463   0.000000   0.000000
   14       18.754251     19.263438   0.000000   0.000000
   15       22.773378     23.536018   0.000000   0.000000
   16       24.144210     24.617505   0.000000   0.000000
   17       25.974622     26.496956   0.000000   0.000000
   18       27.764957     27.926296   0.000000   0.000000
   19       28.693643     29.087425   0.000000   0.000000
   20       32.460759     33.326726   0.000000   0.000000
 
  0.3333333E+00  0.1333333E+00  0.0000000E+00  0.7111111E-02
    1       -0.238385      0.010389   1.000000   1.000000
    2        1.693278      3.142288   1.000000   1.000000
    3        2.030735      3.924156   1.000000   1.000000
    4        3.247055      5.060479   1.000000   1.000000
    5        3.369119      5.229127   1.000000   1.000068
    6        4.144553      5.999150   1.000000   0.011374
    7        4.221827      6.501377   1.000000  -0.000015
    8        4.543927      6.572318   1.000000  -0.000001
    9        4.575264      6.633467   1.000000  -0.000000
   10        5.085270      7.840838   1.000001  -0.000000
   11        5.742240      7.878224   0.864589  -0.000000
   12        9.105151     10.439774  -0.000000  -0.000000
   13       16.811032     17.620621   0.000000   0.000000
   14       19.881578     20.434230   0.000000   0.000000
   15       22.741336     23.319111   0.000000   0.000000
   16       23.087253     23.769979   0.000000   0.000000
   17       26.623748     26.898249   0.000000   0.000000
   18       26.652947     27.107825   0.000000   0.000000
   19       27.165719     27.691066   0.000000   0.000000
   20       31.619840     32.031836   0.000000   0.000000
 
  0.4000000E+00  0.1333333E+00  0.0000000E+00  0.7111111E-02
    1        0.434195      0.786192   1.000000   1.000000
    2        1.675833      2.824266   1.000000   1.000000
    3        2.337318      4.285002   1.000000   1.000000
    4        3.214472      5.112436   1.000000   1.000002
    5        3.307932      5.136396   1.000000   1.000004
    6        3.849526      5.675629   1.000000   0.995726
    7        4.176494      6.360063   1.000000  -0.000735
    8        4.365282      6.407330   1.000000  -0.000228
    9        4.822037      6.844966   1.000000  -0.000000
   10        5.340376      7.653885   1.001161  -0.000000
   11        5.544996      8.008766   1.028695  -0.000000
   12        7.722870      9.406381  -0.000000  -0.000000
   13       17.849872     18.659869   0.000000   0.000000
   14       21.156453     21.741213   0.000000   0.000000
   15       21.411478     22.078204   0.000000   0.000000
   16       23.503486     24.095667   0.000000   0.000000
   17       25.585928     25.951014   0.000000   0.000000
   18       25.628477     26.169402   0.000000   0.000000
   19       27.332554     27.782892   0.000000   0.000000
   20       30.338352     30.747625   0.000000   0.000000
 
  0.4666667E+00  0.1333333E+00  0.0000000E+00  0.7111111E-02
    1        1.031518      1.571387   1.000000   1.000000
    2        1.460708      2.280797   1.000000   1.000000
    3        2.656802      4.642079   1.000000   1.000000
    4        2.962553      4.943570   1.000000   1.000000
    5        3.427342      5.229807   1.000000   1.000070
    6        3.608272      5.417405   1.000000   1.005433
    7        4.206508      6.291456   1.000000  -0.003210
    8        4.264873      6.292211   1.000000  -0.003163
    9        5.072684      7.123544   1.000000  -0.000000
   10        5.317476      7.397414   1.000686  -0.000000
   11        5.812123      8.257779   0.617725  -0.000000
   12        6.604107      8.689065  -0.000000  -0.000000
   13       18.966445     19.751303   0.000000   0.000000
   14       20.153804     20.890217   0.000000   0.000000
   15       22.549426     23.152451   0.000000   0.000000
   16       24.034723     24.548893   0.000000   0.000000
   17       24.051425     24.639278   0.000000   0.000000
   18       24.755959     25.161879   0.000000   0.000000
   19       28.175860     28.601809   0.000000   0.000000
   20       29.179714     29.592596   0.000000   0.000000
 
  0.2000000E+00  0.2000000E+00  0.0000000E+00  0.3555556E-02
    1       -1.052054     -0.858942   1.000000   1.000000
    2        1.514038      3.310628   1.000000   1.000000
    3        1.727757      3.477018   1.000000   1.000000
    4        3.145925      4.968398   1.000000   1.000000
    5        3.420968      5.247774   1.000000   1.000115
    6        4.366547      6.343852   1.000000  -0.001068
    7        4.469235      6.365113   1.000000  -0.000653
    8        4.557779      6.795372   1.000000  -0.000000
    9        4.794003      7.168694   1.000000  -0.000000
   10        4.851956      7.549737   1.000000  -0.000000
   11        6.056522      8.241139  -0.031640  -0.000000
   12       12.180930     13.063373   0.000000   0.000000
   13       14.089311     14.997542   0.000000   0.000000
   14       18.464113     18.951821   0.000000   0.000000
   15       22.750012     23.516856   0.000000   0.000000
   16       24.040747     24.519262   0.000000   0.000000
   17       26.682038     27.137271   0.000000   0.000000
   18       28.205091     28.267386   0.000000   0.000000
   19       30.107828     30.239670   0.000000   0.000000
   20       31.371956     32.314312   0.000000   0.000000
 
  0.2666667E+00  0.2000000E+00  0.0000000E+00  0.7111111E-02
    1       -0.536881     -0.306707   1.000000   1.000000
    2        1.609895      3.317421   1.000000   1.000000
    3        1.993992      3.739871   1.000000   1.000000
    4        3.058033      4.860898   1.000000   1.000000
    5        3.390997      5.174153   1.000000   1.000013
    6        4.108986      5.960528   1.000000   0.079366
    7        4.512545      6.586119   1.000000  -0.000001
    8        4.618347      6.625646   1.000000  -0.000000
    9        4.622385      7.067325   1.000000  -0.000000
   10        4.863737      7.626241   1.000000  -0.000000
   11        6.043398      8.224565  -0.026684  -0.000000
   12       10.916663     11.963220  -0.000000   0.000000
   13       14.395094     15.352730   0.000000   0.000000
   14       19.336498     19.856945   0.000000   0.000000
   15       22.496880     23.077801   0.000000   0.000000
   16       22.964693     23.659441   0.000000   0.000000
   17       27.360727     27.468556   0.000000   0.000000
   18       27.825673     28.226284   0.000000   0.000000
   19       29.134295     29.541629   0.000000   0.000000
   20       31.400679     31.962853   0.000000   0.000000
 
  0.3333333E+00  0.2000000E+00  0.0000000E+00  0.7111111E-02
    1        0.040960      0.348624   1.000000   1.000000
    2        1.658611      3.182268   1.000000   1.000000
    3        2.282895      4.045368   1.000000   1.000000
    4        3.020951      4.807977   1.000000   1.000000
    5        3.362459      5.108870   1.000000   1.000001
    6        3.780453      5.597165   1.000000   1.035444
    7        4.450751      6.492626   1.000000  -0.000020
    8        4.456680      6.898706   1.000000  -0.000000
    9        4.883054      6.913773   1.000000  -0.000000
   10        5.010653      7.763581   1.000000  -0.000000
   11        5.956903      8.123518   0.087639  -0.000000
   12        9.399743     10.682563  -0.000000  -0.000000
   13       15.184980     16.142225   0.000000   0.000000
   14       20.395204     20.946747   0.000000   0.000000
   15       21.030908     21.703956   0.000000   0.000000
   16       23.237565     23.846950   0.000000   0.000000
   17       26.420167     26.589923   0.000000   0.000000
   18       27.549271     28.094566   0.000000   0.000000
   19       28.710483     29.093577   0.000000   0.000000
   20       32.062109     32.524995   0.000000   0.000000
 
  0.4000000E+00  0.2000000E+00  0.0000000E+00  0.7111111E-02
    1        0.606449      1.058689   1.000000   1.000000
    2        1.606926      2.869491   1.000000   1.000000
    3        2.574488      4.360994   1.000000   1.000000
    4        3.042564      4.819193   1.000000   1.000000
    5        3.276988      5.026586   1.000000   1.000000
    6        3.501018      5.293317   1.000000   1.000381