 vasp.6.2.0 18Jan21 (build Aug 12 2022 13:00:08) complex                        
  
 executed on             LinuxIFC date 2024.11.04  07:18:29
 running on    4 total cores
 distrk:  each k-point on    4 cores,    1 groups
 distr:  one band on NCORE=   1 cores,    4 groups


--------------------------------------------------------------------------------------------------------


 INCAR:
   ISTART = 0            (Read existing wavefunction, if there)
   ISPIN = 2            (Non-Spin polarised DFT)
   MAGMOM = 5 5          (Set this parameters manually)
   GGA_COMPAT = .FALSE.   (Apply spherical cutoff on gradient field)
   VOSKOWN = 1        (Enhances the magnetic moments and the magnetic energies)
   LMAXMIX = 4        (For d elements increase LMAXMIX to 4, f: LMAXMIX \= 6)
   LREAL = .FALSE.       (Projection operators: automatic)
   ENCUT = 650          (Cut-off energy for plane wave basis set, in eV)
   LORBIT = 11           (Write orbital decomposed charge densities and magnetic moments)
   ADDGRID = .TRUE.        (Increase grid, helps GGA convergence)
   LASPH = .TRUE.        (Give more accurate total energies and band structure calculations)
   PREC = Accurate      (Accurate strictly avoids any aliasing or wrap around errors)
   ISMEAR = 1            (Gaussian smearing, metals:1)
   SIGMA = 0.2          (Smearing value in eV, metals:0.2)
   NELM = 90           (Max electronic SCF steps)
   NELMIN = 6            (Min electronic SCF steps)
   EDIFF = 1E-06        (SCF energy convergence, in eV)
   NSW = 100          (Max ionic steps)
   IBRION = 2            (Algorithm: 0-MD, 1-Quasi-New, 2-CG)
   ISIF = 3            (Stress/relaxation: 2-Ions, 3-Shape/Ions/V, 4-Shape/Ions)
   EDIFFG = -2E-03        (Ionic convergence, eV/AA)
   ISYM = 2              (Symmetry: 0\=none, 2\=GGA, 3\=hybrids)

 POTCAR:    PAW_PBE Fe 06Sep2000                  
 POTCAR:    PAW_PBE Fe 06Sep2000                  
   VRHFIN =Fe:  d7 s1                                                                               
   LEXCH  = PE                                                                                      
   EATOM  =   594.3153 eV,   43.6809 Ry                                                             
                                                                                                    
   TITEL  = PAW_PBE Fe 06Sep2000                                                                    
   LULTRA =        F    use ultrasoft PP ?                                                          
   IUNSCR =        1    unscreen: 0-lin 1-nonlin 2-no                                               
   RPACOR =    2.000    partial core radius                                                         
   POMASS =   55.847; ZVAL   =    8.000    mass and valenz                                          
   RCORE  =    2.300    outmost cutoff radius                                                       
   RWIGS  =    2.460; RWIGS  =    1.302    wigner-seitz radius (au A)                               
   ENMAX  =  267.882; ENMIN  =  200.911 eV                                                          
   RCLOC  =    1.701    cutoff for local pot                                                        
   LCOR   =        T    correct aug charges                                                         
   LPAW   =        T    paw PP                                                                      
   EAUG   =  511.368                                                                                
   DEXC   =    0.000                                                                                
   RMAX   =    2.356    core radius for proj-oper                                                   
   RAUG   =    1.300    factor for augmentation sphere                                              
   RDEP   =    2.442    radius for radial grids                                                     
   RDEPT  =    1.890    core radius for aug-charge                                                  
                                                                                                    
   Atomic configuration                                                                             
    9 entries                                                                                       
     n  l   j            E        occ.                                                              
     1  0  0.50     -6993.8440   2.0000                                                             
     2  0  0.50      -814.6047   2.0000                                                             
     2  1  1.50      -693.3689   6.0000                                                             
     3  0  0.50       -89.4732   2.0000                                                             
     3  1  1.50       -55.6373   6.0000                                                             
     3  2  2.50        -3.8151   7.0000                                                             
     4  0  0.50        -4.2551   1.0000                                                             
     4  1  1.50        -3.4015   0.0000                                                             
     4  3  2.50        -1.3606   0.0000                                                             
   Description                                                                                      
     l       E           TYP  RCUT    TYP  RCUT                                                     
     2     -3.8151135     23  2.300                                                                 
     2     -5.1756961     23  2.300                                                                 
     0     -4.2550963     23  2.300                                                                 
     0      7.2035603     23  2.300                                                                 
     1     -2.7211652     23  2.300                                                                 
     1     18.4316424     23  2.300                                                                 
  local pseudopotential read in
  partial core-charges read in
  partial kinetic energy density read in
  atomic valenz-charges read in
  non local Contribution for L=           2  read in
    real space projection operators read in
  non local Contribution for L=           2  read in
    real space projection operators read in
  non local Contribution for L=           0  read in
    real space projection operators read in
  non local Contribution for L=           0  read in
    real space projection operators read in
  non local Contribution for L=           1  read in
    real space projection operators read in
  non local Contribution for L=           1  read in
    real space projection operators read in
    PAW grid and wavefunctions read in
 
   number of l-projection  operators is LMAX  =           6
   number of lm-projection operators is LMMAX =          18
 
  PAW_PBE Fe 06Sep2000                  :
 energy of atom  1       EATOM= -594.3153
 kinetic energy error for atom=    0.0009 (will be added to EATOM!!)
 
 
 POSCAR: Fe2
  positions in direct lattice
  No initial velocities read in
 exchange correlation table for  LEXCH =        8
   RHO(1)=    0.500       N(1)  =     2000
   RHO(2)=  100.500       N(2)  =     4000
 


--------------------------------------------------------------------------------------------------------


 ion  position               nearest neighbor table
   1  0.000  0.000  0.000-   2 2.48   2 2.48   2 2.48   2 2.48   2 2.48   2 2.48   2 2.48   2 2.48

   2  0.500  0.500  0.500-   1 2.48   1 2.48   1 2.48   1 2.48   1 2.48   1 2.48   1 2.48   1 2.48

 
  LATTYP: Found a simple cubic cell.
 ALAT       =     2.8630354989
  
  Lattice vectors:
  
 A1 = (   2.8630354989,   0.0000000000,   0.0000000000)
 A2 = (   0.0000000000,   2.8630354989,   0.0000000000)
 A3 = (   0.0000000000,   0.0000000000,   2.8630354989)


Analysis of symmetry for initial positions (statically):
=====================================================================
 Subroutine PRICEL returns following result:
 
  LATTYP: Found a body centered cubic cell.
 ALAT       =     2.8630354989
  
  Lattice vectors:
  
 A1 = (   1.4315177495,   1.4315177495,  -1.4315177495)
 A2 = (  -1.4315177495,   1.4315177495,   1.4315177495)
 A3 = (   1.4315177495,  -1.4315177495,   1.4315177495)
 
   2 primitive cells build up your supercell.
 

 Routine SETGRP: Setting up the symmetry group for a 
 simple cubic supercell.


 Subroutine GETGRP returns: Found 48 space group operations
 (whereof 48 operations were pure point group operations)
 out of a pool of 48 trial point group operations.


The static configuration has the point symmetry O_h .


Analysis of symmetry for dynamics (positions and initial velocities):
=====================================================================
 Subroutine PRICEL returns following result:
 
  LATTYP: Found a body centered cubic cell.
 ALAT       =     2.8630354989
  
  Lattice vectors:
  
 A1 = (   1.4315177495,   1.4315177495,  -1.4315177495)
 A2 = (  -1.4315177495,   1.4315177495,   1.4315177495)
 A3 = (   1.4315177495,  -1.4315177495,   1.4315177495)
 
   2 primitive cells build up your supercell.
 

 Routine SETGRP: Setting up the symmetry group for a 
 simple cubic supercell.


 Subroutine GETGRP returns: Found 48 space group operations
 (whereof 48 operations were pure point group operations)
 out of a pool of 48 trial point group operations.


The dynamic configuration has the point symmetry O_h .


Analysis of structural, dynamic, and magnetic symmetry:
=====================================================================
 Subroutine PRICEL returns following result:
 
  LATTYP: Found a body centered cubic cell.
 ALAT       =     2.8630354989
  
  Lattice vectors:
  
 A1 = (   1.4315177495,   1.4315177495,  -1.4315177495)
 A2 = (  -1.4315177495,   1.4315177495,   1.4315177495)
 A3 = (   1.4315177495,  -1.4315177495,   1.4315177495)
 
   2 primitive cells build up your supercell.
 

 Routine SETGRP: Setting up the symmetry group for a 
 simple cubic supercell.


 Subroutine GETGRP returns: Found 48 space group operations
 (whereof 48 operations were pure point group operations)
 out of a pool of 48 trial point group operations.


The overall configuration has the point symmetry O_h .


 Subroutine INISYM returns: Found 48 space group operations
 (whereof 48 operations are pure point group operations),
 and found     2 'primitive' translations


----------------------------------------------------------------------------------------

                                     Primitive cell                                     

  volume of cell :      11.7341

  direct lattice vectors                    reciprocal lattice vectors
     1.431517749  1.431517749 -1.431517749     0.349279637  0.349279637  0.000000000
    -1.431517749  1.431517749  1.431517749     0.000000000  0.349279637  0.349279637
     1.431517749 -1.431517749  1.431517749     0.349279637 -0.000000000  0.349279637

  length of vectors
     2.479461474  2.479461474  2.479461474     0.493956000  0.493956000  0.493956000

  position of ions in fractional coordinates (direct lattice)
     0.000000000  0.000000000  0.000000000

  ion indices of the primitive-cell ions
   primitive index   ion index
                 1           1

----------------------------------------------------------------------------------------

 
 
 KPOINTS: Automatic                               

Automatic generation of k-mesh.
 Grid dimensions read from file:
 generate k-points for:   15   15   15

 Generating k-lattice:

  Cartesian coordinates                     Fractional coordinates (reciprocal lattice)
     0.023285309 -0.000000000  0.000000000     0.066666667  0.000000000  0.000000000
     0.000000000  0.023285309  0.000000000     0.000000000  0.066666667  0.000000000
    -0.000000000 -0.000000000  0.023285309     0.000000000  0.000000000  0.066666667

  Length of vectors
     0.023285309  0.023285309  0.023285309

  Shift w.r.t. Gamma in fractional coordinates (k-lattice)
     0.000000000  0.000000000  0.000000000

 
 Subroutine IBZKPT returns following result:
 ===========================================
 
 Found    120 irreducible k-points:
 
 Following reciprocal coordinates:
            Coordinates               Weight
  0.000000  0.000000  0.000000      1.000000
  0.066667  0.000000  0.000000      6.000000
  0.133333  0.000000  0.000000      6.000000
  0.200000 -0.000000  0.000000      6.000000
  0.266667  0.000000  0.000000      6.000000
  0.333333  0.000000  0.000000      6.000000
  0.400000  0.000000  0.000000      6.000000
  0.466667 -0.000000  0.000000      6.000000
  0.066667  0.066667  0.000000     12.000000
  0.133333  0.066667  0.000000     24.000000
  0.200000  0.066667  0.000000     24.000000
  0.266667  0.066667  0.000000     24.000000
  0.333333  0.066667  0.000000     24.000000
  0.400000  0.066667  0.000000     24.000000
  0.466667  0.066667  0.000000     24.000000
  0.133333  0.133333  0.000000     12.000000
  0.200000  0.133333  0.000000     24.000000
  0.266667  0.133333  0.000000     24.000000
  0.333333  0.133333  0.000000     24.000000
  0.400000  0.133333  0.000000     24.000000
  0.466667  0.133333  0.000000     24.000000
  0.200000  0.200000  0.000000     12.000000
  0.266667  0.200000  0.000000     24.000000
  0.333333  0.200000  0.000000     24.000000
  0.400000  0.200000  0.000000     24.000000
  0.466667  0.200000  0.000000     24.000000
  0.266667  0.266667  0.000000     12.000000
  0.333333  0.266667  0.000000     24.000000
  0.400000  0.266667  0.000000     24.000000
  0.466667  0.266667  0.000000     24.000000
  0.333333  0.333333  0.000000     12.000000
  0.400000  0.333333  0.000000     24.000000
  0.466667  0.333333  0.000000     24.000000
  0.400000  0.400000  0.000000     12.000000
  0.466667  0.400000  0.000000     24.000000
  0.466667  0.466667  0.000000     12.000000
  0.066667  0.066667  0.066667      8.000000
  0.133333  0.066667  0.066667     24.000000
  0.200000  0.066667  0.066667     24.000000
  0.266667  0.066667  0.066667     24.000000
  0.333333  0.066667  0.066667     24.000000
  0.400000  0.066667  0.066667     24.000000
  0.466667  0.066667  0.066667     24.000000
  0.133333  0.133333  0.066667     24.000000
  0.200000  0.133333  0.066667     48.000000
  0.266667  0.133333  0.066667     48.000000
  0.333333  0.133333  0.066667     48.000000
  0.400000  0.133333  0.066667     48.000000
  0.466667  0.133333  0.066667     48.000000
  0.200000  0.200000  0.066667     24.000000
  0.266667  0.200000  0.066667     48.000000
  0.333333  0.200000  0.066667     48.000000
  0.400000  0.200000  0.066667     48.000000
  0.466667  0.200000  0.066667     48.000000
  0.266667  0.266667  0.066667     24.000000
  0.333333  0.266667  0.066667     48.000000
  0.400000  0.266667  0.066667     48.000000
  0.466667  0.266667  0.066667     48.000000
  0.333333  0.333333  0.066667     24.000000
  0.400000  0.333333  0.066667     48.000000
  0.466667  0.333333  0.066667     48.000000
  0.400000  0.400000  0.066667     24.000000
  0.466667  0.400000  0.066667     48.000000
  0.466667  0.466667  0.066667     24.000000
  0.133333  0.133333  0.133333      8.000000
  0.200000  0.133333  0.133333     24.000000
  0.266667  0.133333  0.133333     24.000000
  0.333333  0.133333  0.133333     24.000000
  0.400000  0.133333  0.133333     24.000000
  0.466667  0.133333  0.133333     24.000000
  0.200000  0.200000  0.133333     24.000000
  0.266667  0.200000  0.133333     48.000000
  0.333333  0.200000  0.133333     48.000000
  0.400000  0.200000  0.133333     48.000000
  0.466667  0.200000  0.133333     48.000000
  0.266667  0.266667  0.133333     24.000000
  0.333333  0.266667  0.133333     48.000000
  0.400000  0.266667  0.133333     48.000000
  0.466667  0.266667  0.133333     48.000000
  0.333333  0.333333  0.133333     24.000000
  0.400000  0.333333  0.133333     48.000000
  0.466667  0.333333  0.133333     48.000000
  0.400000  0.400000  0.133333     24.000000
  0.466667  0.400000  0.133333     48.000000
  0.466667  0.466667  0.133333     24.000000
  0.200000  0.200000  0.200000      8.000000
  0.266667  0.200000  0.200000     24.000000
  0.333333  0.200000  0.200000     24.000000
  0.400000  0.200000  0.200000     24.000000
  0.466667  0.200000  0.200000     24.000000
  0.266667  0.266667  0.200000     24.000000
  0.333333  0.266667  0.200000     48.000000
  0.400000  0.266667  0.200000     48.000000
  0.466667  0.266667  0.200000     48.000000
  0.333333  0.333333  0.200000     24.000000
  0.400000  0.333333  0.200000     48.000000
  0.466667  0.333333  0.200000     48.000000
  0.400000  0.400000  0.200000     24.000000
  0.466667  0.400000  0.200000     48.000000
  0.466667  0.466667  0.200000     24.000000
  0.266667  0.266667  0.266667      8.000000
  0.333333  0.266667  0.266667     24.000000
  0.400000  0.266667  0.266667     24.000000
  0.466667  0.266667  0.266667     24.000000
  0.333333  0.333333  0.266667     24.000000
  0.400000  0.333333  0.266667     48.000000
  0.466667  0.333333  0.266667     48.000000
  0.400000  0.400000  0.266667     24.000000
  0.466667  0.400000  0.266667     48.000000
  0.466667  0.466667  0.266667     24.000000
  0.333333  0.333333  0.333333      8.000000
  0.400000  0.333333  0.333333     24.000000
  0.466667  0.333333  0.333333     24.000000
  0.400000  0.400000  0.333333     24.000000
  0.466667  0.400000  0.333333     48.000000
  0.466667  0.466667  0.333333     24.000000
  0.400000  0.400000  0.400000      8.000000
  0.466667  0.400000  0.400000     24.000000
  0.466667  0.466667  0.400000     24.000000
  0.466667  0.466667  0.466667      8.000000
 
 Following cartesian coordinates:
            Coordinates               Weight
  0.000000  0.000000  0.000000      1.000000
  0.023285 -0.000000  0.000000      6.000000
  0.046571 -0.000000  0.000000      6.000000
  0.069856 -0.000000  0.000000      6.000000
  0.093141 -0.000000  0.000000      6.000000
  0.116427 -0.000000  0.000000      6.000000
  0.139712 -0.000000  0.000000      6.000000
  0.162997 -0.000000  0.000000      6.000000
  0.023285  0.023285  0.000000     12.000000
  0.046571  0.023285  0.000000     24.000000
  0.069856  0.023285  0.000000     24.000000
  0.093141  0.023285  0.000000     24.000000
  0.116427  0.023285  0.000000     24.000000
  0.139712  0.023285  0.000000     24.000000
  0.162997  0.023285  0.000000     24.000000
  0.046571  0.046571  0.000000     12.000000
  0.069856  0.046571  0.000000     24.000000
  0.093141  0.046571  0.000000     24.000000
  0.116427  0.046571  0.000000     24.000000
  0.139712  0.046571  0.000000     24.000000
  0.162997  0.046571  0.000000     24.000000
  0.069856  0.069856  0.000000     12.000000
  0.093141  0.069856  0.000000     24.000000
  0.116427  0.069856  0.000000     24.000000
  0.139712  0.069856  0.000000     24.000000
  0.162997  0.069856  0.000000     24.000000
  0.093141  0.093141  0.000000     12.000000
  0.116427  0.093141  0.000000     24.000000
  0.139712  0.093141  0.000000     24.000000
  0.162997  0.093141  0.000000     24.000000
  0.116427  0.116427  0.000000     12.000000
  0.139712  0.116427  0.000000     24.000000
  0.162997  0.116427  0.000000     24.000000
  0.139712  0.139712  0.000000     12.000000
  0.162997  0.139712  0.000000     24.000000
  0.162997  0.162997  0.000000     12.000000
  0.023285  0.023285  0.023285      8.000000
  0.046571  0.023285  0.023285     24.000000
  0.069856  0.023285  0.023285     24.000000
  0.093141  0.023285  0.023285     24.000000
  0.116427  0.023285  0.023285     24.000000
  0.139712  0.023285  0.023285     24.000000
  0.162997  0.023285  0.023285     24.000000
  0.046571  0.046571  0.023285     24.000000
  0.069856  0.046571  0.023285     48.000000
  0.093141  0.046571  0.023285     48.000000
  0.116427  0.046571  0.023285     48.000000
  0.139712  0.046571  0.023285     48.000000
  0.162997  0.046571  0.023285     48.000000
  0.069856  0.069856  0.023285     24.000000
  0.093141  0.069856  0.023285     48.000000
  0.116427  0.069856  0.023285     48.000000
  0.139712  0.069856  0.023285     48.000000
  0.162997  0.069856  0.023285     48.000000
  0.093141  0.093141  0.023285     24.000000
  0.116427  0.093141  0.023285     48.000000
  0.139712  0.093141  0.023285     48.000000
  0.162997  0.093141  0.023285     48.000000
  0.116427  0.116427  0.023285     24.000000
  0.139712  0.116427  0.023285     48.000000
  0.162997  0.116427  0.023285     48.000000
  0.139712  0.139712  0.023285     24.000000
  0.162997  0.139712  0.023285     48.000000
  0.162997  0.162997  0.023285     24.000000
  0.046571  0.046571  0.046571      8.000000
  0.069856  0.046571  0.046571     24.000000
  0.093141  0.046571  0.046571     24.000000
  0.116427  0.046571  0.046571     24.000000
  0.139712  0.046571  0.046571     24.000000
  0.162997  0.046571  0.046571     24.000000
  0.069856  0.069856  0.046571     24.000000
  0.093141  0.069856  0.046571     48.000000
  0.116427  0.069856  0.046571     48.000000
  0.139712  0.069856  0.046571     48.000000
  0.162997  0.069856  0.046571     48.000000
  0.093141  0.093141  0.046571     24.000000
  0.116427  0.093141  0.046571     48.000000
  0.139712  0.093141  0.046571     48.000000
  0.162997  0.093141  0.046571     48.000000
  0.116427  0.116427  0.046571     24.000000
  0.139712  0.116427  0.046571     48.000000
  0.162997  0.116427  0.046571     48.000000
  0.139712  0.139712  0.046571     24.000000
  0.162997  0.139712  0.046571     48.000000
  0.162997  0.162997  0.046571     24.000000
  0.069856  0.069856  0.069856      8.000000
  0.093141  0.069856  0.069856     24.000000
  0.116427  0.069856  0.069856     24.000000
  0.139712  0.069856  0.069856     24.000000
  0.162997  0.069856  0.069856     24.000000
  0.093141  0.093141  0.069856     24.000000
  0.116427  0.093141  0.069856     48.000000
  0.139712  0.093141  0.069856     48.000000
  0.162997  0.093141  0.069856     48.000000
  0.116427  0.116427  0.069856     24.000000
  0.139712  0.116427  0.069856     48.000000
  0.162997  0.116427  0.069856     48.000000
  0.139712  0.139712  0.069856     24.000000
  0.162997  0.139712  0.069856     48.000000
  0.162997  0.162997  0.069856     24.000000
  0.093141  0.093141  0.093141      8.000000
  0.116427  0.093141  0.093141     24.000000
  0.139712  0.093141  0.093141     24.000000
  0.162997  0.093141  0.093141     24.000000
  0.116427  0.116427  0.093141     24.000000
  0.139712  0.116427  0.093141     48.000000
  0.162997  0.116427  0.093141     48.000000
  0.139712  0.139712  0.093141     24.000000
  0.162997  0.139712  0.093141     48.000000
  0.162997  0.162997  0.093141     24.000000
  0.116427  0.116427  0.116427      8.000000
  0.139712  0.116427  0.116427     24.000000
  0.162997  0.116427  0.116427     24.000000
  0.139712  0.139712  0.116427     24.000000
  0.162997  0.139712  0.116427     48.000000
  0.162997  0.162997  0.116427     24.000000
  0.139712  0.139712  0.139712      8.000000
  0.162997  0.139712  0.139712     24.000000
  0.162997  0.162997  0.139712     24.000000
  0.162997  0.162997  0.162997      8.000000
 


--------------------------------------------------------------------------------------------------------




 Dimension of arrays:
   k-points           NKPTS =    120   k-points in BZ     NKDIM =    120   number of bands    NBANDS=     20
   number of dos      NEDOS =    301   number of ions     NIONS =      2
   non local maximal  LDIM  =      6   non local SUM 2l+1 LMDIM =     18
   total plane-waves  NPLWV =  13824
   max r-space proj   IRMAX =      1   max aug-charges    IRDMAX= 168046
   dimension x,y,z NGX =    24 NGY =   24 NGZ =   24
   dimension x,y,z NGXF=    48 NGYF=   48 NGZF=   48
   support grid    NGXF=    96 NGYF=   96 NGZF=   96
   ions per type =               2
   NGX,Y,Z   is equivalent  to a cutoff of  13.94, 13.94, 13.94 a.u.
   NGXF,Y,Z  is equivalent  to a cutoff of  27.87, 27.87, 27.87 a.u.

 SYSTEM =  unknown system                          
 POSCAR =  Fe2                                     

 Startparameter for this run:
   NWRITE =      2    write-flag & timer
   PREC   = accura    normal or accurate (medium, high low for compatibility)
   ISTART =      0    job   : 0-new  1-cont  2-samecut
   ICHARG =      2    charge: 1-file 2-atom 10-const
   ISPIN  =      2    spin polarized calculation?
   LNONCOLLINEAR =      F non collinear calculations
   LSORBIT =      F    spin-orbit coupling
   INIWAV =      1    electr: 0-lowe 1-rand  2-diag
   LASPH  =      T    aspherical Exc in radial PAW
   METAGGA=      F    non-selfconsistent MetaGGA calc.

 Electronic Relaxation 1
   ENCUT  =  650.0 eV  47.77 Ry    6.91 a.u.   5.95  5.95  5.95*2*pi/ulx,y,z
   ENINI  =  650.0     initial cutoff
   ENAUG  =  511.4 eV  augmentation charge cutoff
   NELM   =     90;   NELMIN=  6; NELMDL= -5     # of ELM steps 
   EDIFF  = 0.1E-05   stopping-criterion for ELM
   LREAL  =      F    real-space projection
   NLSPLINE    = F    spline interpolate recip. space projectors
   LCOMPAT=      F    compatible to vasp.4.4
   GGA_COMPAT  = F    GGA compatible to vasp.4.4-vasp.4.6
   LMAXPAW     = -100 max onsite density
   LMAXMIX     =    4 max onsite mixed and CHGCAR
   VOSKOWN=      1    Vosko Wilk Nusair interpolation
   ROPT   =    0.00000
 Ionic relaxation
   EDIFFG = -.2E-02   stopping-criterion for IOM
   NSW    =    100    number of steps for IOM
   NBLOCK =      1;   KBLOCK =    100    inner block; outer block 
   IBRION =      2    ionic relax: 0-MD 1-quasi-New 2-CG
   NFREE  =      1    steps in history (QN), initial steepest desc. (CG)
   ISIF   =      3    stress and relaxation
   IWAVPR =     11    prediction:  0-non 1-charg 2-wave 3-comb
   ISYM   =      2    0-nonsym 1-usesym 2-fastsym
   LCORR  =      T    Harris-Foulkes like correction to forces

   POTIM  = 0.5000    time-step for ionic-motion
   TEIN   =    0.0    initial temperature
   TEBEG  =    0.0;   TEEND  =   0.0 temperature during run
   SMASS  =  -3.00    Nose mass-parameter (am)
   estimated Nose-frequenzy (Omega)   =  0.10E-29 period in steps = 0.13E+47 mass=  -0.187E-27a.u.
   SCALEE = 1.0000    scale energy and forces
   NPACO  =    256;   APACO  = 16.0  distance and # of slots for P.C.
   PSTRESS=    0.0 pullay stress

  Mass of Ions in am
   POMASS =  55.85
  Ionic Valenz
   ZVAL   =   8.00
  Atomic Wigner-Seitz radii
   RWIGS  =  -1.00
  virtual crystal weights 
   VCA    =   1.00
   NELECT =      16.0000    total number of electrons
   NUPDOWN=      -1.0000    fix difference up-down

 DOS related values:
   EMIN   =  10.00;   EMAX   =-10.00  energy-range for DOS
   EFERMI =   0.00
   ISMEAR =     1;   SIGMA  =   0.20  broadening in eV -4-tet -1-fermi 0-gaus

 Electronic relaxation 2 (details)
   IALGO  =     38    algorithm
   LDIAG  =      T    sub-space diagonalisation (order eigenvalues)
   LSUBROT=      F    optimize rotation matrix (better conditioning)
   TURBO    =      0    0=normal 1=particle mesh
   IRESTART =      0    0=no restart 2=restart with 2 vectors
   NREBOOT  =      0    no. of reboots
   NMIN     =      0    reboot dimension
   EREF     =   0.00    reference energy to select bands
   IMIX   =      4    mixing-type and parameters
     AMIX     =   0.40;   BMIX     =  1.00
     AMIX_MAG =   1.60;   BMIX_MAG =  1.00
     AMIN     =   0.10
     WC   =   100.;   INIMIX=   1;  MIXPRE=   1;  MAXMIX= -45

 Intra band minimization:
   WEIMIN = 0.0010     energy-eigenvalue tresh-hold
   EBREAK =  0.12E-07  absolut break condition
   DEPER  =   0.30     relativ break condition  

   TIME   =   0.40     timestep for ELM

  volume/ion in A,a.u.               =      11.73        79.19
  Fermi-wavevector in a.u.,A,eV,Ry     =   1.440859  2.722828 28.246703  2.076074
  Thomas-Fermi vector in A             =   2.559556
 
 Write flags
   LWAVE        =      T    write WAVECAR
   LDOWNSAMPLE  =      F    k-point downsampling of WAVECAR
   LCHARG       =      T    write CHGCAR
   LVTOT        =      F    write LOCPOT, total local potential
   LVHAR        =      F    write LOCPOT, Hartree potential only
   LELF         =      F    write electronic localiz. function (ELF)
   LORBIT       =     11    0 simple, 1 ext, 2 COOP (PROOUT), +10 PAW based schemes


 Dipole corrections
   LMONO  =      F    monopole corrections only (constant potential shift)
   LDIPOL =      F    correct potential (dipole corrections)
   IDIPOL =      0    1-x, 2-y, 3-z, 4-all directions 
   EPSILON=  1.0000000 bulk dielectric constant

 Exchange correlation treatment:
   GGA     =    --    GGA type
   LEXCH   =     8    internal setting for exchange type
   VOSKOWN=      1    Vosko Wilk Nusair interpolation
   LHFCALC =     F    Hartree Fock is set to
   LHFONE  =     F    Hartree Fock one center treatment
   AEXX    =    0.0000 exact exchange contribution

 Linear response parameters
   LEPSILON=     F    determine dielectric tensor
   LRPA    =     F    only Hartree local field effects (RPA)
   LNABLA  =     F    use nabla operator in PAW spheres
   LVEL    =     F    velocity operator in full k-point grid
   LINTERFAST=   F  fast interpolation
   KINTER  =     0    interpolate to denser k-point grid
   CSHIFT  =0.1000    complex shift for real part using Kramers Kronig
   OMEGAMAX=  -1.0    maximum frequency
   DEG_THRESHOLD= 0.2000000E-02 threshold for treating states as degnerate
   RTIME   =   -0.100 relaxation time in fs
  (WPLASMAI=    0.000 imaginary part of plasma frequency in eV, 0.658/RTIME)
   DFIELD  = 0.0000000 0.0000000 0.0000000 field for delta impulse in time
 
 Orbital magnetization related:
   ORBITALMAG=     F  switch on orbital magnetization
   LCHIMAG   =     F  perturbation theory with respect to B field
   DQ        =  0.001000  dq finite difference perturbation B field
   LLRAUG    =     F  two centre corrections for induced B field



--------------------------------------------------------------------------------------------------------


 conjugate gradient relaxation of ions
 charge density and potential will be updated during run
 spin polarized calculation
 Variant of blocked Davidson
 Davidson routine will perform the subspace rotation
 perform sub-space diagonalisation
    after iterative eigenvector-optimisation
 modified Broyden-mixing scheme, WC =      100.0
 initial mixing is a Kerker type mixing with AMIX =  0.4000 and BMIX =      1.0000
 Hartree-type preconditioning will be used
 using additional bands           12
 reciprocal scheme for non local part
 use partial core corrections
 calculate Harris-corrections to forces 
   (improved forces if not selfconsistent)
 use gradient corrections 
 use of overlap-Matrix (Vanderbilt PP)
 Methfessel and Paxton  Order N= 1 SIGMA  =   0.20


--------------------------------------------------------------------------------------------------------


  energy-cutoff  :      650.00
  volume of cell :       23.47
      direct lattice vectors                 reciprocal lattice vectors
     2.863035499  0.000000000  0.000000000     0.349279637 -0.000000000  0.000000000
     0.000000000  2.863035499  0.000000000     0.000000000  0.349279637  0.000000000
     0.000000000  0.000000000  2.863035499    -0.000000000 -0.000000000  0.349279637

  length of vectors
     2.863035499  2.863035499  2.863035499     0.349279637  0.349279637  0.349279637


 
 k-points in units of 2pi/SCALE and weight: Automatic                               
   0.00000000  0.00000000  0.00000000       0.000
   0.02328531 -0.00000000  0.00000000       0.002
   0.04657062 -0.00000000  0.00000000       0.002
   0.06985593 -0.00000000  0.00000000       0.002
   0.09314124 -0.00000000  0.00000000       0.002
   0.11642655 -0.00000000  0.00000000       0.002
   0.13971185 -0.00000000  0.00000000       0.002
   0.16299716 -0.00000000  0.00000000       0.002
   0.02328531  0.02328531  0.00000000       0.004
   0.04657062  0.02328531  0.00000000       0.007
   0.06985593  0.02328531  0.00000000       0.007
   0.09314124  0.02328531  0.00000000       0.007
   0.11642655  0.02328531  0.00000000       0.007
   0.13971185  0.02328531  0.00000000       0.007
   0.16299716  0.02328531  0.00000000       0.007
   0.04657062  0.04657062  0.00000000       0.004
   0.06985593  0.04657062  0.00000000       0.007
   0.09314124  0.04657062  0.00000000       0.007
   0.11642655  0.04657062  0.00000000       0.007
   0.13971185  0.04657062  0.00000000       0.007
   0.16299716  0.04657062  0.00000000       0.007
   0.06985593  0.06985593  0.00000000       0.004
   0.09314124  0.06985593  0.00000000       0.007
   0.11642655  0.06985593  0.00000000       0.007
   0.13971185  0.06985593  0.00000000       0.007
   0.16299716  0.06985593  0.00000000       0.007
   0.09314124  0.09314124  0.00000000       0.004
   0.11642655  0.09314124  0.00000000       0.007
   0.13971185  0.09314124  0.00000000       0.007
   0.16299716  0.09314124  0.00000000       0.007
   0.11642655  0.11642655  0.00000000       0.004
   0.13971185  0.11642655  0.00000000       0.007
   0.16299716  0.11642655  0.00000000       0.007
   0.13971185  0.13971185  0.00000000       0.004
   0.16299716  0.13971185  0.00000000       0.007
   0.16299716  0.16299716  0.00000000       0.004
   0.02328531  0.02328531  0.02328531       0.002
   0.04657062  0.02328531  0.02328531       0.007
   0.06985593  0.02328531  0.02328531       0.007
   0.09314124  0.02328531  0.02328531       0.007
   0.11642655  0.02328531  0.02328531       0.007
   0.13971185  0.02328531  0.02328531       0.007
   0.16299716  0.02328531  0.02328531       0.007
   0.04657062  0.04657062  0.02328531       0.007
   0.06985593  0.04657062  0.02328531       0.014
   0.09314124  0.04657062  0.02328531       0.014
   0.11642655  0.04657062  0.02328531       0.014
   0.13971185  0.04657062  0.02328531       0.014
   0.16299716  0.04657062  0.02328531       0.014
   0.06985593  0.06985593  0.02328531       0.007
   0.09314124  0.06985593  0.02328531       0.014
   0.11642655  0.06985593  0.02328531       0.014
   0.13971185  0.06985593  0.02328531       0.014
   0.16299716  0.06985593  0.02328531       0.014
   0.09314124  0.09314124  0.02328531       0.007
   0.11642655  0.09314124  0.02328531       0.014
   0.13971185  0.09314124  0.02328531       0.014
   0.16299716  0.09314124  0.02328531       0.014
   0.11642655  0.11642655  0.02328531       0.007
   0.13971185  0.11642655  0.02328531       0.014
   0.16299716  0.11642655  0.02328531       0.014
   0.13971185  0.13971185  0.02328531       0.007
   0.16299716  0.13971185  0.02328531       0.014
   0.16299716  0.16299716  0.02328531       0.007
   0.04657062  0.04657062  0.04657062       0.002
   0.06985593  0.04657062  0.04657062       0.007
   0.09314124  0.04657062  0.04657062       0.007
   0.11642655  0.04657062  0.04657062       0.007
   0.13971185  0.04657062  0.04657062       0.007
   0.16299716  0.04657062  0.04657062       0.007
   0.06985593  0.06985593  0.04657062       0.007
   0.09314124  0.06985593  0.04657062       0.014
   0.11642655  0.06985593  0.04657062       0.014
   0.13971185  0.06985593  0.04657062       0.014
   0.16299716  0.06985593  0.04657062       0.014
   0.09314124  0.09314124  0.04657062       0.007
   0.11642655  0.09314124  0.04657062       0.014
   0.13971185  0.09314124  0.04657062       0.014
   0.16299716  0.09314124  0.04657062       0.014
   0.11642655  0.11642655  0.04657062       0.007
   0.13971185  0.11642655  0.04657062       0.014
   0.16299716  0.11642655  0.04657062       0.014
   0.13971185  0.13971185  0.04657062       0.007
   0.16299716  0.13971185  0.04657062       0.014
   0.16299716  0.16299716  0.04657062       0.007
   0.06985593  0.06985593  0.06985593       0.002
   0.09314124  0.06985593  0.06985593       0.007
   0.11642655  0.06985593  0.06985593       0.007
   0.13971185  0.06985593  0.06985593       0.007
   0.16299716  0.06985593  0.06985593       0.007
   0.09314124  0.09314124  0.06985593       0.007
   0.11642655  0.09314124  0.06985593       0.014
   0.13971185  0.09314124  0.06985593       0.014
   0.16299716  0.09314124  0.06985593       0.014
   0.11642655  0.11642655  0.06985593       0.007
   0.13971185  0.11642655  0.06985593       0.014
   0.16299716  0.11642655  0.06985593       0.014
   0.13971185  0.13971185  0.06985593       0.007
   0.16299716  0.13971185  0.06985593       0.014
   0.16299716  0.16299716  0.06985593       0.007
   0.09314124  0.09314124  0.09314124       0.002
   0.11642655  0.09314124  0.09314124       0.007
   0.13971185  0.09314124  0.09314124       0.007
   0.16299716  0.09314124  0.09314124       0.007
   0.11642655  0.11642655  0.09314124       0.007
   0.13971185  0.11642655  0.09314124       0.014
   0.16299716  0.11642655  0.09314124       0.014
   0.13971185  0.13971185  0.09314124       0.007
   0.16299716  0.13971185  0.09314124       0.014
   0.16299716  0.16299716  0.09314124       0.007
   0.11642655  0.11642655  0.11642655       0.002
   0.13971185  0.11642655  0.11642655       0.007
   0.16299716  0.11642655  0.11642655       0.007
   0.13971185  0.13971185  0.11642655       0.007
   0.16299716  0.13971185  0.11642655       0.014
   0.16299716  0.16299716  0.11642655       0.007
   0.13971185  0.13971185  0.13971185       0.002
   0.16299716  0.13971185  0.13971185       0.007
   0.16299716  0.16299716  0.13971185       0.007
   0.16299716  0.16299716  0.16299716       0.002
 
 k-points in reciprocal lattice and weights: Automatic                               
   0.00000000  0.00000000  0.00000000       0.000
   0.06666667  0.00000000  0.00000000       0.002
   0.13333333  0.00000000  0.00000000       0.002
   0.20000000 -0.00000000  0.00000000       0.002
   0.26666667  0.00000000  0.00000000       0.002
   0.33333333  0.00000000  0.00000000       0.002
   0.40000000  0.00000000  0.00000000       0.002
   0.46666667 -0.00000000  0.00000000       0.002
   0.06666667  0.06666667  0.00000000       0.004
   0.13333333  0.06666667  0.00000000       0.007
   0.20000000  0.06666667  0.00000000       0.007
   0.26666667  0.06666667  0.00000000       0.007
   0.33333333  0.06666667  0.00000000       0.007
   0.40000000  0.06666667  0.00000000       0.007
   0.46666667  0.06666667  0.00000000       0.007
   0.13333333  0.13333333  0.00000000       0.004
   0.20000000  0.13333333  0.00000000       0.007
   0.26666667  0.13333333  0.00000000       0.007
   0.33333333  0.13333333  0.00000000       0.007
   0.40000000  0.13333333  0.00000000       0.007
   0.46666667  0.13333333  0.00000000       0.007
   0.20000000  0.20000000  0.00000000       0.004
   0.26666667  0.20000000  0.00000000       0.007
   0.33333333  0.20000000  0.00000000       0.007
   0.40000000  0.20000000  0.00000000       0.007
   0.46666667  0.20000000  0.00000000       0.007
   0.26666667  0.26666667  0.00000000       0.004
   0.33333333  0.26666667  0.00000000       0.007
   0.40000000  0.26666667  0.00000000       0.007
   0.46666667  0.26666667  0.00000000       0.007
   0.33333333  0.33333333  0.00000000       0.004
   0.40000000  0.33333333  0.00000000       0.007
   0.46666667  0.33333333  0.00000000       0.007
   0.40000000  0.40000000  0.00000000       0.004
   0.46666667  0.40000000  0.00000000       0.007
   0.46666667  0.46666667  0.00000000       0.004
   0.06666667  0.06666667  0.06666667       0.002
   0.13333333  0.06666667  0.06666667       0.007
   0.20000000  0.06666667  0.06666667       0.007
   0.26666667  0.06666667  0.06666667       0.007
   0.33333333  0.06666667  0.06666667       0.007
   0.40000000  0.06666667  0.06666667       0.007
   0.46666667  0.06666667  0.06666667       0.007
   0.13333333  0.13333333  0.06666667       0.007
   0.20000000  0.13333333  0.06666667       0.014
   0.26666667  0.13333333  0.06666667       0.014
   0.33333333  0.13333333  0.06666667       0.014
   0.40000000  0.13333333  0.06666667       0.014
   0.46666667  0.13333333  0.06666667       0.014
   0.20000000  0.20000000  0.06666667       0.007
   0.26666667  0.20000000  0.06666667       0.014
   0.33333333  0.20000000  0.06666667       0.014
   0.40000000  0.20000000  0.06666667       0.014
   0.46666667  0.20000000  0.06666667       0.014
   0.26666667  0.26666667  0.06666667       0.007
   0.33333333  0.26666667  0.06666667       0.014
   0.40000000  0.26666667  0.06666667       0.014
   0.46666667  0.26666667  0.06666667       0.014
   0.33333333  0.33333333  0.06666667       0.007
   0.40000000  0.33333333  0.06666667       0.014
   0.46666667  0.33333333  0.06666667       0.014
   0.40000000  0.40000000  0.06666667       0.007
   0.46666667  0.40000000  0.06666667       0.014
   0.46666667  0.46666667  0.06666667       0.007
   0.13333333  0.13333333  0.13333333       0.002
   0.20000000  0.13333333  0.13333333       0.007
   0.26666667  0.13333333  0.13333333       0.007
   0.33333333  0.13333333  0.13333333       0.007
   0.40000000  0.13333333  0.13333333       0.007
   0.46666667  0.13333333  0.13333333       0.007
   0.20000000  0.20000000  0.13333333       0.007
   0.26666667  0.20000000  0.13333333       0.014
   0.33333333  0.20000000  0.13333333       0.014
   0.40000000  0.20000000  0.13333333       0.014
   0.46666667  0.20000000  0.13333333       0.014
   0.26666667  0.26666667  0.13333333       0.007
   0.33333333  0.26666667  0.13333333       0.014
   0.40000000  0.26666667  0.13333333       0.014
   0.46666667  0.26666667  0.13333333       0.014
   0.33333333  0.33333333  0.13333333       0.007
   0.40000000  0.33333333  0.13333333       0.014
   0.46666667  0.33333333  0.13333333       0.014
   0.40000000  0.40000000  0.13333333       0.007
   0.46666667  0.40000000  0.13333333       0.014
   0.46666667  0.46666667  0.13333333       0.007
   0.20000000  0.20000000  0.20000000       0.002
   0.26666667  0.20000000  0.20000000       0.007
   0.33333333  0.20000000  0.20000000       0.007
   0.40000000  0.20000000  0.20000000       0.007
   0.46666667  0.20000000  0.20000000       0.007
   0.26666667  0.26666667  0.20000000       0.007
   0.33333333  0.26666667  0.20000000       0.014
   0.40000000  0.26666667  0.20000000       0.014
   0.46666667  0.26666667  0.20000000       0.014
   0.33333333  0.33333333  0.20000000       0.007
   0.40000000  0.33333333  0.20000000       0.014
   0.46666667  0.33333333  0.20000000       0.014
   0.40000000  0.40000000  0.20000000       0.007
   0.46666667  0.40000000  0.20000000       0.014
   0.46666667  0.46666667  0.20000000       0.007
   0.26666667  0.26666667  0.26666667       0.002
   0.33333333  0.26666667  0.26666667       0.007
   0.40000000  0.26666667  0.26666667       0.007
   0.46666667  0.26666667  0.26666667       0.007
   0.33333333  0.33333333  0.26666667       0.007
   0.40000000  0.33333333  0.26666667       0.014
   0.46666667  0.33333333  0.26666667       0.014
   0.40000000  0.40000000  0.26666667       0.007
   0.46666667  0.40000000  0.26666667       0.014
   0.46666667  0.46666667  0.26666667       0.007
   0.33333333  0.33333333  0.33333333       0.002
   0.40000000  0.33333333  0.33333333       0.007
   0.46666667  0.33333333  0.33333333       0.007
   0.40000000  0.40000000  0.33333333       0.007
   0.46666667  0.40000000  0.33333333       0.014
   0.46666667  0.46666667  0.33333333       0.007
   0.40000000  0.40000000  0.40000000       0.002
   0.46666667  0.40000000  0.40000000       0.007
   0.46666667  0.46666667  0.40000000       0.007
   0.46666667  0.46666667  0.46666667       0.002
 
 position of ions in fractional coordinates (direct lattice) 
   0.00000000  0.00000000  0.00000000
   0.50000000  0.50000000  0.50000000
 
 position of ions in cartesian coordinates  (Angst):
   0.00000000  0.00000000  0.00000000
   1.43151775  1.43151775  1.43151775
 


--------------------------------------------------------------------------------------------------------


 k-point   1 :   0.0000 0.0000 0.0000  plane waves:     895
 k-point   2 :   0.0667 0.0000 0.0000  plane waves:     888
 k-point   3 :   0.1333 0.0000 0.0000  plane waves:     892
 k-point   4 :   0.2000-0.0000 0.0000  plane waves:     880
 k-point   5 :   0.2667 0.0000 0.0000  plane waves:     876
 k-point   6 :   0.3333 0.0000 0.0000  plane waves:     868
 k-point   7 :   0.4000 0.0000 0.0000  plane waves:     872
 k-point   8 :   0.4667-0.0000 0.0000  plane waves:     876
 k-point   9 :   0.0667 0.0667 0.0000  plane waves:     887
 k-point  10 :   0.1333 0.0667 0.0000  plane waves:     886
 k-point  11 :   0.2000 0.0667 0.0000  plane waves:     880
 k-point  12 :   0.2667 0.0667 0.0000  plane waves:     878
 k-point  13 :   0.3333 0.0667 0.0000  plane waves:     875
 k-point  14 :   0.4000 0.0667 0.0000  plane waves:     873
 k-point  15 :   0.4667 0.0667 0.0000  plane waves:     874
 k-point  16 :   0.1333 0.1333 0.0000  plane waves:     873
 k-point  17 :   0.2000 0.1333 0.0000  plane waves:     878
 k-point  18 :   0.2667 0.1333 0.0000  plane waves:     881
 k-point  19 :   0.3333 0.1333 0.0000  plane waves:     872
 k-point  20 :   0.4000 0.1333 0.0000  plane waves:     877
 k-point  21 :   0.4667 0.1333 0.0000  plane waves:     873
 k-point  22 :   0.2000 0.2000 0.0000  plane waves:     885
 k-point  23 :   0.2667 0.2000 0.0000  plane waves:     879
 k-point  24 :   0.3333 0.2000 0.0000  plane waves:     882
 k-point  25 :   0.4000 0.2000 0.0000  plane waves:     881
 k-point  26 :   0.4667 0.2000 0.0000  plane waves:     876
 k-point  27 :   0.2667 0.2667 0.0000  plane waves:     876
 k-point  28 :   0.3333 0.2667 0.0000  plane waves:     878
 k-point  29 :   0.4000 0.2667 0.0000  plane waves:     878
 k-point  30 :   0.4667 0.2667 0.0000  plane waves:     883
 k-point  31 :   0.3333 0.3333 0.0000  plane waves:     884
 k-point  32 :   0.4000 0.3333 0.0000  plane waves:     879
 k-point  33 :   0.4667 0.3333 0.0000  plane waves:     885
 k-point  34 :   0.4000 0.4000 0.0000  plane waves:     878
 k-point  35 :   0.4667 0.4000 0.0000  plane waves:     881
 k-point  36 :   0.4667 0.4667 0.0000  plane waves:     880
 k-point  37 :   0.0667 0.0667 0.0667  plane waves:     892
 k-point  38 :   0.1333 0.0667 0.0667  plane waves:     882
 k-point  39 :   0.2000 0.0667 0.0667  plane waves:     882
 k-point  40 :   0.2667 0.0667 0.0667  plane waves:     877
 k-point  41 :   0.3333 0.0667 0.0667  plane waves:     875
 k-point  42 :   0.4000 0.0667 0.0667  plane waves:     871
 k-point  43 :   0.4667 0.0667 0.0667  plane waves:     873
 k-point  44 :   0.1333 0.1333 0.0667  plane waves:     877
 k-point  45 :   0.2000 0.1333 0.0667  plane waves:     879
 k-point  46 :   0.2667 0.1333 0.0667  plane waves:     878
 k-point  47 :   0.3333 0.1333 0.0667  plane waves:     875
 k-point  48 :   0.4000 0.1333 0.0667  plane waves:     874
 k-point  49 :   0.4667 0.1333 0.0667  plane waves:     872
 k-point  50 :   0.2000 0.2000 0.0667  plane waves:     882
 k-point  51 :   0.2667 0.2000 0.0667  plane waves:     882
 k-point  52 :   0.3333 0.2000 0.0667  plane waves:     883
 k-point  53 :   0.4000 0.2000 0.0667  plane waves:     877
 k-point  54 :   0.4667 0.2000 0.0667  plane waves:     877
 k-point  55 :   0.2667 0.2667 0.0667  plane waves:     882
 k-point  56 :   0.3333 0.2667 0.0667  plane waves:     878
 k-point  57 :   0.4000 0.2667 0.0667  plane waves:     879
 k-point  58 :   0.4667 0.2667 0.0667  plane waves:     883
 k-point  59 :   0.3333 0.3333 0.0667  plane waves:     875
 k-point  60 :   0.4000 0.3333 0.0667  plane waves:     880
 k-point  61 :   0.4667 0.3333 0.0667  plane waves:     888
 k-point  62 :   0.4000 0.4000 0.0667  plane waves:     884
 k-point  63 :   0.4667 0.4000 0.0667  plane waves:     882
 k-point  64 :   0.4667 0.4667 0.0667  plane waves:     876
 k-point  65 :   0.1333 0.1333 0.1333  plane waves:     883
 k-point  66 :   0.2000 0.1333 0.1333  plane waves:     882
 k-point  67 :   0.2667 0.1333 0.1333  plane waves:     880
 k-point  68 :   0.3333 0.1333 0.1333  plane waves:     883
 k-point  69 :   0.4000 0.1333 0.1333  plane waves:     876
 k-point  70 :   0.4667 0.1333 0.1333  plane waves:     878
 k-point  71 :   0.2000 0.2000 0.1333  plane waves:     883
 k-point  72 :   0.2667 0.2000 0.1333  plane waves:     879
 k-point  73 :   0.3333 0.2000 0.1333  plane waves:     882
 k-point  74 :   0.4000 0.2000 0.1333  plane waves:     887
 k-point  75 :   0.4667 0.2000 0.1333  plane waves:     884
 k-point  76 :   0.2667 0.2667 0.1333  plane waves:     880
 k-point  77 :   0.3333 0.2667 0.1333  plane waves:     883
 k-point  78 :   0.4000 0.2667 0.1333  plane waves:     887
 k-point  79 :   0.4667 0.2667 0.1333  plane waves:     886
 k-point  80 :   0.3333 0.3333 0.1333  plane waves:     882
 k-point  81 :   0.4000 0.3333 0.1333  plane waves:     889
 k-point  82 :   0.4667 0.3333 0.1333  plane waves:     889
 k-point  83 :   0.4000 0.4000 0.1333  plane waves:     888
 k-point  84 :   0.4667 0.4000 0.1333  plane waves:     885
 k-point  85 :   0.4667 0.4667 0.1333  plane waves:     880
 k-point  86 :   0.2000 0.2000 0.2000  plane waves:     883
 k-point  87 :   0.2667 0.2000 0.2000  plane waves:     887
 k-point  88 :   0.3333 0.2000 0.2000  plane waves:     884
 k-point  89 :   0.4000 0.2000 0.2000  plane waves:     886
 k-point  90 :   0.4667 0.2000 0.2000  plane waves:     888
 k-point  91 :   0.2667 0.2667 0.2000  plane waves:     881
 k-point  92 :   0.3333 0.2667 0.2000  plane waves:     885
 k-point  93 :   0.4000 0.2667 0.2000  plane waves:     890
 k-point  94 :   0.4667 0.2667 0.2000  plane waves:     888
 k-point  95 :   0.3333 0.3333 0.2000  plane waves:     884
 k-point  96 :   0.4000 0.3333 0.2000  plane waves:     887
 k-point  97 :   0.4667 0.3333 0.2000  plane waves:     883
 k-point  98 :   0.4000 0.4000 0.2000  plane waves:     884
 k-point  99 :   0.4667 0.4000 0.2000  plane waves:     889
 k-point 100 :   0.4667 0.4667 0.2000  plane waves:     883
 k-point 101 :   0.2667 0.2667 0.2667  plane waves:     889
 k-point 102 :   0.3333 0.2667 0.2667  plane waves:     888
 k-point 103 :   0.4000 0.2667 0.2667  plane waves:     888
 k-point 104 :   0.4667 0.2667 0.2667  plane waves:     887
 k-point 105 :   0.3333 0.3333 0.2667  plane waves:     890
 k-point 106 :   0.4000 0.3333 0.2667  plane waves:     891
 k-point 107 :   0.4667 0.3333 0.2667  plane waves:     891
 k-point 108 :   0.4000 0.4000 0.2667  plane waves:     888
 k-point 109 :   0.4667 0.4000 0.2667  plane waves:     892
 k-point 110 :   0.4667 0.4667 0.2667  plane waves:     893
 k-point 111 :   0.3333 0.3333 0.3333  plane waves:     892
 k-point 112 :   0.4000 0.3333 0.3333  plane waves:     895
 k-point 113 :   0.4667 0.3333 0.3333  plane waves:     894
 k-point 114 :   0.4000 0.4000 0.3333  plane waves:     901
 k-point 115 :   0.4667 0.4000 0.3333  plane waves:     899
 k-point 116 :   0.4667 0.4667 0.3333  plane waves:     895
 k-point 117 :   0.4000 0.4000 0.4000  plane waves:     904
 k-point 118 :   0.4667 0.4000 0.4000  plane waves:     894
 k-point 119 :   0.4667 0.4667 0.4000  plane waves:     894
 k-point 120 :   0.4667 0.4667 0.4667  plane waves:     912

 maximum and minimum number of plane-waves per node :       912      868

 maximum number of plane-waves:       912
 maximum index in each direction: 
   IXMAX=    5   IYMAX=    5   IZMAX=    5
   IXMIN=   -6   IYMIN=   -6   IZMIN=   -6


 serial   3D FFT for wavefunctions
 parallel 3D FFT for charge:
    minimum data exchange during FFTs selected (reduces bandwidth)


 total amount of memory used by VASP MPI-rank0    71407. kBytes
=======================================================================

   base      :      30000. kBytes
   nonl-proj :      15788. kBytes
   fftplans  :       4177. kBytes
   grid      :       3179. kBytes
   one-center:         62. kBytes
   wavefun   :      18201. kBytes
 
     INWAV:  cpu time    0.0000: real time    0.0007
 Broyden mixing: mesh for mixing (old mesh)
   NGX = 11   NGY = 11   NGZ = 11
  (NGX  = 48   NGY  = 48   NGZ  = 48)
  gives a total of   1331 points

 initial charge density was supplied:
 charge density of overlapping atoms calculated
 number of electron      16.0000000 magnetization      10.0000000
 keeping initial charge density in first step


--------------------------------------------------------------------------------------------------------


 Maximum index for augmentation-charges        40769 (set IRDMAX)


--------------------------------------------------------------------------------------------------------


 First call to EWALD:  gamma=   0.619
 Maximum number of real-space cells 3x 3x 3
 Maximum number of reciprocal cells 3x 3x 3

    FEWALD:  cpu time    0.0030: real time    0.0035


--------------------------------------- Iteration      1(   1)  ---------------------------------------


    POTLOK:  cpu time    0.0790: real time    0.0839
    SETDIJ:  cpu time    1.6308: real time    1.6310
     EDDAV:  cpu time    6.2420: real time    6.2474
       DOS:  cpu time    0.0090: real time    0.0102
    --------------------------------------------
      LOOP:  cpu time    7.9618: real time    7.9728

 eigenvalue-minimisations  : 10352
 total energy-change (2. order) : 0.9070986E+02  (-0.9083164E+03)
 number of electron      16.0000000 magnetization      10.0000000
 augmentation part       16.0000000 magnetization      10.0000000

 Free energy of the ion-electron system (eV)
  ---------------------------------------------------
  alpha Z        PSCENC =       117.79976220
  Ewald energy   TEWEN  =     -1171.43779597
  -Hartree energ DENC   =      -228.04061712
  -exchange      EXHF   =         0.00000000
  -V(xc)+E(xc)   XCENC  =        14.27161833
  PAW double counting   =      1103.49540010    -1119.11610375
  entropy T*S    EENTRO =        -0.00327335
  eigenvalues    EBANDS =       185.11212675
  atomic energy  EATOM  =      1188.62874684
  Solvation  Ediel_sol  =         0.00000000
  ---------------------------------------------------
  free energy    TOTEN  =        90.70986404 eV

  energy without entropy =       90.71313739  energy(sigma->0) =       90.71095516


--------------------------------------------------------------------------------------------------------




--------------------------------------- Iteration      1(   2)  ---------------------------------------


     EDDAV:  cpu time    5.9321: real time    5.9536
       DOS:  cpu time    0.0100: real time    0.0104
    --------------------------------------------
      LOOP:  cpu time    5.9411: real time    5.9639

 eigenvalue-minimisations  :  9680
 total energy-change (2. order) :-0.1021828E+03  (-0.9127197E+02)
 number of electron      16.0000000 magnetization      10.0000000
 augmentation part       16.0000000 magnetization      10.0000000

 Free energy of the ion-electron system (eV)
  ---------------------------------------------------
  alpha Z        PSCENC =       117.79976220
  Ewald energy   TEWEN  =     -1171.43779597
  -Hartree energ DENC   =      -228.04061712
  -exchange      EXHF   =         0.00000000
  -V(xc)+E(xc)   XCENC  =        14.27161833
  PAW double counting   =      1103.49540010    -1119.11610375
  entropy T*S    EENTRO =         0.00019075
  eigenvalues    EBANDS =        82.92586694
  atomic energy  EATOM  =      1188.62874684
  Solvation  Ediel_sol  =         0.00000000
  ---------------------------------------------------
  free energy    TOTEN  =       -11.47293167 eV

  energy without entropy =      -11.47312242  energy(sigma->0) =      -11.47299525


--------------------------------------------------------------------------------------------------------




--------------------------------------- Iteration      1(   3)  ---------------------------------------


     EDDAV:  cpu time    6.4510: real time    6.4736
       DOS:  cpu time    0.0110: real time    0.0110
    --------------------------------------------
      LOOP:  cpu time    6.4630: real time    6.4847

 eigenvalue-minimisations  : 10864
 total energy-change (2. order) :-0.4571845E+01  (-0.4407660E+01)
 number of electron      16.0000000 magnetization      10.0000000
 augmentation part       16.0000000 magnetization      10.0000000

 Free energy of the ion-electron system (eV)
  ---------------------------------------------------
  alpha Z        PSCENC =       117.79976220
  Ewald energy   TEWEN  =     -1171.43779597
  -Hartree energ DENC   =      -228.04061712
  -exchange      EXHF   =         0.00000000
  -V(xc)+E(xc)   XCENC  =        14.27161833
  PAW double counting   =      1103.49540010    -1119.11610375
  entropy T*S    EENTRO =         0.00129417
  eigenvalues    EBANDS =        78.35291860
  atomic energy  EATOM  =      1188.62874684
  Solvation  Ediel_sol  =         0.00000000
  ---------------------------------------------------
  free energy    TOTEN  =       -16.04477659 eV

  energy without entropy =      -16.04607076  energy(sigma->0) =      -16.04520798


--------------------------------------------------------------------------------------------------------




--------------------------------------- Iteration      1(   4)  ---------------------------------------


     EDDAV:  cpu time    6.2710: real time    6.2932
       DOS:  cpu time    0.0100: real time    0.0112
    --------------------------------------------
      LOOP:  cpu time    6.2800: real time    6.3043

 eigenvalue-minimisations  : 10472
 total energy-change (2. order) :-0.4093557E-01  (-0.4091641E-01)
 number of electron      16.0000000 magnetization      10.0000000
 augmentation part       16.0000000 magnetization      10.0000000

 Free energy of the ion-electron system (eV)
  ---------------------------------------------------
  alpha Z        PSCENC =       117.79976220
  Ewald energy   TEWEN  =     -1171.43779597
  -Hartree energ DENC   =      -228.04061712
  -exchange      EXHF   =         0.00000000
  -V(xc)+E(xc)   XCENC  =        14.27161833
  PAW double counting   =      1103.49540010    -1119.11610375
  entropy T*S    EENTRO =         0.00134824
  eigenvalues    EBANDS =        78.31192896
  atomic energy  EATOM  =      1188.62874684
  Solvation  Ediel_sol  =         0.00000000
  ---------------------------------------------------
  free energy    TOTEN  =       -16.08571216 eV

  energy without entropy =      -16.08706040  energy(sigma->0) =      -16.08616158


--------------------------------------------------------------------------------------------------------




--------------------------------------- Iteration      1(   5)  ---------------------------------------


     EDDAV:  cpu time    6.4110: real time    6.4325
       DOS:  cpu time    0.0100: real time    0.0111
    CHARGE:  cpu time    0.5039: real time    0.5042
    MIXING:  cpu time    0.0020: real time    0.0027
    --------------------------------------------
      LOOP:  cpu time    6.9279: real time    6.9505

 eigenvalue-minimisations  : 10768
 total energy-change (2. order) :-0.4365452E-03  (-0.4365394E-03)
 number of electron      16.0000000 magnetization       4.3730813
 augmentation part        7.3741481 magnetization       2.7047080

 Broyden mixing:
  rms(total) = 0.19635E+01    rms(broyden)= 0.19635E+01
  rms(prec ) = 0.35435E+01
  weight for this iteration     100.00

 Free energy of the ion-electron system (eV)
  ---------------------------------------------------
  alpha Z        PSCENC =       117.79976220
  Ewald energy   TEWEN  =     -1171.43779597
  -Hartree energ DENC   =      -228.04061712
  -exchange      EXHF   =         0.00000000
  -V(xc)+E(xc)   XCENC  =        14.27161833
  PAW double counting   =      1103.49540010    -1119.11610375
  entropy T*S    EENTRO =         0.00134816
  eigenvalues    EBANDS =        78.31149249
  atomic energy  EATOM  =      1188.62874684
  Solvation  Ediel_sol  =         0.00000000
  ---------------------------------------------------
  free energy    TOTEN  =       -16.08614871 eV

  energy without entropy =      -16.08749687  energy(sigma->0) =      -16.08659809


--------------------------------------------------------------------------------------------------------




--------------------------------------- Iteration      1(   6)  ---------------------------------------


    POTLOK:  cpu time    0.0800: real time    0.0961
    SETDIJ:  cpu time    1.6218: real time    1.6213
     EDDAV:  cpu time    6.3380: real time    6.3851
       DOS:  cpu time    0.0110: real time    0.0115
    CHARGE:  cpu time    0.4669: real time    0.4677
    MIXING:  cpu time    0.0030: real time    0.0028
    --------------------------------------------
      LOOP:  cpu time    8.5197: real time    8.5846

 eigenvalue-minimisations  : 10640
 total energy-change (2. order) :-0.4747218E+00  (-0.5203083E+00)
 number of electron      16.0000000 magnetization       4.6257827
 augmentation part        8.4933308 magnetization       3.7958998

 Broyden mixing:
  rms(total) = 0.61767E+00    rms(broyden)= 0.61764E+00
  rms(prec ) = 0.69844E+00
  weight for this iteration     100.00

 eigenvalues of (default mixing * dielectric matrix)
  average eigenvalue GAMMA=   0.8756
  0.8756

 Free energy of the ion-electron system (eV)
  ---------------------------------------------------
  alpha Z        PSCENC =       117.79976220
  Ewald energy   TEWEN  =     -1171.43779597
  -Hartree energ DENC   =      -196.89950499
  -exchange      EXHF   =         0.00000000
  -V(xc)+E(xc)   XCENC  =         8.22676646
  PAW double counting   =      1215.90718570    -1228.08340728
  entropy T*S    EENTRO =        -0.00026315
  eigenvalues    EBANDS =        49.29763964
  atomic energy  EATOM  =      1188.62874684
  Solvation  Ediel_sol  =         0.00000000
  ---------------------------------------------------
  free energy    TOTEN  =       -16.56087053 eV

  energy without entropy =      -16.56060738  energy(sigma->0) =      -16.56078282


--------------------------------------------------------------------------------------------------------




--------------------------------------- Iteration      1(   7)  ---------------------------------------


    POTLOK:  cpu time    0.0800: real time    0.0963
    SETDIJ:  cpu time    1.6228: real time    1.6234
     EDDAV:  cpu time    6.7910: real time    6.7976
       DOS:  cpu time    0.0100: real time    0.0110
    CHARGE:  cpu time    0.4769: real time    0.4768
    MIXING:  cpu time    0.0030: real time    0.0028
    --------------------------------------------
      LOOP:  cpu time    8.9836: real time    9.0079

 eigenvalue-minimisations  : 11424
 total energy-change (2. order) : 0.6347456E-01  (-0.3890528E-01)
 number of electron      16.0000000 magnetization       4.4925203
 augmentation part        8.2510766 magnetization       3.7101864

 Broyden mixing:
  rms(total) = 0.44330E+00    rms(broyden)= 0.44329E+00
  rms(prec ) = 0.52722E+00
  weight for this iteration     100.00

 eigenvalues of (default mixing * dielectric matrix)
  average eigenvalue GAMMA=   0.7723
  1.0302  0.5143

 Free energy of the ion-electron system (eV)
  ---------------------------------------------------
  alpha Z        PSCENC =       117.79976220
  Ewald energy   TEWEN  =     -1171.43779597
  -Hartree energ DENC   =      -199.54728313
  -exchange      EXHF   =         0.00000000
  -V(xc)+E(xc)   XCENC  =         8.86375398
  PAW double counting   =      1292.68502429    -1307.91550953
  entropy T*S    EENTRO =        -0.00220044
  eigenvalues    EBANDS =        54.42810577
  atomic energy  EATOM  =      1188.62874684
  Solvation  Ediel_sol  =         0.00000000
  ---------------------------------------------------
  free energy    TOTEN  =       -16.49739598 eV

  energy without entropy =      -16.49519554  energy(sigma->0) =      -16.49666250


--------------------------------------------------------------------------------------------------------




--------------------------------------- Iteration      1(   8)  ---------------------------------------


    POTLOK:  cpu time    0.0800: real time    0.0957
    SETDIJ:  cpu time    1.6158: real time    1.6177
     EDDAV:  cpu time    7.3699: real time    7.3763
       DOS:  cpu time    0.0110: real time    0.0114
    CHARGE:  cpu time    0.4769: real time    0.4776
    MIXING:  cpu time    0.0020: real time    0.0029
    --------------------------------------------
      LOOP:  cpu time    9.5565: real time    9.5815

 eigenvalue-minimisations  : 12728
 total energy-change (2. order) : 0.1732075E-01  (-0.1017477E-02)
 number of electron      16.0000000 magnetization       4.4150551
 augmentation part        8.2797258 magnetization       3.6336578

 Broyden mixing:
  rms(total) = 0.16019E+00    rms(broyden)= 0.16019E+00
  rms(prec ) = 0.23128E+00
  weight for this iteration     100.00

 eigenvalues of (default mixing * dielectric matrix)
  average eigenvalue GAMMA=   1.1043
  1.8636  0.8747  0.5746

 Free energy of the ion-electron system (eV)
  ---------------------------------------------------
  alpha Z        PSCENC =       117.79976220
  Ewald energy   TEWEN  =     -1171.43779597
  -Hartree energ DENC   =      -197.78943996
  -exchange      EXHF   =         0.00000000
  -V(xc)+E(xc)   XCENC  =         8.62743063
  PAW double counting   =      1330.86958542    -1346.91974850
  entropy T*S    EENTRO =        -0.00250491
  eigenvalues    EBANDS =        53.74388903
  atomic energy  EATOM  =      1188.62874684
  Solvation  Ediel_sol  =         0.00000000
  ---------------------------------------------------
  free energy    TOTEN  =       -16.48007523 eV

  energy without entropy =      -16.47757031  energy(sigma->0) =      -16.47924025


--------------------------------------------------------------------------------------------------------




--------------------------------------- Iteration      1(   9)  ---------------------------------------


    POTLOK:  cpu time    0.0800: real time    0.0960
    SETDIJ:  cpu time    1.6188: real time    1.6185
     EDDAV:  cpu time    8.0198: real time    8.0272
       DOS:  cpu time    0.0110: real time    0.0116
    CHARGE:  cpu time    0.4679: real time    0.4683
    MIXING:  cpu time    0.0020: real time    0.0029
    --------------------------------------------
      LOOP:  cpu time   10.1994: real time   10.2246

 eigenvalue-minimisations  : 14288
 total energy-change (2. order) : 0.1185458E-01  (-0.3108676E-03)
 number of electron      16.0000000 magnetization       4.4602933
 augmentation part        8.3211205 magnetization       3.6774725

 Broyden mixing:
  rms(total) = 0.42910E-01    rms(broyden)= 0.42909E-01
  rms(prec ) = 0.50616E-01
  weight for this iteration     100.00

 eigenvalues of (default mixing * dielectric matrix)
  average eigenvalue GAMMA=   1.1877
  2.3361  1.0621  0.6763  0.6763

 Free energy of the ion-electron system (eV)
  ---------------------------------------------------
  alpha Z        PSCENC =       117.79976220
  Ewald energy   TEWEN  =     -1171.43779597
  -Hartree energ DENC   =      -195.34113574
  -exchange      EXHF   =         0.00000000
  -V(xc)+E(xc)   XCENC  =         8.47584487
  PAW double counting   =      1391.15529328    -1408.56926657
  entropy T*S    EENTRO =        -0.00286292
  eigenvalues    EBANDS =        52.82319336
  atomic energy  EATOM  =      1188.62874684
  Solvation  Ediel_sol  =         0.00000000
  ---------------------------------------------------
  free energy    TOTEN  =       -16.46822064 eV

  energy without entropy =      -16.46535772  energy(sigma->0) =      -16.46726633


--------------------------------------------------------------------------------------------------------




--------------------------------------- Iteration      1(  10)  ---------------------------------------


    POTLOK:  cpu time    0.0800: real time    0.0958
    SETDIJ:  cpu time    1.6168: real time    1.6168
     EDDAV:  cpu time    6.7890: real time    6.7957
       DOS:  cpu time    0.0110: real time    0.0117
    CHARGE:  cpu time    0.4679: real time    0.4677
    MIXING:  cpu time    0.0010: real time    0.0027
    --------------------------------------------
      LOOP:  cpu time    8.9656: real time    8.9912

 eigenvalue-minimisations  : 11636
 total energy-change (2. order) : 0.4854454E-03  (-0.1829849E-03)
 number of electron      16.0000000 magnetization       4.4729750
 augmentation part        8.3074386 magnetization       3.6841132

 Broyden mixing:
  rms(total) = 0.64890E-02    rms(broyden)= 0.64887E-02
  rms(prec ) = 0.88164E-02
  weight for this iteration     100.00

 eigenvalues of (default mixing * dielectric matrix)
  average eigenvalue GAMMA=   1.1428
  2.4057  1.1307  0.6346  0.7714  0.7714

 Free energy of the ion-electron system (eV)
  ---------------------------------------------------
  alpha Z        PSCENC =       117.79976220
  Ewald energy   TEWEN  =     -1171.43779597
  -Hartree energ DENC   =      -195.21168105
  -exchange      EXHF   =         0.00000000
  -V(xc)+E(xc)   XCENC  =         8.51515432
  PAW double counting   =      1409.14487569    -1427.05490080
  entropy T*S    EENTRO =        -0.00277588
  eigenvalues    EBANDS =        53.15087946
  atomic energy  EATOM  =      1188.62874684
  Solvation  Ediel_sol  =         0.00000000
  ---------------------------------------------------
  free energy    TOTEN  =       -16.46773520 eV

  energy without entropy =      -16.46495931  energy(sigma->0) =      -16.46680990


--------------------------------------------------------------------------------------------------------




--------------------------------------- Iteration      1(  11)  ---------------------------------------


    POTLOK:  cpu time    0.0820: real time    0.0967
    SETDIJ:  cpu time    1.6148: real time    1.6154
     EDDAV:  cpu time    6.8690: real time    6.8751
       DOS:  cpu time    0.0110: real time    0.0113
    CHARGE:  cpu time    0.4659: real time    0.4670
    MIXING:  cpu time    0.0030: real time    0.0030
    --------------------------------------------
      LOOP:  cpu time    9.0456: real time    9.0677

 eigenvalue-minimisations  : 11804
 total energy-change (2. order) :-0.2754793E-04  (-0.6901252E-05)
 number of electron      16.0000000 magnetization       4.4706339
 augmentation part        8.3090797 magnetization       3.6819001

 Broyden mixing:
  rms(total) = 0.46209E-02    rms(broyden)= 0.46209E-02
  rms(prec ) = 0.50361E-02
  weight for this iteration     100.00

 eigenvalues of (default mixing * dielectric matrix)
  average eigenvalue GAMMA=   1.1195
  2.3966  1.2782  1.0140  0.6995  0.6995  0.6292

 Free energy of the ion-electron system (eV)
  ---------------------------------------------------
  alpha Z        PSCENC =       117.79976220
  Ewald energy   TEWEN  =     -1171.43779597
  -Hartree energ DENC   =      -195.16834271
  -exchange      EXHF   =         0.00000000
  -V(xc)+E(xc)   XCENC  =         8.52890150
  PAW double counting   =      1411.14735984    -1429.07582866
  entropy T*S    EENTRO =        -0.00277604
  eigenvalues    EBANDS =        53.11221025
  atomic energy  EATOM  =      1188.62874684
  Solvation  Ediel_sol  =         0.00000000
  ---------------------------------------------------
  free energy    TOTEN  =       -16.46776274 eV

  energy without entropy =      -16.46498670  energy(sigma->0) =      -16.46683740


--------------------------------------------------------------------------------------------------------




--------------------------------------- Iteration      1(  12)  ---------------------------------------


    POTLOK:  cpu time    0.0800: real time    0.0959
    SETDIJ:  cpu time    1.6168: real time    1.6172
     EDDAV:  cpu time    6.0021: real time    6.0082
       DOS:  cpu time    0.0110: real time    0.0118
    CHARGE:  cpu time    0.4679: real time    0.4677
    MIXING:  cpu time    0.0020: real time    0.0030
    --------------------------------------------
      LOOP:  cpu time    8.1798: real time    8.2037

 eigenvalue-minimisations  :  9812
 total energy-change (2. order) : 0.9886147E-05  (-0.2605798E-06)
 number of electron      16.0000000 magnetization       4.4694912
 augmentation part        8.3093251 magnetization       3.6808207

 Broyden mixing:
  rms(total) = 0.18142E-02    rms(broyden)= 0.18141E-02
  rms(prec ) = 0.22153E-02
  weight for this iteration     100.00

 eigenvalues of (default mixing * dielectric matrix)
  average eigenvalue GAMMA=   1.2420
  2.4434  2.3004  1.0946  0.8467  0.6691  0.6691  0.6707

 Free energy of the ion-electron system (eV)
  ---------------------------------------------------
  alpha Z        PSCENC =       117.79976220
  Ewald energy   TEWEN  =     -1171.43779597
  -Hartree energ DENC   =      -195.17870400
  -exchange      EXHF   =         0.00000000
  -V(xc)+E(xc)   XCENC  =         8.52697213
  PAW double counting   =      1411.36339577    -1429.27226735
  entropy T*S    EENTRO =        -0.00277111
  eigenvalues    EBANDS =        53.10490863
  atomic energy  EATOM  =      1188.62874684
  Solvation  Ediel_sol  =         0.00000000
  ---------------------------------------------------
  free energy    TOTEN  =       -16.46775286 eV

  energy without entropy =      -16.46498175  energy(sigma->0) =      -16.46682915


--------------------------------------------------------------------------------------------------------




--------------------------------------- Iteration      1(  13)  ---------------------------------------


    POTLOK:  cpu time    0.0800: real time    0.0957
    SETDIJ:  cpu time    1.6158: real time    1.6182
     EDDAV:  cpu time    5.2172: real time    5.2220
       DOS:  cpu time    0.0110: real time    0.0118
    CHARGE:  cpu time    0.4669: real time    0.4672
    MIXING:  cpu time    0.0030: real time    0.0031
    --------------------------------------------
      LOOP:  cpu time    7.3939: real time    7.4180

 eigenvalue-minimisations  :  7908
 total energy-change (2. order) :-0.1369781E-05  (-0.1101483E-06)
 number of electron      16.0000000 magnetization       4.4687842
 augmentation part        8.3095934 magnetization       3.6801432

 Broyden mixing:
  rms(total) = 0.10041E-02    rms(broyden)= 0.10041E-02
  rms(prec ) = 0.11854E-02
  weight for this iteration     100.00

 eigenvalues of (default mixing * dielectric matrix)
  average eigenvalue GAMMA=   1.2419
  2.6448  2.3648  1.1671  1.0680  0.7833  0.6656  0.6656  0.5763

 Free energy of the ion-electron system (eV)
  ---------------------------------------------------
  alpha Z        PSCENC =       117.79976220
  Ewald energy   TEWEN  =     -1171.43779597
  -Hartree energ DENC   =      -195.18405323
  -exchange      EXHF   =         0.00000000
  -V(xc)+E(xc)   XCENC  =         8.52732283
  PAW double counting   =      1412.01168853    -1429.90907385
  entropy T*S    EENTRO =        -0.00277438
  eigenvalues    EBANDS =        53.09842281
  atomic energy  EATOM  =      1188.62874684
  Solvation  Ediel_sol  =         0.00000000
  ---------------------------------------------------
  free energy    TOTEN  =       -16.46775423 eV

  energy without entropy =      -16.46497985  energy(sigma->0) =      -16.46682943


--------------------------------------------------------------------------------------------------------




--------------------------------------- Iteration      1(  14)  ---------------------------------------


    POTLOK:  cpu time    0.0790: real time    0.0957
    SETDIJ:  cpu time    1.6158: real time    1.6162
     EDDAV:  cpu time    4.1784: real time    4.1862
       DOS:  cpu time    0.0120: real time    0.0119
    --------------------------------------------
      LOOP:  cpu time    5.8841: real time    5.9099

 eigenvalue-minimisations  :  5304
 total energy-change (2. order) : 0.7104336E-06  (-0.2851778E-07)
 number of electron      16.0000000 magnetization       4.4687842
 augmentation part        8.3095934 magnetization       3.6801432

 Free energy of the ion-electron system (eV)
  ---------------------------------------------------
  alpha Z        PSCENC =       117.79976220
  Ewald energy   TEWEN  =     -1171.43779597
  -Hartree energ DENC   =      -195.18831900
  -exchange      EXHF   =         0.00000000
  -V(xc)+E(xc)   XCENC  =         8.52616785
  PAW double counting   =      1412.00986532    -1429.90630205
  entropy T*S    EENTRO =        -0.00277491
  eigenvalues    EBANDS =        53.10289620
  atomic energy  EATOM  =      1188.62874684
  Solvation  Ediel_sol  =         0.00000000
  ---------------------------------------------------
  free energy    TOTEN  =       -16.46775352 eV

  energy without entropy =      -16.46497860  energy(sigma->0) =      -16.46682855


--------------------------------------------------------------------------------------------------------




 average (electrostatic) potential at core
  the test charge radii are     1.0103
  (the norm of the test charge is              1.0000)
       1 -43.6104       2 -43.6104
 
 
 
 E-fermi :   5.4698     XC(G=0): -12.9332     alpha+bet :-13.2097

 Fermi energy:         5.4697648083

 spin component 1

 k-point     1 :       0.0000    0.0000    0.0000
  band No.  band energies     occupation 
      1      -2.7433      1.00000
      2       0.8346      1.00000
      3       0.8346      1.00000
      4       3.2499      1.00000
      5       3.2499      1.00000
      6       3.2499      1.00000
      7       4.3998      1.00000
      8       4.3998      1.00000
      9       5.5522      0.18174
     10       5.5522      0.18174
     11       5.5522      0.18174
     12      15.2085      0.00000
     13      15.2085      0.00000
     14      15.2085      0.00000
     15      20.8149      0.00000
     16      20.8149      0.00000
     17      25.5410      0.00000
     18      30.2060      0.00000
     19      30.2060      0.00000
     20      30.2060      0.00000

 k-point     2 :       0.0667    0.0000    0.0000
  band No.  band energies     occupation 
      1      -2.6532      1.00000
      2       0.8723      1.00000
      3       0.8734      1.00000
      4       3.2493      1.00000
      5       3.2493      1.00000
      6       3.2740      1.00000
      7       4.3610      1.00000
      8       4.4151      1.00000
      9       5.4784      0.46331
     10       5.4784      0.46330
     11       5.5261      0.27169
     12      14.5437      0.00000
     13      15.3774      0.00000
     14      15.3774      0.00000
     15      20.8422      0.00000
     16      21.3152      0.00000
     17      25.8420      0.00000
     18      29.5673      0.00000
     19      30.1136      0.00000
     20      30.1136      0.00000

 k-point     3 :       0.1333    0.0000    0.0000
  band No.  band energies     occupation 
      1      -2.3864      1.00000
      2       0.9827      1.00000
      3       0.9840      1.00000
      4       3.2499      1.00000
      5       3.2499      1.00000
      6       3.3455      1.00000
      7       4.2460      1.00000
      8       4.4601      1.00000
      9       5.2751      1.02211
     10       5.2751      1.02211
     11       5.4491      0.58703
     12      13.0892      0.00000
     13      15.8651      0.00000
     14      15.8651      0.00000
     15      20.9257      0.00000
     16      22.1677      0.00000
     17      26.8624      0.00000
     18      28.3027      0.00000
     19      29.7116      0.00000
     20      29.7116      0.00000

 k-point     4 :       0.2000   -0.0000    0.0000
  band No.  band energies     occupation 
      1      -1.9539      1.00000
      2       1.1403      1.00000
      3       1.1655      1.00000
      4       3.2588      1.00000
      5       3.2588      1.00000
      6       3.4617      1.00000
      7       4.0592      1.00000
      8       4.5325      1.00000
[...]

 k-point   114 :       0.4000    0.4000    0.3333
  band No.  band energies     occupation 
      1       3.4091      1.00000
      2       3.5262      1.00000
      3       3.9779      1.00000
      4       4.0862      1.00000
      5       4.1363      1.00000
      6       4.3893      1.00000
      7       7.5916     -0.00000
      8       7.6413     -0.00000
      9       7.7017     -0.00000
     10       7.7305     -0.00000
     11      10.8054     -0.00000
     12      12.9003      0.00000
     13      14.5340      0.00000
     14      16.6633      0.00000
     15      17.3031      0.00000
     16      19.0053      0.00000
     17      20.0873      0.00000
     18      22.7343      0.00000
     19      36.3379      0.00000
     20      37.8638      0.00000

 k-point   115 :       0.4667    0.4000    0.3333
  band No.  band energies     occupation 
      1       3.4700      1.00000
      2       3.4876      1.00000
      3       3.9634      1.00000
      4       4.0049      1.00000
      5       4.3130      1.00000
      6       4.4206      1.00000
      7       7.6182     -0.00000
      8       7.6369     -0.00000
      9       7.7539     -0.00000
     10       7.7640     -0.00000
     11      11.4906      0.00000
     12      12.2590      0.00000
     13      15.1828      0.00000
     14      16.1686      0.00000
     15      17.3187      0.00000
     16      18.2302      0.00000
     17      20.5076      0.00000
     18      21.5096      0.00000
     19      37.1412      0.00000
     20      37.7650      0.00000

 k-point   116 :       0.4667    0.4667    0.3333
  band No.  band energies     occupation 
      1       3.4863      1.00000
      2       3.4881      1.00000
      3       3.9184      1.00000
      4       3.9369      1.00000
      5       4.4569      1.00000
      6       4.4982      1.00000
      7       7.6585     -0.00000
      8       7.6656     -0.00000
      9       7.7806     -0.00000
     10       7.7839     -0.00000
     11      12.0920      0.00000
     12      12.4641      0.00000
     13      14.8105      0.00000
     14      15.2514      0.00000
     15      18.0373      0.00000
     16      18.6856      0.00000
     17      19.6460      0.00000
     18      20.3197      0.00000
     19      37.8943      0.00000
     20      38.1616      0.00000

 k-point   117 :       0.4000    0.4000    0.4000
  band No.  band energies     occupation 
      1       3.6133      1.00000
      2       3.7779      1.00000
      3       3.9474      1.00000
      4       3.9475      1.00000
      5       4.1850      1.00000
      6       4.1851      1.00000
      7       7.6982     -0.00000
      8       7.6984     -0.00000
      9       7.7258     -0.00000
     10       7.7259     -0.00000
     11      11.5207      0.00000
     12      13.9991      0.00000
     13      13.9992      0.00000
     14      16.2810      0.00000
     15      17.6742      0.00000
     16      17.6742      0.00000
     17      19.0082      0.00000
     18      21.3670      0.00000
     19      38.5103      0.00000
     20      38.5103      0.00000

 k-point   118 :       0.4667    0.4000    0.4000
  band No.  band energies     occupation 
      1       3.6569      1.00000
      2       3.7355      1.00000
      3       3.9657      1.00000
      4       4.0432      1.00000
      5       4.1249      1.00000
      6       4.2338      1.00000
      7       7.7061     -0.00000
      8       7.7170     -0.00000
      9       7.7622     -0.00000
     10       7.7713     -0.00000
     11      12.2902      0.00000
     12      13.1417      0.00000
     13      15.1649      0.00000
     14      16.3917      0.00000
     15      16.5943      0.00000
     16      17.2531      0.00000
     17      19.2031      0.00000
     18      20.1582      0.00000
     19      39.1948      0.00000
     20      39.7731      0.00000

 k-point   119 :       0.4667    0.4667    0.4000
  band No.  band energies     occupation 
      1       3.7379      1.00000
      2       3.8045      1.00000
      3       3.9055      1.00000
      4       3.9685      1.00000
      5       4.1950      1.00000
      6       4.2359      1.00000
      7       7.7419     -0.00000
      8       7.7458     -0.00000
      9       7.7868     -0.00000
     10       7.7900     -0.00000
     11      13.0706      0.00000
     12      13.5997      0.00000
     13      14.9627      0.00000
     14      15.6296      0.00000
     15      16.8636      0.00000
     16      17.3468      0.00000
     17      18.4130      0.00000
     18      19.0069      0.00000
     19      40.3545      0.00000
     20      40.6507      0.00000

 k-point   120 :       0.4667    0.4667    0.4667
  band No.  band energies     occupation 
      1       3.8567      1.00000
      2       3.9460      1.00000
      3       3.9460      1.00000
      4       4.0532      1.00000
      5       4.0532      1.00000
      6       4.0582      1.00000
      7       7.7912     -0.00000
      8       7.7914     -0.00000
      9       7.7925     -0.00000
     10       7.7926     -0.00000
     11      14.0208      0.00000
     12      14.7964      0.00000
     13      14.7964      0.00000
     14      16.0477      0.00000
     15      16.0477      0.00000
     16      16.2239      0.00000
     17      17.6983      0.00000
     18      17.9884      0.00000
     19      42.8167      0.00000
     20      42.8211      0.00000


--------------------------------------------------------------------------------------------------------


 soft charge-density along one line, spin component           1
         0         1         2         3         4         5         6         7         8         9
 total charge-density along one line
 
 soft charge-density along one line, spin component           2
         0         1         2         3         4         5         6         7         8         9
 total charge-density along one line
 
 pseudopotential strength for first ion, spin component:           1
 -5.584  -0.000   0.000  -0.000   0.000  -6.116  -0.000   0.000
 -0.000  -5.584   0.000  -0.000   0.000  -0.000  -6.116   0.000
  0.000   0.000  -5.794   0.000   0.000   0.000   0.000  -6.318
 -0.000  -0.000   0.000  -5.584  -0.000  -0.000  -0.000   0.000
  0.000   0.000   0.000  -0.000  -5.794   0.000   0.000   0.000
 -6.116  -0.000   0.000  -0.000   0.000  -6.605  -0.000   0.000
 -0.000  -6.116   0.000  -0.000   0.000  -0.000  -6.605   0.000
  0.000   0.000  -6.318   0.000   0.000   0.000   0.000  -6.800
 -0.000  -0.000   0.000  -6.116  -0.000  -0.000  -0.000   0.000
  0.000   0.000   0.000  -0.000  -6.318   0.000   0.000   0.000
  0.000   0.000   0.000   0.000  -0.000   0.000   0.000   0.000
  0.000   0.000   0.000   0.000  -0.000   0.000   0.000   0.000
  0.000  -0.000   0.000   0.000   0.000   0.000  -0.000   0.000
  0.000  -0.000  -0.000  -0.000  -0.000  -0.000  -0.000  -0.000
 -0.000   0.000  -0.000  -0.000  -0.000  -0.000  -0.000  -0.000
  0.000  -0.000   0.000   0.000   0.000   0.000  -0.000   0.000
  0.000  -0.000  -0.000  -0.000  -0.000   0.000  -0.000  -0.000
 -0.000   0.000  -0.000  -0.000  -0.000  -0.000   0.000  -0.000
 pseudopotential strength for first ion, spin component:           2
 -4.151   0.000  -0.000   0.000   0.000  -4.726   0.000  -0.000
  0.000  -4.151  -0.000   0.000  -0.000   0.000  -4.726  -0.000
 -0.000  -0.000  -3.901  -0.000  -0.000  -0.000  -0.000  -4.485
  0.000   0.000  -0.000  -4.151   0.000   0.000   0.000  -0.000
  0.000  -0.000  -0.000   0.000  -3.901   0.000  -0.000  -0.000
 -4.726   0.000  -0.000   0.000   0.000  -5.258   0.000  -0.000
  0.000  -4.726  -0.000   0.000  -0.000   0.000  -5.258  -0.000
 -0.000  -0.000  -4.485  -0.000  -0.000  -0.000  -0.000  -5.025
  0.000   0.000  -0.000  -4.726   0.000   0.000   0.000  -0.000
  0.000  -0.000  -0.000   0.000  -4.485   0.000  -0.000  -0.000
 -0.000  -0.000  -0.000  -0.000   0.000  -0.000  -0.000  -0.000
 -0.000  -0.000  -0.000  -0.000   0.000  -0.000  -0.000  -0.000
  0.000  -0.000   0.000  -0.000   0.000   0.000  -0.000   0.000
 -0.000  -0.000  -0.000  -0.000  -0.000  -0.000  -0.000  -0.000
 -0.000  -0.000  -0.000  -0.000  -0.000  -0.000  -0.000  -0.000
  0.000  -0.000   0.000  -0.000   0.000   0.000  -0.000   0.000
 -0.000  -0.000  -0.000  -0.000  -0.000  -0.000  -0.000  -0.000
 -0.000  -0.000  -0.000  -0.000  -0.000  -0.000  -0.000  -0.000
 total augmentation occupancy for first ion, spin component:           1
  2.236   0.000  -0.000   0.000  -0.000  -1.245  -0.000   0.000  -0.000   0.000   0.000   0.000   0.000   0.000   0.000   0.000
  0.000   2.236   0.000   0.000  -0.000  -0.000  -1.245   0.000  -0.000   0.000   0.000   0.000   0.000   0.000   0.000   0.000
 -0.000   0.000   3.644   0.000   0.000   0.000   0.000  -2.376  -0.000   0.000  -0.000   0.000   0.000  -0.000   0.000   0.000
  0.000   0.000   0.000   2.236   0.000  -0.000  -0.000  -0.000  -1.245  -0.000   0.000  -0.000   0.000   0.000   0.000   0.000
 -0.000  -0.000  -0.000   0.000   3.644   0.000   0.000   0.000  -0.000  -2.376  -0.000  -0.000   0.000   0.000  -0.000   0.000
 -1.245  -0.000   0.000  -0.000   0.000   1.650   0.000  -0.000   0.000  -0.000   0.000  -0.000   0.000   0.000   0.000   0.000
 -0.000  -1.245  -0.000  -0.000   0.000   0.000   1.650   0.000   0.000  -0.000  -0.000   0.000   0.000   0.000   0.000   0.000
  0.000   0.000  -2.376  -0.000   0.000  -0.000   0.000   2.369   0.000   0.000  -0.000  -0.000   0.000   0.000  -0.000   0.000
 -0.000  -0.000  -0.000  -1.245  -0.000   0.000   0.000   0.000   1.650   0.000  -0.000  -0.000   0.000   0.000   0.000   0.000
  0.000   0.000  -0.000  -0.000  -2.376  -0.000  -0.000  -0.000   0.000   2.369   0.000  -0.000   0.000  -0.000  -0.000  -0.000
 -0.000   0.000   0.000   0.000  -0.000   0.000   0.000  -0.000  -0.000   0.000   2.421  -0.281   0.000   0.000   0.000   0.000
  0.000   0.000   0.000  -0.000  -0.000   0.000   0.000  -0.000  -0.000  -0.000  -0.281   0.038   0.000   0.000   0.000   0.000
  0.000   0.000  -0.000   0.000  -0.000   0.000   0.000   0.000   0.000  -0.000   0.000   0.000   0.294   0.000   0.000  -0.025
  0.000   0.000   0.000   0.000   0.000   0.000   0.000   0.000   0.000   0.000   0.000   0.000   0.000   0.294   0.000  -0.000
  0.000   0.000  -0.000   0.000   0.000   0.000   0.000  -0.000   0.000  -0.000   0.000   0.000   0.000   0.000   0.294  -0.000
  0.000   0.000   0.000   0.000   0.000   0.000   0.000   0.000   0.000  -0.000   0.000   0.000  -0.025  -0.000  -0.000   0.002
  0.000   0.000   0.000   0.000   0.000   0.000   0.000   0.000   0.000   0.000   0.000   0.000  -0.000  -0.025  -0.000   0.000
  0.000   0.000  -0.000   0.000   0.000   0.000   0.000   0.000   0.000   0.000   0.000   0.000  -0.000  -0.000  -0.025   0.000
 total augmentation occupancy for first ion, spin component:           2
  1.851   0.000  -0.000   0.000  -0.000  -0.766  -0.000   0.000  -0.000   0.000  -0.000  -0.000   0.000   0.000   0.000   0.000
  0.000   1.851  -0.000   0.000  -0.000  -0.000  -0.766  -0.000  -0.000   0.000  -0.000   0.000   0.000   0.000   0.000   0.000
 -0.000   0.000   3.071   0.000  -0.000   0.000   0.000  -1.358  -0.000  -0.000   0.000  -0.000  -0.000   0.000   0.000   0.000
  0.000   0.000   0.000   1.851   0.000  -0.000  -0.000   0.000  -0.766  -0.000  -0.000  -0.000   0.000   0.000   0.000   0.000
 -0.000  -0.000   0.000   0.000   3.071   0.000   0.000  -0.000  -0.000  -1.358   0.000   0.000  -0.000   0.000   0.000   0.000
 -0.766  -0.000   0.000  -0.000   0.000   0.076   0.000  -0.000   0.000  -0.000   0.000   0.000   0.000   0.000   0.000   0.000
 -0.000  -0.766   0.000  -0.000   0.000   0.000   0.076  -0.000   0.000  -0.000   0.000   0.000   0.000   0.000   0.000   0.000
  0.000   0.000  -1.358  -0.000   0.000  -0.000  -0.000   0.359  -0.000  -0.000   0.000   0.000   0.000  -0.000   0.000   0.000
 -0.000  -0.000   0.000  -0.766  -0.000   0.000   0.000  -0.000   0.076   0.000   0.000  -0.000   0.000   0.000   0.000   0.000
  0.000   0.000  -0.000  -0.000  -1.358  -0.000  -0.000  -0.000   0.000   0.359  -0.000   0.000  -0.000   0.000  -0.000  -0.000
 -0.000  -0.000   0.000  -0.000  -0.000  -0.000   0.000   0.000   0.000   0.000  -0.329   0.099   0.000   0.000   0.000   0.000
 -0.000   0.000  -0.000  -0.000   0.000   0.000   0.000   0.000   0.000   0.000   0.099  -0.017   0.000   0.000   0.000   0.000
  0.000   0.000  -0.000   0.000  -0.000   0.000   0.000  -0.000   0.000   0.000   0.000   0.000  -0.037  -0.000  -0.000   0.006
  0.000   0.000   0.000   0.000  -0.000   0.000   0.000  -0.000   0.000   0.000   0.000   0.000  -0.000  -0.037  -0.000   0.000
  0.000   0.000   0.000   0.000   0.000   0.000   0.000   0.000   0.000  -0.000   0.000   0.000  -0.000  -0.000  -0.037   0.000
  0.000   0.000   0.000   0.000   0.000   0.000   0.000   0.000   0.000   0.000   0.000   0.000   0.006   0.000   0.000  -0.001
  0.000   0.000   0.000   0.000   0.000   0.000   0.000   0.000   0.000   0.000   0.000  -0.000   0.000   0.006   0.000  -0.000
  0.000   0.000   0.000   0.000   0.000   0.000   0.000   0.000   0.000   0.000   0.000   0.000   0.000   0.000   0.006  -0.000


------------------------ aborting loop because EDIFF is reached ----------------------------------------





 total charge

# of ion       s       p       d       tot
------------------------------------------
    1        0.488   0.543   6.242   7.273
    2        0.488   0.543   6.242   7.273
--------------------------------------------------
tot          0.975   1.085  12.485  14.545



 magnetization (x)

# of ion       s       p       d       tot
------------------------------------------
    1       -0.014  -0.057   2.248   2.178
    2       -0.014  -0.057   2.248   2.178
--------------------------------------------------
tot         -0.027  -0.115   4.497   4.355
 
    CHARGE:  cpu time    0.4669: real time    0.4681
    FORLOC:  cpu time    0.0030: real time    0.0029
    FORNL :  cpu time    1.1238: real time    1.1242
    STRESS:  cpu time    3.9274: real time    3.9302
    FORCOR:  cpu time    0.0780: real time    0.0784
    FORHAR:  cpu time    0.0060: real time    0.0060
    MIXING:  cpu time    0.0020: real time    0.0018
    OFIELD:  cpu time    0.0000: real time    0.0002

  FORCE on cell =-STRESS in cart. coord.  units (eV):
  Direction    XX          YY          ZZ          XY          YZ          ZX
  --------------------------------------------------------------------------------------
  Alpha Z   121.90196   121.90196   121.90196
  Ewald    -394.96023  -394.96023  -394.96023    -0.00000    -0.00000    -0.00000
  Hartree    63.27820    63.27820    63.27820    -0.00000    -0.00000    -0.00000
  E(xc)     -79.44990   -79.44990   -79.44990    -0.00000    -0.00000     0.00000
  Local     118.02972   118.02972   118.02972    -0.00000    -0.00000    -0.00000
  n-local   -54.86246   -51.73879   -49.08097     2.48410    -0.87626     0.68799
  augment    77.39251    77.39251    77.39251    -0.00000     0.00000    -0.00000
  Kinetic   148.16897   145.31027   143.61939     2.79618    -0.53536     0.11202
  Fock        0.00000     0.00000     0.00000     0.00000     0.00000     0.00000
  -------------------------------------------------------------------------------------
  Total      -0.00228    -0.00228    -0.00228    -0.00000    -0.00000    -0.00000
  in kB      -0.16100    -0.16100    -0.16100    -0.00000    -0.00000    -0.00000
  external pressure =       -0.16 kB  Pullay stress =        0.00 kB


 VOLUME and BASIS-vectors are now :
 -----------------------------------------------------------------------------
  energy-cutoff  :      650.00
  volume of cell :       22.68
      direct lattice vectors                 reciprocal lattice vectors
     2.830553117 -0.000000000  0.000000000     0.353287841 -0.000000000 -0.000000000
     0.000000000  2.830553117  0.000000000     0.000000000  0.353287841 -0.000000000
     0.000000000  0.000000000  2.830553117    -0.000000000 -0.000000000  0.353287841

  length of vectors
     2.830553117  2.830553117  2.830553117     0.353287841  0.353287841  0.353287841


 FORCES acting on ions
    electron-ion (+dipol)            ewald-force                    non-local-force                 convergence-correction
 -----------------------------------------------------------------------------------------------
   -.125E-13 -.280E-14 -.168E-13   0.269E-14 -.547E-14 -.148E-14   0.195E-25 0.583E-28 0.000E+00   0.130E-13 0.100E-13 0.590E-14
   0.142E-12 0.222E-12 -.114E-11   -.155E-14 0.481E-14 0.227E-14   -.110E-25 -.371E-28 0.000E+00   0.124E-13 0.734E-14 0.257E-14
 -----------------------------------------------------------------------------------------------
   0.129E-12 0.219E-12 -.116E-11   0.114E-14 -.656E-15 0.791E-15   0.853E-26 0.212E-28 0.000E+00   0.254E-13 0.174E-13 0.847E-14
 
 
 POSITION                                       TOTAL-FORCE (eV/Angst)
 -----------------------------------------------------------------------------------
     -0.00000     -0.00000     -0.00000         0.000000     -0.000000     -0.000000
      1.41528      1.41528      1.41528        -0.000000      0.000000      0.000000
 -----------------------------------------------------------------------------------
    total drift:                                0.000000      0.000000     -0.000000


--------------------------------------------------------------------------------------------------------



  FREE ENERGIE OF THE ION-ELECTRON SYSTEM (eV)
  ---------------------------------------------------
  free  energy   TOTEN  =       -16.48329813 eV

  energy  without entropy=      -16.48062577  energy(sigma->0) =      -16.48240734
 
 d Force = 0.0000000E+00[ 0.000E+00, 0.000E+00]  d Energy = 0.1305496E-01-0.131E-01
 d Force = 0.0000000E+00[ 0.000E+00, 0.000E+00]  d Ewald  =-0.1214715E+02 0.121E+02


--------------------------------------------------------------------------------------------------------


    POTLOK:  cpu time    1.7237: real time    1.7315


--------------------------------------------------------------------------------------------------------




--------------------------------------------------------------------------------------------------------


  
 reached required accuracy - stopping structural energy minimisation
 writing wavefunctions
     LOOP+:  cpu time   82.5694: real time   85.8005
    4ORBIT:  cpu time    0.0000: real time    0.0000



 total charge

# of ion       s       p       d       tot
------------------------------------------
    1        0.488   0.543   6.242   7.273
    2        0.488   0.543   6.242   7.273
--------------------------------------------------
tot          0.975   1.085  12.485  14.545



 magnetization (x)

# of ion       s       p       d       tot
------------------------------------------
    1       -0.014  -0.057   2.248   2.178
    2       -0.014  -0.057   2.248   2.178
--------------------------------------------------
tot         -0.027  -0.115   4.497   4.355
 

 total amount of memory used by VASP MPI-rank0    71407. kBytes
=======================================================================

   base      :      30000. kBytes
   nonl-proj :      15788. kBytes
   fftplans  :       4177. kBytes
   grid      :       3179. kBytes
   one-center:         62. kBytes
   wavefun   :      18201. kBytes
 
  
  
 General timing and accounting informations for this job:
 ========================================================
  
                  Total CPU time used (sec):      293.634
                            User time (sec):      288.274
                          System time (sec):        5.360
                         Elapsed time (sec):      307.797
  
                   Maximum memory used (kb):      129580.
                   Average memory used (kb):          N/A
  
                          Minor page faults:        39862
                          Major page faults:            1
                 Voluntary context switches:       326730
