 running on    4 total cores
 distrk:  each k-point on    4 cores,    1 groups
 distr:  one band on    1 cores,    4 groups
 vasp.6.2.0 18Jan21 (build Aug 12 2022 13:00:08) complex                        
  
 POSCAR found type information on POSCAR Fe
 POSCAR found :  1 types and       2 ions
 scaLAPACK will be used
 LDA part: xc-table for Pade appr. of Perdew
 POSCAR, INCAR and KPOINTS ok, starting setup
 FFT: planning ...
 WAVECAR not read
 entering main loop
       N       E                     dE             d eps       ncg     rms          rms(c)
DAV:   1     0.907098640399E+02    0.90710E+02   -0.90832E+03 10352   0.131E+03
DAV:   2    -0.114729316687E+02   -0.10218E+03   -0.91272E+02  9680   0.214E+02
DAV:   3    -0.160447765899E+02   -0.45718E+01   -0.44077E+01 10864   0.561E+01
DAV:   4    -0.160857121613E+02   -0.40936E-01   -0.40916E-01 10472   0.503E+00
DAV:   5    -0.160861487065E+02   -0.43655E-03   -0.43654E-03 10768   0.477E-01    0.196E+01
DAV:   6    -0.165608705347E+02   -0.47472E+00   -0.52031E+00 10640   0.453E+01    0.618E+00
DAV:   7    -0.164973959782E+02    0.63475E-01   -0.38905E-01 11424   0.997E+00    0.443E+00
DAV:   8    -0.164800752260E+02    0.17321E-01   -0.10175E-02 12728   0.113E+00    0.160E+00
DAV:   9    -0.164682206418E+02    0.11855E-01   -0.31087E-03 14288   0.102E+00    0.429E-01
DAV:  10    -0.164677351964E+02    0.48545E-03   -0.18298E-03 11636   0.705E-01    0.649E-02
DAV:  11    -0.164677627443E+02   -0.27548E-04   -0.69013E-05 11804   0.730E-02    0.462E-02
DAV:  12    -0.164677528582E+02    0.98861E-05   -0.26058E-06  9812   0.144E-02    0.181E-02
DAV:  13    -0.164677542280E+02   -0.13698E-05   -0.11015E-06  7908   0.101E-02    0.100E-02
DAV:  14    -0.164677535175E+02    0.71043E-06   -0.28518E-07  5304   0.806E-03
   1 F= -.16467754E+02 E0= -.16466829E+02  d E =-.164678E+02  mag=     4.4685
 curvature:   0.00 expect dE= 0.000E+00 dE for cont linesearch  0.000E+00
 trial: gam= 0.00000 g(F)=  0.175E-61 g(S)=  0.568E-01 ort = 0.000E+00 (trialstep = 0.100E+01)
 search vector abs. value=  0.568E-01
 bond charge predicted
       N       E                     dE             d eps       ncg     rms          rms(c)
DAV:   1    -0.171412199207E+02   -0.67347E+00   -0.63883E+00 10584   0.426E+01    0.779E+00
DAV:   2    -0.165161854257E+02    0.62503E+00   -0.11847E+00 10520   0.247E+01    0.635E+00
DAV:   3    -0.164820364398E+02    0.34149E-01   -0.90231E-02 11344   0.562E+00    0.223E+00
DAV:   4    -0.164754326699E+02    0.66038E-02   -0.47117E-03 12076   0.789E-01    0.515E-01
DAV:   5    -0.164701533767E+02    0.52793E-02   -0.36998E-03 11888   0.500E-01    0.877E-02
DAV:   6    -0.164702405714E+02   -0.87195E-04   -0.26092E-04 10904   0.183E-01    0.482E-02
DAV:   7    -0.164702471046E+02   -0.65332E-05   -0.13304E-05 10148   0.428E-02    0.223E-02
DAV:   8    -0.164702441430E+02    0.29616E-05   -0.12336E-06  7900   0.156E-02    0.942E-03
DAV:   9    -0.164702431694E+02    0.97359E-06   -0.40259E-07  5016   0.978E-03
   2 F= -.16470243E+02 E0= -.16469347E+02  d E =-.248965E-02  mag=     4.2670
 trial-energy change:   -0.002490  1 .order   -0.000531   -0.056840    0.055778
 step:   0.5307(harm=  0.5047)  dis= 0.00000  next Energy=   -16.483129 (dE=-0.154E-01)
 bond charge predicted
       N       E                     dE             d eps       ncg     rms          rms(c)
DAV:   1    -0.166373394024E+02   -0.16710E+00   -0.14421E+00 10508   0.212E+01    0.383E+00
DAV:   2    -0.165002626688E+02    0.13708E+00   -0.37938E-01 10552   0.125E+01    0.354E+00
DAV:   3    -0.164862204864E+02    0.14042E-01   -0.26700E-02 11332   0.329E+00    0.105E+00
DAV:   4    -0.164845671256E+02    0.16534E-02   -0.18192E-03 12920   0.555E-01    0.304E-01
DAV:   5    -0.164832686763E+02    0.12984E-02   -0.10006E-03 11040   0.288E-01    0.534E-02
DAV:   6    -0.164832898408E+02   -0.21165E-04   -0.33395E-05 10308   0.495E-02    0.232E-02
DAV:   7    -0.164832951192E+02   -0.52785E-05   -0.29709E-06  9912   0.175E-02    0.140E-02
DAV:   8    -0.164832980424E+02   -0.29232E-05   -0.46032E-07  5708   0.758E-03    0.323E-03
DAV:   9    -0.164832981258E+02   -0.83368E-07   -0.10059E-07  4928   0.320E-03
   3 F= -.16483298E+02 E0= -.16482407E+02  d E =-.155446E-01  mag=     4.3590
 curvature:  -0.25 expect dE=-0.946E-07 dE for cont linesearch -0.946E-07
 trial: gam=-0.00256 g(F)=  0.501E-61 g(S)=  0.376E-06 ort = 0.146E-03 (trialstep = 0.906E+00)
 search vector abs. value=  0.102E-09
 reached required accuracy - stopping structural energy minimisation
 writing wavefunctions
