<?xml version="1.0" encoding="ISO-8859-1"?>
<modeling>
 <generator>
  <i name="program" type="string">vasp </i>
  <i name="version" type="string">6.2.0  </i>
  <i name="subversion" type="string">18Jan21 (build Aug 12 2022 13:00:08) complex                          parallel </i>
  <i name="platform" type="string">LinuxIFC </i>
  <i name="date" type="string">2024 11 04 </i>
  <i name="time" type="string">07:18:29 </i>
 </generator>
 <incar>
  <i type="int" name="ISTART">     0</i>
  <i type="string" name="PREC">Accurate      (Accurate strictly avoids</i>
  <i type="logical" name="ADDGRID"> T  </i>
  <i type="int" name="ISPIN">     2</i>
  <i type="int" name="NELM">    90</i>
  <i type="int" name="NELMIN">     6</i>
  <i type="int" name="IBRION">     2</i>
  <i name="EDIFF">      0.00000100</i>
  <i name="EDIFFG">     -0.00200000</i>
  <i type="int" name="NSW">   100</i>
  <i type="int" name="ISIF">     3</i>
  <i type="int" name="ISYM">     2</i>
  <i name="ENCUT">    650.00000000</i>
  <v name="MAGMOM">      5.00000000      5.00000000</v>
  <i type="logical" name="LREAL"> F  </i>
  <i type="int" name="ISMEAR">     1</i>
  <i name="SIGMA">      0.20000000</i>
  <i type="int" name="LMAXMIX">     4</i>
  <i type="int" name="LORBIT">    11</i>
  <i type="logical" name="LASPH"> T  </i>
  <i type="logical" name="GGA_COMPAT"> F  </i>
  <i type="int" name="VOSKOWN">     1</i>
 </incar>
 <primitive_cell>
  <structure name="primitive_cell" >
   <crystal>
    <varray name="basis" >
     <v>       1.43151775       1.43151775      -1.43151775 </v>
     <v>      -1.43151775       1.43151775       1.43151775 </v>
     <v>       1.43151775      -1.43151775       1.43151775 </v>
    </varray>
    <i name="volume">     11.73411129 </i>
    <varray name="rec_basis" >
     <v>       0.34927964       0.34927964       0.00000000 </v>
     <v>       0.00000000       0.34927964       0.34927964 </v>
     <v>       0.34927964      -0.00000000       0.34927964 </v>
    </varray>
   </crystal>
   <varray name="positions" >
    <v>       0.00000000       0.00000000       0.00000000 </v>
   </varray>
  </structure>
  <varray name="primitive_index" >
   <v type="int" >        1 </v>
  </varray>
 </primitive_cell>
 <kpoints>
  <generation param="Monkhorst-Pack">
   <v type="int" name="divisions">      15       15       15 </v>
   <v name="usershift">      0.00000000       0.00000000       0.00000000 </v>
   <v name="genvec1">      0.06666667       0.00000000       0.00000000 </v>
   <v name="genvec2">      0.00000000       0.06666667       0.00000000 </v>
   <v name="genvec3">      0.00000000       0.00000000       0.06666667 </v>
   <v name="shift">      0.00000000       0.00000000       0.00000000 </v>
  </generation>
  <varray name="kpointlist" >
   <v>       0.00000000       0.00000000       0.00000000 </v>
   <v>       0.06666667       0.00000000       0.00000000 </v>
   <v>       0.13333333       0.00000000       0.00000000 </v>
   <v>       0.20000000      -0.00000000       0.00000000 </v>
   <v>       0.26666667       0.00000000       0.00000000 </v>
   <v>       0.33333333       0.00000000       0.00000000 </v>
   <v>       0.40000000       0.00000000       0.00000000 </v>
   <v>       0.46666667      -0.00000000       0.00000000 </v>
   <v>       0.06666667       0.06666667       0.00000000 </v>
   <v>       0.13333333       0.06666667       0.00000000 </v>
   <v>       0.20000000       0.06666667       0.00000000 </v>
   <v>       0.26666667       0.06666667       0.00000000 </v>
   <v>       0.33333333       0.06666667       0.00000000 </v>
   <v>       0.40000000       0.06666667       0.00000000 </v>
   <v>       0.46666667       0.06666667       0.00000000 </v>
   <v>       0.13333333       0.13333333       0.00000000 </v>
   <v>       0.20000000       0.13333333       0.00000000 </v>
   <v>       0.26666667       0.13333333       0.00000000 </v>
   <v>       0.33333333       0.13333333       0.00000000 </v>
   <v>       0.40000000       0.13333333       0.00000000 </v>
   <v>       0.46666667       0.13333333       0.00000000 </v>
   <v>       0.20000000       0.20000000       0.00000000 </v>
   <v>       0.26666667       0.20000000       0.00000000 </v>
   <v>       0.33333333       0.20000000       0.00000000 </v>
   <v>       0.40000000       0.20000000       0.00000000 </v>
   <v>       0.46666667       0.20000000       0.00000000 </v>
   <v>       0.26666667       0.26666667       0.00000000 </v>
   <v>       0.33333333       0.26666667       0.00000000 </v>
   <v>       0.40000000       0.26666667       0.00000000 </v>
   <v>       0.46666667       0.26666667       0.00000000 </v>
   <v>       0.33333333       0.33333333       0.00000000 </v>
   <v>       0.40000000       0.33333333       0.00000000 </v>
   <v>       0.46666667       0.33333333       0.00000000 </v>
   <v>       0.40000000       0.40000000       0.00000000 </v>
   <v>       0.46666667       0.40000000       0.00000000 </v>
   <v>       0.46666667       0.46666667       0.00000000 </v>
   <v>       0.06666667       0.06666667       0.06666667 </v>
   <v>       0.13333333       0.06666667       0.06666667 </v>
   <v>       0.20000000       0.06666667       0.06666667 </v>
   <v>       0.26666667       0.06666667       0.06666667 </v>
   <v>       0.33333333       0.06666667       0.06666667 </v>
   <v>       0.40000000       0.06666667       0.06666667 </v>
   <v>       0.46666667       0.06666667       0.06666667 </v>
   <v>       0.13333333       0.13333333       0.06666667 </v>
   <v>       0.20000000       0.13333333       0.06666667 </v>
   <v>       0.26666667       0.13333333       0.06666667 </v>
   <v>       0.33333333       0.13333333       0.06666667 </v>
   <v>       0.40000000       0.13333333       0.06666667 </v>
   <v>       0.46666667       0.13333333       0.06666667 </v>
   <v>       0.20000000       0.20000000       0.06666667 </v>
   <v>       0.26666667       0.20000000       0.06666667 </v>
   <v>       0.33333333       0.20000000       0.06666667 </v>
   <v>       0.40000000       0.20000000       0.06666667 </v>
   <v>       0.46666667       0.20000000       0.06666667 </v>
   <v>       0.26666667       0.26666667       0.06666667 </v>
   <v>       0.33333333       0.26666667       0.06666667 </v>
   <v>       0.40000000       0.26666667       0.06666667 </v>
   <v>       0.46666667       0.26666667       0.06666667 </v>
   <v>       0.33333333       0.33333333       0.06666667 </v>
   <v>       0.40000000       0.33333333       0.06666667 </v>
   <v>       0.46666667       0.33333333       0.06666667 </v>
   <v>       0.40000000       0.40000000       0.06666667 </v>
   <v>       0.46666667       0.40000000       0.06666667 </v>
   <v>       0.46666667       0.46666667       0.06666667 </v>
   <v>       0.13333333       0.13333333       0.13333333 </v>
   <v>       0.20000000       0.13333333       0.13333333 </v>
   <v>       0.26666667       0.13333333       0.13333333 </v>
   <v>       0.33333333       0.13333333       0.13333333 </v>
   <v>       0.40000000       0.13333333       0.13333333 </v>
   <v>       0.46666667       0.13333333       0.13333333 </v>
   <v>       0.20000000       0.20000000       0.13333333 </v>
   <v>       0.26666667       0.20000000       0.13333333 </v>
   <v>       0.33333333       0.20000000       0.13333333 </v>
   <v>       0.40000000       0.20000000       0.13333333 </v>
   <v>       0.46666667       0.20000000       0.13333333 </v>
   <v>       0.26666667       0.26666667       0.13333333 </v>
   <v>       0.33333333       0.26666667       0.13333333 </v>
   <v>       0.40000000       0.26666667       0.13333333 </v>
   <v>       0.46666667       0.26666667       0.13333333 </v>
   <v>       0.33333333       0.33333333       0.13333333 </v>
   <v>       0.40000000       0.33333333       0.13333333 </v>
   <v>       0.46666667       0.33333333       0.13333333 </v>
   <v>       0.40000000       0.40000000       0.13333333 </v>
   <v>       0.46666667       0.40000000       0.13333333 </v>
   <v>       0.46666667       0.46666667       0.13333333 </v>
   <v>       0.20000000       0.20000000       0.20000000 </v>
   <v>       0.26666667       0.20000000       0.20000000 </v>
   <v>       0.33333333       0.20000000       0.20000000 </v>
   <v>       0.40000000       0.20000000       0.20000000 </v>
   <v>       0.46666667       0.20000000       0.20000000 </v>
   <v>       0.26666667       0.26666667       0.20000000 </v>
   <v>       0.33333333       0.26666667       0.20000000 </v>
   <v>       0.40000000       0.26666667       0.20000000 </v>
   <v>       0.46666667       0.26666667       0.20000000 </v>
   <v>       0.33333333       0.33333333       0.20000000 </v>
   <v>       0.40000000       0.33333333       0.20000000 </v>
   <v>       0.46666667       0.33333333       0.20000000 </v>
   <v>       0.40000000       0.40000000       0.20000000 </v>
   <v>       0.46666667       0.40000000       0.20000000 </v>
   <v>       0.46666667       0.46666667       0.20000000 </v>
   <v>       0.26666667       0.26666667       0.26666667 </v>
   <v>       0.33333333       0.26666667       0.26666667 </v>
   <v>       0.40000000       0.26666667       0.26666667 </v>
   <v>       0.46666667       0.26666667       0.26666667 </v>
   <v>       0.33333333       0.33333333       0.26666667 </v>
   <v>       0.40000000       0.33333333       0.26666667 </v>
   <v>       0.46666667       0.33333333       0.26666667 </v>
   <v>       0.40000000       0.40000000       0.26666667 </v>
   <v>       0.46666667       0.40000000       0.26666667 </v>
   <v>       0.46666667       0.46666667       0.26666667 </v>
   <v>       0.33333333       0.33333333       0.33333333 </v>
   <v>       0.40000000       0.33333333       0.33333333 </v>
   <v>       0.46666667       0.33333333       0.33333333 </v>
   <v>       0.40000000       0.40000000       0.33333333 </v>
   <v>       0.46666667       0.40000000       0.33333333 </v>
   <v>       0.46666667       0.46666667       0.33333333 </v>
   <v>       0.40000000       0.40000000       0.40000000 </v>
   <v>       0.46666667       0.40000000       0.40000000 </v>
   <v>       0.46666667       0.46666667       0.40000000 </v>
   <v>       0.46666667       0.46666667       0.46666667 </v>
  </varray>
  <varray name="weights" >
   <v>       0.00029630 </v>
   <v>       0.00177778 </v>
   <v>       0.00177778 </v>
   <v>       0.00177778 </v>
   <v>       0.00177778 </v>
   <v>       0.00177778 </v>
   <v>       0.00177778 </v>
   <v>       0.00177778 </v>
   <v>       0.00355556 </v>
   <v>       0.00711111 </v>
   <v>       0.00711111 </v>
   <v>       0.00711111 </v>
   <v>       0.00711111 </v>
   <v>       0.00711111 </v>
   <v>       0.00711111 </v>
   <v>       0.00355556 </v>
   <v>       0.00711111 </v>
   <v>       0.00711111 </v>
   <v>       0.00711111 </v>
   <v>       0.00711111 </v>
   <v>       0.00711111 </v>
   <v>       0.00355556 </v>
   <v>       0.00711111 </v>
   <v>       0.00711111 </v>
   <v>       0.00711111 </v>
   <v>       0.00711111 </v>
   <v>       0.00355556 </v>
   <v>       0.00711111 </v>
   <v>       0.00711111 </v>
   <v>       0.00711111 </v>
   <v>       0.00355556 </v>
   <v>       0.00711111 </v>
   <v>       0.00711111 </v>
   <v>       0.00355556 </v>
   <v>       0.00711111 </v>
   <v>       0.00355556 </v>
   <v>       0.00237037 </v>
   <v>       0.00711111 </v>
   <v>       0.00711111 </v>
   <v>       0.00711111 </v>
   <v>       0.00711111 </v>
   <v>       0.00711111 </v>
   <v>       0.00711111 </v>
   <v>       0.00711111 </v>
   <v>       0.01422222 </v>
   <v>       0.01422222 </v>
   <v>       0.01422222 </v>
   <v>       0.01422222 </v>
   <v>       0.01422222 </v>
   <v>       0.00711111 </v>
   <v>       0.01422222 </v>
   <v>       0.01422222 </v>
   <v>       0.01422222 </v>
   <v>       0.01422222 </v>
   <v>       0.00711111 </v>
   <v>       0.01422222 </v>
   <v>       0.01422222 </v>
   <v>       0.01422222 </v>
   <v>       0.00711111 </v>
   <v>       0.01422222 </v>
   <v>       0.01422222 </v>
   <v>       0.00711111 </v>
   <v>       0.01422222 </v>
   <v>       0.00711111 </v>
   <v>       0.00237037 </v>
   <v>       0.00711111 </v>
   <v>       0.00711111 </v>
   <v>       0.00711111 </v>
   <v>       0.00711111 </v>
   <v>       0.00711111 </v>
   <v>       0.00711111 </v>
   <v>       0.01422222 </v>
   <v>       0.01422222 </v>
   <v>       0.01422222 </v>
   <v>       0.01422222 </v>
   <v>       0.00711111 </v>
   <v>       0.01422222 </v>
   <v>       0.01422222 </v>
   <v>       0.01422222 </v>
   <v>       0.00711111 </v>
   <v>       0.01422222 </v>
   <v>       0.01422222 </v>
   <v>       0.00711111 </v>
   <v>       0.01422222 </v>
   <v>       0.00711111 </v>
   <v>       0.00237037 </v>
   <v>       0.00711111 </v>
   <v>       0.00711111 </v>
   <v>       0.00711111 </v>
   <v>       0.00711111 </v>
   <v>       0.00711111 </v>
   <v>       0.01422222 </v>
   <v>       0.01422222 </v>
   <v>       0.01422222 </v>
   <v>       0.00711111 </v>
   <v>       0.01422222 </v>
   <v>       0.01422222 </v>
   <v>       0.00711111 </v>
   <v>       0.01422222 </v>
   <v>       0.00711111 </v>
   <v>       0.00237037 </v>
   <v>       0.00711111 </v>
   <v>       0.00711111 </v>
   <v>       0.00711111 </v>
   <v>       0.00711111 </v>
   <v>       0.01422222 </v>
   <v>       0.01422222 </v>
   <v>       0.00711111 </v>
   <v>       0.01422222 </v>
   <v>       0.00711111 </v>
   <v>       0.00237037 </v>
   <v>       0.00711111 </v>
   <v>       0.00711111 </v>
   <v>       0.00711111 </v>
   <v>       0.01422222 </v>
   <v>       0.00711111 </v>
   <v>       0.00237037 </v>
   <v>       0.00711111 </v>
   <v>       0.00711111 </v>
   <v>       0.00237037 </v>
  </varray>
 </kpoints>
 <parameters>
  <separator name="general" >
   <i type="string" name="SYSTEM">unknown system</i>
   <i type="logical" name="LCOMPAT"> F  </i>
  </separator>
  <separator name="electronic" >
   <i type="string" name="PREC">accura</i>
   <i name="ENMAX">    650.00000000</i>
   <i name="ENAUG">    511.36800000</i>
   <i name="EDIFF">      0.00000100</i>
   <i type="int" name="IALGO">    38</i>
   <i type="int" name="IWAVPR">    11</i>
   <i type="int" name="NBANDS">    20</i>
   <i type="int" name="NBANDSLOW">    -1</i>
   <i type="int" name="NBANDSHIGH">    -1</i>
   <i name="NELECT">     16.00000000</i>
   <i type="int" name="TURBO">     0</i>
   <i type="int" name="IRESTART">     0</i>
   <i type="int" name="NREBOOT">     0</i>
   <i type="int" name="NMIN">     0</i>
   <i name="EREF">      0.00000000</i>
   <separator name="electronic smearing" >
    <i type="int" name="ISMEAR">     1</i>
    <i name="SIGMA">      0.20000000</i>
    <i name="KSPACING">      0.50000000</i>
    <i type="logical" name="KGAMMA"> T  </i>
    <i type="logical" name="KBLOWUP"> T  </i>
   </separator>
   <separator name="electronic projectors" >
    <i type="logical" name="LREAL"> F  </i>
    <v name="ROPT">      0.00000000</v>
    <i type="int" name="LMAXPAW">  -100</i>
    <i type="int" name="LMAXMIX">     4</i>
    <i type="logical" name="NLSPLINE"> F  </i>
   </separator>
   <separator name="electronic startup" >
    <i type="int" name="ISTART">     0</i>
    <i type="int" name="ICHARG">     2</i>
    <i type="int" name="INIWAV">     1</i>
   </separator>
   <separator name="electronic spin" >
    <i type="int" name="ISPIN">     2</i>
    <i type="logical" name="LNONCOLLINEAR"> F  </i>
    <v name="MAGMOM">      5.00000000      5.00000000</v>
    <i name="NUPDOWN">     -1.00000000</i>
    <i type="logical" name="LSORBIT"> F  </i>
    <v name="SAXIS">      0.00000000      0.00000000      1.00000000</v>
    <i type="logical" name="LSPIRAL"> F  </i>
    <v name="QSPIRAL">      0.00000000      0.00000000      0.00000000</v>
    <i type="logical" name="LZEROZ"> F  </i>
   </separator>
   <separator name="electronic exchange-correlation" >
    <i type="logical" name="LASPH"> T  </i>
    <i type="logical" name="LMETAGGA"> F  </i>
   </separator>
   <separator name="electronic convergence" >
    <i type="int" name="NELM">    90</i>
    <i type="int" name="NELMDL">    -5</i>
    <i type="int" name="NELMIN">     6</i>
    <i name="ENINI">    650.00000000</i>
    <separator name="electronic convergence detail" >
     <i type="logical" name="LDIAG"> T  </i>
     <i type="logical" name="LSUBROT"> F  </i>
     <i name="WEIMIN">      0.00100000</i>
     <i name="EBREAK">      0.00000001</i>
     <i name="DEPER">      0.30000000</i>
     <i type="int" name="NRMM">     4</i>
     <i name="TIME">      0.40000000</i>
    </separator>
   </separator>
   <separator name="electronic mixer" >
    <i name="AMIX">      0.40000000</i>
    <i name="BMIX">      1.00000000</i>
    <i name="AMIN">      0.10000000</i>
    <i name="AMIX_MAG">      1.60000000</i>
    <i name="BMIX_MAG">      1.00000000</i>
    <separator name="electronic mixer details" >
     <i type="int" name="IMIX">     4</i>
     <i type="logical" name="MIXFIRST"> F  </i>
     <i type="int" name="MAXMIX">   -45</i>
     <i name="WC">    100.00000000</i>
     <i type="int" name="INIMIX">     1</i>
     <i type="int" name="MIXPRE">     1</i>
     <i type="int" name="MREMOVE">     5</i>
    </separator>
   </separator>
   <separator name="electronic dipolcorrection" >
    <i type="logical" name="LDIPOL"> F  </i>
    <i type="logical" name="LMONO"> F  </i>
    <i type="int" name="IDIPOL">     0</i>
    <i name="EPSILON">      1.00000000</i>
    <v name="DIPOL">   -100.00000000   -100.00000000   -100.00000000</v>
    <i name="EFIELD">      0.00000000</i>
   </separator>
  </separator>
  <separator name="grids" >
   <i type="int" name="NGX">    24</i>
   <i type="int" name="NGY">    24</i>
   <i type="int" name="NGZ">    24</i>
   <i type="int" name="NGXF">    48</i>
   <i type="int" name="NGYF">    48</i>
   <i type="int" name="NGZF">    48</i>
   <i type="logical" name="ADDGRID"> T  </i>
  </separator>
  <separator name="ionic" >
   <i type="int" name="NSW">   100</i>
   <i type="int" name="IBRION">     2</i>
   <i type="int" name="MDALGO">     0</i>
   <i type="int" name="ISIF">     3</i>
   <i name="PSTRESS">      0.00000000</i>
   <i name="EDIFFG">     -0.00200000</i>
   <i type="int" name="NFREE">     1</i>
   <i name="POTIM">      0.50000000</i>
   <i name="SMASS">     -3.00000000</i>
   <i name="SCALEE">      1.00000000</i>
  </separator>
  <separator name="ionic md" >
   <i name="TEBEG">      0.00010000</i>
   <i name="TEEND">      0.00010000</i>
   <i type="int" name="NBLOCK">     1</i>
   <i type="int" name="KBLOCK">   100</i>
   <i type="int" name="NPACO">   256</i>
   <i name="APACO">     16.00000000</i>
  </separator>
  <separator name="symmetry" >
   <i type="int" name="ISYM">     2</i>
   <i name="SYMPREC">      0.00001000</i>
  </separator>
  <separator name="dos" >
   <i type="int" name="LORBIT">    11</i>
   <v name="RWIGS">     -1.00000000</v>
   <i type="int" name="NEDOS">   301</i>
   <i name="EMIN">     10.00000000</i>
   <i name="EMAX">    -10.00000000</i>
   <i name="EFERMI">      0.00000000</i>
  </separator>
  <separator name="writing" >
   <i type="int" name="NWRITE">     2</i>
   <i type="logical" name="LWAVE"> T  </i>
   <i type="logical" name="LDOWNSAMPLE"> F  </i>
   <i type="logical" name="LCHARG"> T  </i>
   <i type="logical" name="LPARD"> F  </i>
   <i type="logical" name="LVTOT"> F  </i>
   <i type="logical" name="LVHAR"> F  </i>
   <i type="logical" name="LELF"> F  </i>
   <i type="logical" name="LOPTICS"> F  </i>
   <v name="STM">      0.00000000      0.00000000      0.00000000      0.00000000      0.00000000      0.00000000      0.00000000</v>
  </separator>
  <separator name="performance" >
   <i type="int" name="NPAR">     4</i>
   <i type="int" name="NSIM">     4</i>
   <i type="int" name="NBLK">    -1</i>
   <i type="logical" name="LPLANE"> T  </i>
   <i type="logical" name="LSCALAPACK"> T  </i>
   <i type="logical" name="LSCAAWARE"> F  </i>
   <i type="logical" name="LSCALU"> F  </i>
   <i type="logical" name="LASYNC"> F  </i>
   <i type="logical" name="LORBITALREAL"> F  </i>
  </separator>
  <separator name="miscellaneous" >
   <i type="int" name="IDIOT">     3</i>
   <i type="int" name="PHON_NSTRUCT">    -1</i>
   <i type="logical" name="LMUSIC"> F  </i>
   <v name="POMASS">     55.84700000</v>
   <v name="DARWINR">      0.00000000</v>
   <v name="DARWINV">      1.00000000</v>
   <i type="logical" name="LCORR"> T  </i>
  </separator>
  <i type="logical" name="GGA_COMPAT"> F  </i>
  <i type="logical" name="LBERRY"> F  </i>
  <i type="int" name="ICORELEVEL">     0</i>
  <i type="logical" name="LDAU"> F  </i>
  <i type="int" name="I_CONSTRAINED_M">     0</i>
  <separator name="electronic exchange-correlation" >
   <i type="string" name="GGA">--</i>
   <i type="int" name="VOSKOWN">     1</i>
   <i type="logical" name="LHFCALC"> F  </i>
   <i type="string" name="PRECFOCK"></i>
   <i type="logical" name="LSYMGRAD"> F  </i>
   <i type="logical" name="LHFONE"> F  </i>
   <i type="logical" name="LRHFCALC"> F  </i>
   <i type="logical" name="LTHOMAS"> F  </i>
   <i type="logical" name="LMODELHF"> F  </i>
   <i type="logical" name="LFOCKACE"> F  </i>
   <i name="ENCUT4O">     -1.00000000</i>
   <i type="int" name="EXXOEP">     0</i>
   <i type="int" name="FOURORBIT">     0</i>
   <i name="AEXX">      0.00000000</i>
   <i name="HFALPHA">      0.00000000</i>
   <i name="MCALPHA">      0.00000000</i>
   <i name="ALDAX">      1.00000000</i>
   <i name="AGGAX">      1.00000000</i>
   <i name="ALDAC">      1.00000000</i>
   <i name="AGGAC">      1.00000000</i>
   <i type="int" name="NKREDX">     1</i>
   <i type="int" name="NKREDY">     1</i>
   <i type="int" name="NKREDZ">     1</i>
   <i type="logical" name="SHIFTRED"> F  </i>
   <i type="logical" name="ODDONLY"> F  </i>
   <i type="logical" name="EVENONLY"> F  </i>
   <i type="int" name="LMAXFOCK">     0</i>
   <i type="int" name="NMAXFOCKAE">     0</i>
   <i type="logical" name="LFOCKAEDFT"> F  </i>
   <i name="HFSCREEN">      0.00000000</i>
   <i name="HFSCREENC">      0.00000000</i>
   <i type="int" name="NBANDSGWLOW">     0</i>
  </separator>
  <separator name="vdW DFT" >
   <i type="logical" name="LUSE_VDW"> F  </i>
   <i name="Zab_VDW">     -0.84910000</i>
   <i name="PARAM1">      0.12340000</i>
   <i name="PARAM2">      1.00000000</i>
   <i name="PARAM3">      0.00000000</i>
  </separator>
  <separator name="model GW" >
   <i type="int" name="MODEL_GW">     0</i>
   <i name="MODEL_EPS0">      7.04046678</i>
   <i name="MODEL_ALPHA">      1.00000000</i>
  </separator>
  <separator name="linear response parameters" >
   <i type="logical" name="LEPSILON"> F  </i>
   <i type="logical" name="LRPA"> F  </i>
   <i type="logical" name="LNABLA"> F  </i>
   <i type="logical" name="LVEL"> F  </i>
   <i type="int" name="KINTER">     0</i>
   <i name="CSHIFT">      0.10000000</i>
   <i name="OMEGAMAX">     -1.00000000</i>
   <i name="DEG_THRESHOLD">      0.00200000</i>
   <i name="RTIME">     -0.10000000</i>
   <i name="WPLASMAI">      0.00000000</i>
   <v name="DFIELD">      0.00000000      0.00000000      0.00000000</v>
   <v name="WPLASMA">      0.00000000      0.00000000      0.00000000      0.00000000      0.00000000      0.00000000      0.00000000      0.00000000      0.00000000</v>
  </separator>
  <separator name="orbital magnetization" >
   <i type="logical" name="NUCIND"> F  </i>
   <v name="MAGPOS">      0.00000000      0.00000000      0.00000000</v>
   <i type="logical" name="LNICSALL"> T  </i>
   <i type="logical" name="ORBITALMAG"> F  </i>
   <i type="logical" name="LMAGBLOCH"> F  </i>
   <i type="logical" name="LCHIMAG"> F  </i>
   <i type="logical" name="LGAUGE"> T  </i>
   <i type="int" name="MAGATOM">     0</i>
   <v name="MAGDIPOL">      0.00000000      0.00000000      0.00000000</v>
   <v name="AVECCONST">      0.00000000      0.00000000      0.00000000</v>
  </separator>
  <separator name="response functions" >
   <i type="logical" name="LFINITE_TEMPERATURE"> F  </i>
   <i type="logical" name="LADDER"> F  </i>
   <i type="logical" name="LRPAFORCE"> F  </i>
   <i type="logical" name="LFXC"> F  </i>
   <i type="logical" name="LHARTREE"> T  </i>
   <i type="int" name="IBSE">     0</i>
   <v type="int" name="KPOINT">    -1     0     0     0</v>
   <i type="logical" name="LTCTC"> F  </i>
   <i type="logical" name="LTCTE"> F  </i>
   <i type="logical" name="LTETE"> F  </i>
   <i type="logical" name="LTRIPLET"> F  </i>
   <i type="logical" name="LFXCEPS"> F  </i>
   <i type="logical" name="LFXHEG"> F  </i>
   <i type="int" name="NATURALO">     2</i>
   <i type="logical" name="LHOLEGF"> F  </i>
   <i type="logical" name="L2ORDER"> F  </i>
   <i type="logical" name="LDMP1"> F  </i>
   <i type="logical" name="LMP2LT"> F  </i>
   <i type="logical" name="LSMP2LT"> F  </i>
   <i type="logical" name="LGWLF"> F  </i>
   <i name="ENCUTGW">     -2.00000000</i>
   <i name="ENCUTGWSOFT">     -2.00000000</i>
   <i name="ENCUTLF">     -1.00000000</i>
   <i type="logical" name="LESF_SPLINES"> F  </i>
   <i type="int" name="LMAXMP2">    -1</i>
   <i name="SCISSOR">      0.00000000</i>
   <i type="int" name="NOMEGA">     0</i>
   <i type="int" name="NOMEGAR">     0</i>
   <i type="int" name="NBANDSGW">    -1</i>
   <i type="int" name="NBANDSO">    -1</i>
   <i type="int" name="NBANDSV">    -1</i>
   <i type="int" name="NELM">    90</i>
   <i type="int" name="NELMHF">     1</i>
   <i type="int" name="DIM">     3</i>
   <i type="int" name="IESPILON">     4</i>
   <i type="int" name="ANTIRES">     0</i>
   <i name="OMEGAMAX">    -30.00000000</i>
   <i name="OMEGAMIN">    -30.00000000</i>
   <i name="OMEGATL">   -200.00000000</i>
   <i type="int" name="OMEGAGRID">     0</i>
   <i name="CSHIFT">     -0.10000000</i>
   <i type="logical" name="LSELFENERGY"> F  </i>
   <i type="logical" name="LSPECTRAL"> F  </i>
   <i type="logical" name="LSPECTRALGW"> F  </i>
   <i type="logical" name="LSINGLES"> F  </i>
   <i type="logical" name="LFERMIGW"> F  </i>
   <i type="logical" name="ODDONLYGW"> F  </i>
   <i type="logical" name="EVENONLYGW"> F  </i>
   <i type="int" name="NKREDLFX">     1</i>
   <i type="int" name="NKREDLFY">     1</i>
   <i type="int" name="NKREDLFZ">     1</i>
   <i type="int" name="MAXMEM">  2800</i>
   <i type="int" name="TELESCOPE">     0</i>
   <i type="int" name="NTAUPAR">    -1</i>
   <i type="int" name="NOMEGAPAR">    -1</i>
   <i name="DAMP_NEWTON">      0.80000001</i>
   <i name="LAMBDA">      1.00000000</i>
  </separator>
  <separator name="External order field" >
   <i name="OFIELD_KAPPA">      0.00000000</i>
   <v name="OFIELD_K">      0.00000000      0.00000000      0.00000000</v>
   <i name="OFIELD_Q6_NEAR">      0.00000000</i>
   <i name="OFIELD_Q6_FAR">      0.00000000</i>
   <i name="OFIELD_A">      0.00000000</i>
  </separator>
 </parameters>
 <atominfo>
  <atoms>       2 </atoms>
  <types>       1 </types>
  <array name="atoms" >
   <dimension dim="1">ion</dimension>
   <field type="string">element</field>
   <field type="int">atomtype</field>
   <set>
    <rc><c>Fe</c><c>   1</c></rc>
    <rc><c>Fe</c><c>   1</c></rc>
   </set>
  </array>
  <array name="atomtypes" >
   <dimension dim="1">type</dimension>
   <field type="int">atomspertype</field>
   <field type="string">element</field>
   <field>mass</field>
   <field>valence</field>
   <field type="string">pseudopotential</field>
   <set>
    <rc><c>   2</c><c>Fe</c><c>     55.84700000</c><c>      8.00000000</c><c>  PAW_PBE Fe 06Sep2000                  </c></rc>
   </set>
  </array>
 </atominfo>
 <structure name="initialpos" >
  <crystal>
   <varray name="basis" >
    <v>       2.86303550       0.00000000       0.00000000 </v>
    <v>       0.00000000       2.86303550       0.00000000 </v>
    <v>       0.00000000       0.00000000       2.86303550 </v>
   </varray>
   <i name="volume">     23.46822259 </i>
   <varray name="rec_basis" >
    <v>       0.34927964      -0.00000000       0.00000000 </v>
    <v>       0.00000000       0.34927964       0.00000000 </v>
    <v>      -0.00000000      -0.00000000       0.34927964 </v>
   </varray>
  </crystal>
  <varray name="positions" >
   <v>       0.00000000       0.00000000       0.00000000 </v>
   <v>       0.50000000       0.50000000       0.50000000 </v>
  </varray>
 </structure>
 <calculation>
  <scstep>
   <time name="dav">    6.24    6.25</time>
   <time name="total">    7.96    7.97</time>
   <energy>
    <i name="alphaZ">    117.79976220 </i>
    <i name="ewald">  -1171.43779597 </i>
    <i name="hartreedc">   -228.04061712 </i>
    <i name="XCdc">     14.27161833 </i>
    <i name="pawpsdc">   1103.49540010 </i>
    <i name="pawaedc">  -1119.11610375 </i>
    <i name="eentropy">     -0.00327335 </i>
    <i name="bandstr">    185.11212675 </i>
    <i name="atom">   1188.62874684 </i>
    <i name="e_fr_energy">     90.70986404 </i>
    <i name="e_wo_entrp">     90.71313739 </i>
    <i name="e_0_energy">     90.71095516 </i>
   </energy>
  </scstep>
  <scstep>
   <time name="dav">    5.93    5.95</time>
   <time name="total">    5.94    5.96</time>
   <energy>
    <i name="e_fr_energy">    -11.47293167 </i>
    <i name="e_wo_entrp">    -11.47312242 </i>
    <i name="e_0_energy">    -11.47299525 </i>
   </energy>
  </scstep>
  <scstep>
   <time name="dav">    6.45    6.47</time>
   <time name="total">    6.46    6.48</time>
   <energy>
    <i name="e_fr_energy">    -16.04477659 </i>
    <i name="e_wo_entrp">    -16.04607076 </i>
    <i name="e_0_energy">    -16.04520798 </i>
   </energy>
  </scstep>
  <scstep>
   <time name="dav">    6.27    6.29</time>
   <time name="total">    6.28    6.30</time>
   <energy>
    <i name="e_fr_energy">    -16.08571216 </i>
    <i name="e_wo_entrp">    -16.08706040 </i>
    <i name="e_0_energy">    -16.08616158 </i>
   </energy>
  </scstep>
  <scstep>
   <time name="dav">    6.41    6.43</time>
   <time name="total">    6.93    6.95</time>
   <energy>
    <i name="e_fr_energy">    -16.08614871 </i>
    <i name="e_wo_entrp">    -16.08749687 </i>
    <i name="e_0_energy">    -16.08659809 </i>
   </energy>
  </scstep>
  <scstep>
   <time name="dav">    6.34    6.39</time>
   <time name="total">    8.52    8.58</time>
   <energy>
    <i name="e_fr_energy">    -16.56087053 </i>
    <i name="e_wo_entrp">    -16.56060738 </i>
    <i name="e_0_energy">    -16.56078282 </i>
   </energy>
  </scstep>
  <scstep>
   <time name="dav">    6.79    6.80</time>
   <time name="total">    8.98    9.01</time>
   <energy>
    <i name="e_fr_energy">    -16.49739598 </i>
    <i name="e_wo_entrp">    -16.49519554 </i>
    <i name="e_0_energy">    -16.49666250 </i>
   </energy>
  </scstep>
  <scstep>
   <time name="dav">    7.37    7.38</time>
   <time name="total">    9.56    9.58</time>
   <energy>
    <i name="e_fr_energy">    -16.48007523 </i>
    <i name="e_wo_entrp">    -16.47757031 </i>
    <i name="e_0_energy">    -16.47924025 </i>
   </energy>
  </scstep>
  <scstep>
   <time name="dav">    8.02    8.03</time>
   <time name="total">   10.20   10.22</time>
   <energy>
    <i name="e_fr_energy">    -16.46822064 </i>
    <i name="e_wo_entrp">    -16.46535772 </i>
    <i name="e_0_energy">    -16.46726633 </i>
   </energy>
  </scstep>
  <scstep>
   <time name="dav">    6.79    6.80</time>
   <time name="total">    8.97    8.99</time>
   <energy>
    <i name="e_fr_energy">    -16.46773520 </i>
    <i name="e_wo_entrp">    -16.46495931 </i>
    <i name="e_0_energy">    -16.46680990 </i>
   </energy>
  </scstep>
  <scstep>
   <time name="dav">    6.87    6.88</time>
   <time name="total">    9.05    9.07</time>
   <energy>
    <i name="e_fr_energy">    -16.46776274 </i>
    <i name="e_wo_entrp">    -16.46498670 </i>
    <i name="e_0_energy">    -16.46683740 </i>
   </energy>
  </scstep>
  <scstep>
   <time name="dav">    6.00    6.01</time>
   <time name="total">    8.18    8.20</time>
   <energy>
    <i name="e_fr_energy">    -16.46775286 </i>
    <i name="e_wo_entrp">    -16.46498175 </i>
    <i name="e_0_energy">    -16.46682915 </i>
   </energy>
  </scstep>
  <scstep>
   <time name="dav">    5.22    5.22</time>
   <time name="total">    7.39    7.42</time>
   <energy>
    <i name="e_fr_energy">    -16.46775423 </i>
    <i name="e_wo_entrp">    -16.46497985 </i>
    <i name="e_0_energy">    -16.46682943 </i>
   </energy>
  </scstep>
  <scstep>
   <time name="dav">    4.18    4.19</time>
   <time name="total">    5.88    5.91</time>
   <energy>
    <i name="alphaZ">    117.79976220 </i>
    <i name="ewald">  -1171.43779597 </i>
    <i name="hartreedc">   -195.18831900 </i>
    <i name="XCdc">      8.52616785 </i>
    <i name="pawpsdc">   1412.00986532 </i>
    <i name="pawaedc">  -1429.90630205 </i>
    <i name="eentropy">     -0.00277491 </i>
    <i name="bandstr">     53.10289620 </i>
    <i name="atom">   1188.62874684 </i>
    <i name="e_fr_energy">    -16.46775352 </i>
    <i name="e_wo_entrp">    -16.46497860 </i>
    <i name="e_0_energy">    -16.46682855 </i>
   </energy>
  </scstep>
  <structure>
   <crystal>
    <varray name="basis" >
     <v>       2.86303550       0.00000000       0.00000000 </v>
     <v>       0.00000000       2.86303550       0.00000000 </v>
     <v>       0.00000000       0.00000000       2.86303550 </v>
    </varray>
    <i name="volume">     23.46822259 </i>
    <varray name="rec_basis" >
     <v>       0.34927964      -0.00000000       0.00000000 </v>
     <v>       0.00000000       0.34927964       0.00000000 </v>
     <v>      -0.00000000      -0.00000000       0.34927964 </v>
    </varray>
   </crystal>
   <varray name="positions" >
    <v>       0.00000000       0.00000000       0.00000000 </v>
    <v>       0.50000000       0.50000000       0.50000000 </v>
   </varray>
  </structure>
  <varray name="forces" >
   <v>      -0.00000000      -0.00000000      -0.00000000 </v>
   <v>       0.00000000       0.00000000       0.00000000 </v>
  </varray>
  <varray name="stress" >
   <v>     -60.50587022      -0.00000000      -0.00000000 </v>
   <v>      -0.00000000     -60.50587022       0.00000000 </v>
   <v>       0.00000000       0.00000000     -60.50587022 </v>
  </varray>
  <energy>
   <i name="e_fr_energy">    -16.46775352 </i>
   <i name="e_wo_entrp">    -16.46497860 </i>
   <i name="e_0_energy">    -16.46682855 </i>
  </energy>
  <time name="totalsc">  120.70  122.91</time>
 </calculation>
 <calculation>
  <scstep>
   <time name="dav">    6.37    6.37</time>
   <time name="total">    8.57    8.58</time>
   <energy>
    <i name="alphaZ">    125.68966584 </i>
    <i name="ewald">  -1197.02793290 </i>
    <i name="hartreedc">   -199.45345910 </i>
    <i name="XCdc">      9.79061597 </i>
    <i name="pawpsdc">   1411.98188175 </i>
    <i name="pawaedc">  -1429.87656849 </i>
    <i name="eentropy">     -0.00189378 </i>
    <i name="bandstr">     73.12772395 </i>
    <i name="atom">   1188.62874684 </i>
    <i name="e_fr_energy">    -17.14121992 </i>
    <i name="e_wo_entrp">    -17.13932614 </i>
    <i name="e_0_energy">    -17.14058866 </i>
   </energy>
  </scstep>
  <scstep>
   <time name="dav">    6.36    6.37</time>
   <time name="total">    8.56    8.58</time>
   <energy>
    <i name="e_fr_energy">    -16.51618543 </i>
    <i name="e_wo_entrp">    -16.51227484 </i>
    <i name="e_0_energy">    -16.51488190 </i>
   </energy>
  </scstep>
  <scstep>
   <time name="dav">    6.75    6.76</time>
   <time name="total">    8.94    8.97</time>
   <energy>
    <i name="e_fr_energy">    -16.48203644 </i>
    <i name="e_wo_entrp">    -16.47901719 </i>
    <i name="e_0_energy">    -16.48103002 </i>
   </energy>
  </scstep>
  <scstep>
   <time name="dav">    7.06    7.07</time>
   <time name="total">    9.26    9.29</time>
   <energy>
    <i name="e_fr_energy">    -16.47543267 </i>
    <i name="e_wo_entrp">    -16.47259317 </i>
    <i name="e_0_energy">    -16.47448617 </i>
   </energy>
  </scstep>
  <scstep>
   <time name="dav">    7.02    7.03</time>
   <time name="total">    9.22    9.24</time>
   <energy>
    <i name="e_fr_energy">    -16.47015338 </i>
    <i name="e_wo_entrp">    -16.46748873 </i>
    <i name="e_0_energy">    -16.46926516 </i>
   </energy>
  </scstep>
  <scstep>
   <time name="dav">    6.55    6.56</time>
   <time name="total">    8.75    8.77</time>
   <energy>
    <i name="e_fr_energy">    -16.47024057 </i>
    <i name="e_wo_entrp">    -16.46755601 </i>
    <i name="e_0_energy">    -16.46934572 </i>
   </energy>
  </scstep>
  <scstep>
   <time name="dav">    6.14    6.14</time>
   <time name="total">    8.32    8.35</time>
   <energy>
    <i name="e_fr_energy">    -16.47024710 </i>
    <i name="e_wo_entrp">    -16.46755269 </i>
    <i name="e_0_energy">    -16.46934897 </i>
   </energy>
  </scstep>
  <scstep>
   <time name="dav">    5.20    5.21</time>
   <time name="total">    7.39    7.41</time>
   <energy>
    <i name="e_fr_energy">    -16.47024414 </i>
    <i name="e_wo_entrp">    -16.46754875 </i>
    <i name="e_0_energy">    -16.46934568 </i>
   </energy>
  </scstep>
  <scstep>
   <time name="dav">    4.05    4.05</time>
   <time name="total">    5.76    5.78</time>
   <energy>
    <i name="alphaZ">    125.68966584 </i>
    <i name="ewald">  -1197.02793290 </i>
    <i name="hartreedc">   -185.15430896 </i>
    <i name="XCdc">      8.68276739 </i>
    <i name="pawpsdc">   1470.74298678 </i>
    <i name="pawaedc">  -1489.05956312 </i>
    <i name="eentropy">     -0.00268936 </i>
    <i name="bandstr">     61.03008433 </i>
    <i name="atom">   1188.62874684 </i>
    <i name="e_fr_energy">    -16.47024317 </i>
    <i name="e_wo_entrp">    -16.46755381 </i>
    <i name="e_0_energy">    -16.46934672 </i>
   </energy>
  </scstep>
  <structure>
   <crystal>
    <varray name="basis" >
     <v>       2.80182935      -0.00000000       0.00000000 </v>
     <v>       0.00000000       2.80182935       0.00000000 </v>
     <v>       0.00000000       0.00000000       2.80182935 </v>
    </varray>
    <i name="volume">     21.99505442 </i>
    <varray name="rec_basis" >
     <v>       0.35690967      -0.00000000      -0.00000000 </v>
     <v>       0.00000000       0.35690967      -0.00000000 </v>
     <v>      -0.00000000      -0.00000000       0.35690967 </v>
    </varray>
   </crystal>
   <varray name="positions" >
    <v>      -0.00000000      -0.00000000      -0.00000000 </v>
    <v>       0.50000000       0.50000000       0.50000000 </v>
   </varray>
  </structure>
  <varray name="forces" >
   <v>       0.00000000       0.00000000       0.00000000 </v>
   <v>      -0.00000000      -0.00000000      -0.00000000 </v>
  </varray>
  <varray name="stress" >
   <v>      63.35222328       0.00000000       0.00000000 </v>
   <v>       0.00000000      63.35222328       0.00000000 </v>
   <v>      -0.00000000      -0.00000000      63.35222328 </v>
  </varray>
  <energy>
   <i name="e_fr_energy">    -16.47024317 </i>
   <i name="e_wo_entrp">    -16.46755381 </i>
   <i name="e_0_energy">    -16.46934672 </i>
  </energy>
  <time name="totalsc">   84.33   84.92</time>
 </calculation>
 <calculation>
  <scstep>
   <time name="dav">    6.28    6.31</time>
   <time name="total">    8.47    8.50</time>
   <energy>
    <i name="alphaZ">    121.90195906 </i>
    <i name="ewald">  -1184.88078334 </i>
    <i name="hartreedc">   -183.27750982 </i>
    <i name="XCdc">      8.10057598 </i>
    <i name="pawpsdc">   1470.76787265 </i>
    <i name="pawaedc">  -1489.08263321 </i>
    <i name="eentropy">     -0.00150311 </i>
    <i name="bandstr">     51.20593555 </i>
    <i name="atom">   1188.62874684 </i>
    <i name="e_fr_energy">    -16.63733940 </i>
    <i name="e_wo_entrp">    -16.63583629 </i>
    <i name="e_0_energy">    -16.63683837 </i>
   </energy>
  </scstep>
  <scstep>
   <time name="dav">    6.29    6.30</time>
   <time name="total">    8.47    8.50</time>
   <energy>
    <i name="e_fr_energy">    -16.50026267 </i>
    <i name="e_wo_entrp">    -16.49801722 </i>
    <i name="e_0_energy">    -16.49951419 </i>
   </energy>
  </scstep>
  <scstep>
   <time name="dav">    6.66    6.66</time>
   <time name="total">    8.84    8.87</time>
   <energy>
    <i name="e_fr_energy">    -16.48622049 </i>
    <i name="e_wo_entrp">    -16.48351764 </i>
    <i name="e_0_energy">    -16.48531954 </i>
   </energy>
  </scstep>
  <scstep>
   <time name="dav">    7.37    7.38</time>
   <time name="total">    9.56    9.58</time>
   <energy>
    <i name="e_fr_energy">    -16.48456713 </i>
    <i name="e_wo_entrp">    -16.48181174 </i>
    <i name="e_0_energy">    -16.48364866 </i>
   </energy>
  </scstep>
  <scstep>
   <time name="dav">    6.52    6.53</time>
   <time name="total">    8.71    8.73</time>
   <energy>
    <i name="e_fr_energy">    -16.48326868 </i>
    <i name="e_wo_entrp">    -16.48059092 </i>
    <i name="e_0_energy">    -16.48237609 </i>
   </energy>
  </scstep>
  <scstep>
   <time name="dav">    6.19    6.20</time>
   <time name="total">    8.37    8.40</time>
   <energy>
    <i name="e_fr_energy">    -16.48328984 </i>
    <i name="e_wo_entrp">    -16.48062038 </i>
    <i name="e_0_energy">    -16.48240002 </i>
   </energy>
  </scstep>
  <scstep>
   <time name="dav">    6.03    6.03</time>
   <time name="total">    8.21    8.23</time>
   <energy>
    <i name="e_fr_energy">    -16.48329512 </i>
    <i name="e_wo_entrp">    -16.48062291 </i>
    <i name="e_0_energy">    -16.48240438 </i>
   </energy>
  </scstep>
  <scstep>
   <time name="dav">    4.32    4.32</time>
   <time name="total">    6.51    6.53</time>
   <energy>
    <i name="e_fr_energy">    -16.48329804 </i>
    <i name="e_wo_entrp">    -16.48062585 </i>
    <i name="e_0_energy">    -16.48240731 </i>
   </energy>
  </scstep>
  <scstep>
   <time name="dav">    4.00    4.00</time>
   <time name="total">    5.71    5.73</time>
   <energy>
    <i name="alphaZ">    121.90195906 </i>
    <i name="ewald">  -1184.88078334 </i>
    <i name="hartreedc">   -189.83812884 </i>
    <i name="XCdc">      8.60181755 </i>
    <i name="pawpsdc">   1441.66664772 </i>
    <i name="pawaedc">  -1459.77049299 </i>
    <i name="eentropy">     -0.00267235 </i>
    <i name="bandstr">     57.20960822 </i>
    <i name="atom">   1188.62874684 </i>
    <i name="e_fr_energy">    -16.48329813 </i>
    <i name="e_wo_entrp">    -16.48062577 </i>
    <i name="e_0_energy">    -16.48240734 </i>
   </energy>
  </scstep>
  <structure>
   <crystal>
    <varray name="basis" >
     <v>       2.83055312      -0.00000000       0.00000000 </v>
     <v>       0.00000000       2.83055312       0.00000000 </v>
     <v>       0.00000000       0.00000000       2.83055312 </v>
    </varray>
    <i name="volume">     22.67847918 </i>
    <varray name="rec_basis" >
     <v>       0.35328784      -0.00000000      -0.00000000 </v>
     <v>       0.00000000       0.35328784      -0.00000000 </v>
     <v>      -0.00000000      -0.00000000       0.35328784 </v>
    </varray>
   </crystal>
   <varray name="positions" >
    <v>      -0.00000000      -0.00000000      -0.00000000 </v>
    <v>       0.50000000       0.50000000       0.50000000 </v>
   </varray>
  </structure>
  <varray name="forces" >
   <v>       0.00000000      -0.00000000      -0.00000000 </v>
   <v>      -0.00000000       0.00000000       0.00000000 </v>
  </varray>
  <varray name="stress" >
   <v>      -0.16100115       0.00000000      -0.00000000 </v>
   <v>      -0.00000000      -0.16100115       0.00000000 </v>
   <v>       0.00000000      -0.00000000      -0.16100115 </v>
  </varray>
  <energy>
   <i name="e_fr_energy">    -16.48329813 </i>
   <i name="e_wo_entrp">    -16.48062577 </i>
   <i name="e_0_energy">    -16.48240734 </i>
  </energy>
  <time name="totalsc">   82.57   85.80</time>
  <eigenvalues>
   <array>
    <dimension dim="1">band</dimension>
    <dimension dim="2">kpoint</dimension>
    <dimension dim="3">spin</dimension>
    <field>eigene</field>
    <field>occ</field>
    <set>
     <set comment="spin 1">
      <set comment="kpoint 1">
       <r>   -2.5976    1.0000 </r>
       <r>    0.9867    1.0000 </r>
       <r>    0.9867    1.0000 </r>
       <r>    3.5385    1.0000 </r>
       <r>    3.5385    1.0000 </r>
       <r>    3.5385    1.0000 </r>
       <r>    4.7514    1.0000 </r>
       <r>    4.7514    1.0000 </r>
       <r>    5.9637    0.0724 </r>
       <r>    5.9637    0.0724 </r>
       <r>    5.9637    0.0724 </r>
       <r>   15.7956    0.0000 </r>
       <r>   15.7956    0.0000 </r>
       <r>   15.7956    0.0000 </r>
       <r>   21.5116    0.0000 </r>
       <r>   21.5116    0.0000 </r>
       <r>   26.6503    0.0000 </r>
       <r>   30.8875    0.0000 </r>
       <r>   30.8875    0.0000 </r>
       <r>   30.8875    0.0000 </r>
      </set>
      <set comment="kpoint 2">
       <r>   -2.5050    1.0000 </r>
       <r>    1.0262    1.0000 </r>
       <r>    1.0279    1.0000 </r>
       <r>    3.5377    1.0000 </r>
       <r>    3.5377    1.0000 </r>
       <r>    3.5639    1.0000 </r>
       <r>    4.7101    1.0000 </r>
       <r>    4.7677    1.0000 </r>
       <r>    5.8854    0.3144 </r>
       <r>    5.8854    0.3144 </r>
       <r>    5.9361    0.1415 </r>
       <r>   15.1247    0.0000 </r>
       <r>   15.9711    0.0000 </r>
       <r>   15.9711    0.0000 </r>
       <r>   21.5382    0.0000 </r>
       <r>   22.0181    0.0000 </r>
       <r>   26.9504    0.0000 </r>
       <r>   30.2537    0.0000 </r>
       <r>   30.8065    0.0000 </r>
       <r>   30.8065    0.0000 </r>
      </set>
      <set comment="kpoint 3">
       <r>   -2.2311    1.0000 </r>
       <r>    1.1433    1.0000 </r>
       <r>    1.1439    1.0000 </r>
       <r>    3.5380    1.0000 </r>
       <r>    3.5380    1.0000 </r>
       <r>    3.6389    1.0000 </r>
       <r>    4.5878    1.0000 </r>
       <r>    4.8156    1.0000 </r>
       <r>    5.6698    1.0022 </r>
       <r>    5.6698    1.0022 </r>
       <r>    5.8547    0.4392 </r>
       <r>   13.6516    0.0000 </r>
       <r>   16.4771    0.0000 </r>
       <r>   16.4771    0.0000 </r>
       <r>   21.6197    0.0000 </r>
       <r>   22.8990    0.0000 </r>
       <r>   27.9591    0.0000 </r>
       <r>   28.9873    0.0000 </r>
       <r>   30.4466    0.0000 </r>
       <r>   30.4466    0.0000 </r>
      </set>
      <set comment="kpoint 4">
       <r>   -1.7875    1.0000 </r>
       <r>    1.3117    1.0000 </r>
       <r>    1.3337    1.0000 </r>
       <r>    3.5468    1.0000 </r>
       <r>    3.5468    1.0000 </r>
       <r>    3.7609    1.0000 </r>
       <r>    4.3891    1.0000 </r>
       <r>    4.8928    1.0000 </r>
       <r>    5.3635    1.0019 </r>
       <r>    5.3635    1.0019 </r>
       <r>    5.7233    0.9130 </r>
       <r>   11.9617    0.0000 </r>
       <r>   17.2643    0.0000 </r>
       <r>   17.2643    0.0000 </r>
       <r>   21.7607    0.0000 </r>
       <r>   23.5390    0.0000 </r>
       <r>   27.6616    0.0000 </r>
       <r>   29.6050    0.0000 </r>
       <r>   29.6050    0.0000 </r>
       <r>   29.7349    0.0000 </r>
      </set>
      <set comment="kpoint 5">
       <r>   -1.1968    1.0000 </r>
       <r>    1.4910    1.0000 </r>
       <r>    1.5904    1.0000 </r>
       <r>    3.5746    1.0000 </r>
       <r>    3.5746    1.0000 </r>
       <r>    3.9251    1.0000 </r>
       <r>    4.1224    1.0000 </r>
       <r>    4.9997    1.0000 </r>
       <r>    5.0176    1.0000 </r>
       <r>    5.0177    1.0000 </r>
       <r>    5.5483    1.0294 </r>
       <r>   10.2921   -0.0000 </r>
       <r>   18.2764    0.0000 </r>
       <r>   18.2764    0.0000 </r>
       <r>   21.9690    0.0000 </r>
       <r>   23.9598    0.0000 </r>
       <r>   26.4445    0.0000 </r>
       <r>   28.3306    0.0000 </r>
       <r>   28.3306    0.0000 </r>
       <r>   30.1362    0.0000 </r>
      </set>
      <set comment="kpoint 6">
       <r>   -0.4978    1.0000 </r>
       <r>    1.6215    1.0000 </r>
       <r>    1.9036    1.0000 </r>
       <r>    3.6335    1.0000 </r>
       <r>    3.6335    1.0000 </r>
       <r>    3.7990    1.0000 </r>
       <r>    4.1250    1.0000 </r>
       <r>    4.6740    1.0000 </r>
       <r>    4.6740    1.0000 </r>
       <r>    5.1483    1.0000 </r>
       <r>    5.3381    1.0011 </r>
       <r>    8.7567   -0.0000 </r>
       <r>   19.4644    0.0000 </r>
       <r>   19.4644    0.0000 </r>
       <r>   22.2556    0.0000 </r>
       <r>   24.3390    0.0000 </r>
       <r>   25.3805    0.0000 </r>
       <r>   26.8394    0.0000 </r>
       <r>   26.8394    0.0000 </r>
       <r>   28.6384    0.0000 </r>
      </set>
      <set comment="kpoint 7">
       <r>    0.2427    1.0000 </r>
       <r>    1.6212    1.0000 </r>
       <r>    2.2606    1.0000 </r>
       <r>    3.4336    1.0000 </r>
       <r>    3.7348    1.0000 </r>
       <r>    3.7348    1.0000 </r>
       <r>    4.3525    1.0000 </r>
       <r>    4.3612    1.0000 </r>
       <r>    4.3612    1.0000 </r>
       <r>    5.1023    1.0000 </r>
       <r>    5.3772    1.0025 </r>
       <r>    7.4439   -0.0000 </r>
       <r>   20.7888    0.0000 </r>
       <r>   20.7888    0.0000 </r>
       <r>   22.6336    0.0000 </r>
       <r>   24.4773    0.0000 </r>
       <r>   24.8024    0.0000 </r>
       <r>   25.2794    0.0000 </r>
       <r>   25.2794    0.0000 </r>
       <r>   27.3393    0.0000 </r>
      </set>
      <set comment="kpoint 8">
       <r>    0.9178    1.0000 </r>
       <r>    1.4001    1.0000 </r>
       <r>    2.6461    1.0000 </r>
       <r>    3.0432    1.0000 </r>
       <r>    3.8875    1.0000 </r>
       <r>    3.8875    1.0000 </r>
       <r>    4.0965    1.0000 </r>
       <r>    4.0965    1.0000 </r>
       <r>    4.5984    1.0000 </r>
       <r>    4.8520    1.0000 </r>
       <r>    5.7691    0.7812 </r>
       <r>    6.4365   -0.0001 </r>
       <r>   22.2184    0.0000 </r>
       <r>   22.2184    0.0000 </r>
       <r>   23.1189    0.0000 </r>
       <r>   23.7251    0.0000 </r>
       <r>   23.7251    0.0000 </r>
       <r>   23.7280    0.0000 </r>
       <r>   25.4294    0.0000 </r>
       <r>   26.2680    0.0000 </r>
      </set>
      <set comment="kpoint 9">
       <r>   -2.4132    1.0000 </r>
       <r>    1.0649    1.0000 </r>
       <r>    1.0692    1.0000 </r>
       <r>    3.4882    1.0000 </r>
       <r>    3.5345    1.0000 </r>
       <r>    3.6377    1.0000 </r>
       <r>    4.7018    1.0000 </r>
       <r>    4.7555    1.0000 </r>
       <r>    5.7458    0.8544 </r>
       <r>    5.8071    0.6382 </r>
       <r>    5.9753    0.0491 </r>
       <r>   15.1423    0.0000 </r>
       <r>   15.4387    0.0000 </r>
       <r>   16.1412    0.0000 </r>
       <r>   21.7992    0.0000 </r>
       <r>   22.3335    0.0000 </r>
       <r>   27.2255    0.0000 </r>
       <r>   29.6918    0.0000 </r>
       <r>   30.6111    0.0000 </r>
       <r>   30.7565    0.0000 </r>
      </set>
      <set comment="kpoint 10">
       <r>   -2.1415    1.0000 </r>
       <r>    1.1765    1.0000 </r>
       <r>    1.1885    1.0000 </r>
       <r>    3.4488    1.0000 </r>
       <r>    3.5276    1.0000 </r>
       <r>    3.7517    1.0000 </r>
       <r>    4.6013    1.0000 </r>
       <r>    4.7946    1.0000 </r>
       <r>    5.4924    1.0169 </r>
       <r>    5.5926    1.0354 </r>
       <r>    5.9461    0.1143 </r>
       <r>   13.7695    0.0000 </r>
       <r>   15.7996    0.0000 </r>
       <r>   16.6332    0.0000 </r>
       <r>   21.9680    0.0000 </r>
       <r>   23.2358    0.0000 </r>
       <r>   28.1662    0.0000 </r>
       <r>   28.4160    0.0000 </r>
       <r>   30.1557    0.0000 </r>
       <r>   30.4757    0.0000 </r>
      </set>
      <set comment="kpoint 11">
       <r>   -1.7022    1.0000 </r>
       <r>    1.3461    1.0000 </r>
       <r>    1.3727    1.0000 </r>
       <r>    3.4314    1.0000 </r>
       <r>    3.5232    1.0000 </r>
       <r>    3.8984    1.0000 </r>
       <r>    4.4238    1.0000 </r>
       <r>    4.8733    1.0000 </r>
       <r>    5.1737    1.0000 </r>
       <r>    5.2909    1.0004 </r>
       <r>    5.8456    0.4772 </r>
       <r>   12.0767    0.0000 </r>
       <r>   16.5210    0.0000 </r>
       <r>   17.4026    0.0000 </r>
       <r>   22.1466    0.0000 </r>
       <r>   23.9663    0.0000 </r>
       <r>   27.0220    0.0000 </r>
       <r>   29.2680    0.0000 </r>
       <r>   29.6916    0.0000 </r>
       <r>   29.8729    0.0000 </r>
      </set>
      <set comment="kpoint 12">
       <r>   -1.1183    1.0000 </r>
       <r>    1.5269    1.0000 </r>
       <r>    1.6200    1.0000 </r>
       <r>    3.4417    1.0000 </r>
       <r>    3.5233    1.0000 </r>
       <r>    4.0775    1.0000 </r>
       <r>    4.1964    1.0000 </r>
       <r>    4.8280    1.0000 </r>
       <r>    4.9562    1.0000 </r>
       <r>    4.9818    1.0000 </r>
       <r>    5.6893    0.9776 </r>
       <r>   10.4004   -0.0000 </r>
       <r>   17.4379    0.0000 </r>
       <r>   18.3969    0.0000 </r>
       <r>   22.3971    0.0000 </r>
       <r>   24.4733    0.0000 </r>
       <r>   25.6816    0.0000 </r>
       <r>   28.0589    0.0000 </r>
       <r>   28.4222    0.0000 </r>
       <r>   31.1993    0.0000 </r>
      </set>
      <set comment="kpoint 13">
       <r>   -0.4300    1.0000 </r>
       <r>    1.6548    1.0000 </r>
       <r>    1.9224    1.0000 </r>
       <r>    3.4884    1.0000 </r>
       <r>    3.4944    1.0000 </r>
       <r>    3.9761    1.0000 </r>
       <r>    4.2859    1.0000 </r>
       <r>    4.4896    1.0000 </r>
       <r>    4.6349    1.0000 </r>
       <r>    5.1323    1.0000 </r>
       <r>    5.4906    1.0165 </r>
       <r>    8.8534   -0.0000 </r>
       <r>   18.4898    0.0000 </r>
       <r>   19.5692    0.0000 </r>
       <r>   22.7415    0.0000 </r>
       <r>   24.4173    0.0000 </r>
       <r>   24.9421    0.0000 </r>
       <r>   26.7799    0.0000 </r>
       <r>   26.9223    0.0000 </r>
       <r>   29.7179    0.0000 </r>
      </set>
      <set comment="kpoint 14">
       <r>    0.2952    1.0000 </r>
       <r>    1.6490    1.0000 </r>
       <r>    2.2653    1.0000 </r>
       <r>    3.3167    1.0000 </r>
       <r>    3.5803    1.0000 </r>
       <r>    3.9040    1.0000 </r>
       <r>    4.1839    1.0000 </r>
       <r>    4.3599    1.0000 </r>
       <r>    4.5176    1.0000 </r>
       <r>    5.2622    1.0002 </r>
       <r>    5.3681    1.0021 </r>
       <r>    7.5200   -0.0000 </r>
       <r>   19.6272    0.0000 </r>
       <r>   20.8811    0.0000 </r>
       <r>   23.2036    0.0000 </r>
       <r>   23.2037    0.0000 </r>
       <r>   25.3572    0.0000 </r>
       <r>   25.5082    0.0000 </r>
       <r>   25.6009    0.0000 </r>
       <r>   28.3699    0.0000 </r>
      </set>
      <set comment="kpoint 15">
       <r>    0.9535    1.0000 </r>
       <r>    1.4260    1.0000 </r>
       <r>    2.6310    1.0000 </r>
       <r>    2.9960    1.0000 </r>
       <r>    3.7250    1.0000 </r>
       <r>    3.9265    1.0000 </r>
       <r>    3.9888    1.0000 </r>
       <r>    4.1457    1.0000 </r>
       <r>    4.7643    1.0000 </r>
       <r>    5.0162    1.0000 </r>
       <r>    5.7801    0.7423 </r>
       <r>    6.4809   -0.0000 </r>
       <r>   20.8095    0.0000 </r>
       <r>   22.0059    0.0000 </r>
       <r>   22.3016    0.0000 </r>
       <r>   23.8033    0.0000 </r>
       <r>   23.8138    0.0000 </r>
       <r>   24.6058    0.0000 </r>
       <r>   26.2504    0.0000 </r>
       <r>   27.2044    0.0000 </r>
      </set>
      <set comment="kpoint 16">
       <r>   -1.8771    1.0000 </r>
       <r>    1.2722    1.0000 </r>
       <r>    1.3166    1.0000 </r>
       <r>    3.3479    1.0000 </r>
       <r>    3.5016    1.0000 </r>
       <r>    3.9246    1.0000 </r>
       <r>    4.6020    1.0000 </r>
       <r>    4.7690    1.0000 </r>
       <r>    5.1857    1.0000 </r>
       <r>    5.3842    1.0029 </r>
       <r>    6.0080    0.0006 </r>
       <r>   13.7523    0.0000 </r>
       <r>   14.7265    0.0000 </r>
       <r>   17.0886    0.0000 </r>
       <r>   22.3101    0.0000 </r>
       <r>   24.2361    0.0000 </r>
       <r>   27.1010    0.0000 </r>
       <r>   28.8988    0.0000 </r>
       <r>   29.6377    0.0000 </r>
       <r>   30.4496    0.0000 </r>
      </set>
      <set comment="kpoint 17">
       <r>   -1.4513    1.0000 </r>
       <r>    1.4172    1.0000 </r>
       <r>    1.5112    1.0000 </r>
       <r>    3.2750    1.0000 </r>
       <r>    3.4706    1.0000 </r>
       <r>    4.1219    1.0000 </r>
       <r>    4.5036    1.0000 </r>
       <r>    4.8239    1.0000 </r>
       <r>    4.8366    1.0000 </r>
       <r>    5.0995    1.0000 </r>
       <r>    5.9883    0.0268 </r>
       <r>   12.3367    0.0000 </r>
       <r>   15.0789    0.0000 </r>
       <r>   17.8097    0.0000 </r>
       <r>   22.5306    0.0000 </r>
       <r>   25.2343    0.0000 </r>
       <r>   25.6124    0.0000 </r>
       <r>   28.8248    0.0000 </r>
       <r>   29.9284    0.0000 </r>
       <r>   30.3539    0.0000 </r>
      </set>
      <set comment="kpoint 18">
       <r>   -0.8903    1.0000 </r>
       <r>    1.5791    1.0000 </r>
       <r>    1.7529    1.0000 </r>
       <r>    3.2386    1.0000 </r>
       <r>    3.4359    1.0000 </r>
       <r>    4.3400    1.0000 </r>
       <r>    4.3525    1.0000 </r>
       <r>    4.4803    1.0000 </r>
       <r>    4.8010    1.0000 </r>
       <r>    4.9317    1.0000 </r>
       <r>    5.8950    0.2778 </r>
       <r>   10.6736   -0.0000 </r>
       <r>   15.8705    0.0000 </r>
       <r>   18.7543    0.0000 </r>
       <r>   22.7734    0.0000 </r>
       <r>   24.1442    0.0000 </r>
       <r>   25.9746    0.0000 </r>
       <r>   27.7650    0.0000 </r>
       <r>   28.6936    0.0000 </r>
       <r>   32.4608    0.0000 </r>
      </set>
      <set comment="kpoint 19">
       <r>   -0.2384    1.0000 </r>
       <r>    1.6933    1.0000 </r>
       <r>    2.0307    1.0000 </r>
       <r>    3.2471    1.0000 </r>
       <r>    3.3691    1.0000 </r>
       <r>    4.1446    1.0000 </r>
       <r>    4.2218    1.0000 </r>
       <r>    4.5439    1.0000 </r>
       <r>    4.5753    1.0000 </r>
       <r>    5.0853    1.0000 </r>
       <r>    5.7422    0.8646 </r>
       <r>    9.1052   -0.0000 </r>
       <r>   16.8110    0.0000 </r>
       <r>   19.8816    0.0000 </r>
       <r>   22.7413    0.0000 </r>
       <r>   23.0873    0.0000 </r>
       <r>   26.6237    0.0000 </r>
       <r>   26.6529    0.0000 </r>
       <r>   27.1657    0.0000 </r>
       <r>   31.6198    0.0000 </r>
      </set>
      <set comment="kpoint 20">
       <r>    0.4342    1.0000 </r>
       <r>    1.6758    1.0000 </r>
       <r>    2.3373    1.0000 </r>
       <r>    3.2145    1.0000 </r>
       <r>    3.3079    1.0000 </r>
       <r>    3.8495    1.0000 </r>
       <r>    4.1765    1.0000 </r>
       <r>    4.3653    1.0000 </r>
       <r>    4.8220    1.0000 </r>
       <r>    5.3404    1.0012 </r>
       <r>    5.5450    1.0287 </r>
       <r>    7.7229   -0.0000 </r>
       <r>   17.8499    0.0000 </r>
       <r>   21.1565    0.0000 </r>
       <r>   21.4115    0.0000 </r>
       <r>   23.5035    0.0000 </r>
       <r>   25.5859    0.0000 </r>
       <r>   25.6285    0.0000 </r>
       <r>   27.3326    0.0000 </r>
       <r>   30.3384    0.0000 </r>
      </set>
      <set comment="kpoint 21">
       <r>    1.0315    1.0000 </r>
       <r>    1.4607    1.0000 </r>
       <r>    2.6568    1.0000 </r>
       <r>    2.9626    1.0000 </r>
       <r>    3.4273    1.0000 </r>
       <r>    3.6083    1.0000 </r>
       <r>    4.2065    1.0000 </r>
       <r>    4.2649    1.0000 </r>
       <r>    5.0727    1.0000 </r>
       <r>    5.3175    1.0007 </r>
       <r>    5.8121    0.6177 </r>
       <r>    6.6041   -0.0000 </r>
       <r>   18.9664    0.0000 </r>
       <r>   20.1538    0.0000 </r>
       <r>   22.5494    0.0000 </r>
       <r>   24.0347    0.0000 </r>
       <r>   24.0514    0.0000 </r>
       <r>   24.7560    0.0000 </r>
       <r>   28.1759    0.0000 </r>
       <r>   29.1797    0.0000 </r>
      </set>
      <set comment="kpoint 22">
       <r>   -1.0521    1.0000 </r>
       <r>    1.5140    1.0000 </r>
       <r>    1.7278    1.0000 </r>
       <r>    3.1459    1.0000 </r>
       <r>    3.4210    1.0000 </r>
       <r>    4.3665    1.0000 </r>
       <r>    4.4692    1.0000 </r>
       <r>    4.5578    1.0000 </r>
       <r>    4.7940    1.0000 </r>
       <r>    4.8520    1.0000 </r>
       <r>    6.0565   -0.0316 </r>
       <r>   12.1809    0.0000 </r>
       <r>   14.0893    0.0000 </r>
       <r>   18.4641    0.0000 </r>
       <r>   22.7500    0.0000 </r>
       <r>   24.0407    0.0000 </r>
       <r>   26.6820    0.0000 </r>
       <r>   28.2051    0.0000 </r>
       <r>   30.1078    0.0000 </r>
       <r>   31.3720    0.0000 </r>
      </set>
      <set comment="kpoint 23">
       <r>   -0.5369    1.0000 </r>
       <r>    1.6099    1.0000 </r>
       <r>    1.9940    1.0000 </r>
       <r>    3.0580    1.0000 </r>
       <r>    3.3910    1.0000 </r>
       <r>    4.1090    1.0000 </r>
       <r>    4.5125    1.0000 </r>
       <r>    4.6183    1.0000 </r>
       <r>    4.6224    1.0000 </r>
       <r>    4.8637    1.0000 </r>
       <r>    6.0434   -0.0267 </r>
       <r>   10.9167   -0.0000 </r>
       <r>   14.3951    0.0000 </r>
       <r>   19.3365    0.0000 </r>
       <r>   22.4969    0.0000 </r>
       <r>   22.9647    0.0000 </r>
       <r>   27.3607    0.0000 </r>
       <r>   27.8257    0.0000 </r>
       <r>   29.1343    0.0000 </r>
       <r>   31.4007    0.0000 </r>
      </set>
      <set comment="kpoint 24">
       <r>    0.0410    1.0000 </r>
       <r>    1.6586    1.0000 </r>
       <r>    2.2829    1.0000 </r>
       <r>    3.0210    1.0000 </r>
       <r>    3.3625    1.0000 </r>
       <r>    3.7805    1.0000 </r>
       <r>    4.4508    1.0000 </r>
       <r>    4.4567    1.0000 </r>
       <r>    4.8831    1.0000 </r>
       <r>    5.0107    1.0000 </r>
       <r>    5.9569    0.0876 </r>
       <r>    9.3997   -0.0000 </r>
       <r>   15.1850    0.0000 </r>
       <r>   20.3952    0.0000 </r>
       <r>   21.0309    0.0000 </r>
       <r>   23.2376    0.0000 </r>
       <r>   26.4202    0.0000 </r>
       <r>   27.5493    0.0000 </r>
       <r>   28.7105    0.0000 </r>
       <r>   32.0621    0.0000 </r>
      </set>
      <set comment="kpoint 25">
       <r>    0.6064    1.0000 </r>
       <r>    1.6069    1.0000 </r>
       <r>    2.5745    1.0000 </r>
       <r>    3.0426    1.0000 </r>
       <r>    3.2770    1.0000 </r>
       <r>    3.5010    1.0000 </r>
       <r>    4.3936    1.0000 </r>
       <r>    4.4385    1.0000 </r>
       <r>    5.1416    1.0000 </r>
       <r>    5.2926    1.0004 </r>
       <r>    5.8099    0.6270 </r>
       <r>    7.9830   -0.0000 </r>
       <r>   16.1427    0.0000 </r>
       <r>   19.6588    0.0000 </r>
       <r>   21.6105    0.0000 </r>
       <r>   23.6055    0.0000 </r>
       <r>   25.5189    0.0000 </r>
       <r>   25.9496    0.0000 </r>
       <r>   29.5332    0.0000 </r>
       <r>   32.3349    0.0000 </r>
      </set>
      <set comment="kpoint 26">
       <r>    1.0815    1.0000 </r>
       <r>    1.4185    1.0000 </r>
       <r>    2.8537    1.0000 </r>
       <r>    3.0993    1.0000 </r>
       <r>    3.1286    1.0000 </r>
       <r>    3.2818    1.0000 </r>
       <r>    4.4059    1.0000 </r>
       <r>    4.4350    1.0000 </r>
       <r>    5.3894    1.0032 </r>
       <r>    5.6162    1.0335 </r>
       <r>    5.8602    0.4161 </r>
       <r>    6.7751   -0.0000 </r>
       <r>   17.2136    0.0000 </r>
       <r>   18.3860    0.0000 </r>
       <r>   22.9562    0.0000 </r>
       <r>   24.0980    0.0000 </r>
       <r>   24.4096    0.0000 </r>
       <r>   24.7351    0.0000 </r>
       <r>   30.4055    0.0000 </r>
       <r>   31.3554    0.0000 </r>
      </set>
      <set comment="kpoint 27">
       <r>   -0.1024    1.0000 </r>
       <r>    1.6120    1.0000 </r>
       <r>    2.2997    1.0000 </r>
       <r>    2.9204    1.0000 </r>
       <r>    3.4274    1.0000 </r>
       <r>    3.7545    1.0000 </r>
       <r>    4.4763    1.0000 </r>
       <r>    4.6148    1.0000 </r>
       <r>    4.8307    1.0000 </r>
       <r>    4.9068    1.0000 </r>
       <r>    6.1125   -0.0331 </r>
       <r>   10.6112   -0.0000 </r>
       <r>   13.6554    0.0000 </r>
       <r>   20.1255    0.0000 </r>
       <r>   20.9027    0.0000 </r>
       <r>   23.1416    0.0000 </r>
       <r>   26.7715    0.0000 </r>
       <r>   29.5125    0.0000 </r>
       <r>   29.5955    0.0000 </r>
       <r>   29.8121    0.0000 </r>
      </set>
      <set comment="kpoint 28">
       <r>    0.3480    1.0000 </r>
       <r>    1.5662    1.0000 </r>
       <r>    2.6321    1.0000 </r>
       <r>    2.8375    1.0000 </r>
       <r>    3.4403    1.0000 </r>
       <r>    3.5315    1.0000 </r>
       <r>    4.4193    1.0000 </r>
       <r>    4.6320    1.0000 </r>
       <r>    4.9216    1.0000 </r>
       <r>    5.1833    1.0000 </r>
       <r>    6.1014   -0.0346 </r>
       <r>    9.5153   -0.0000 </r>
       <r>   13.9272    0.0000 </r>
       <r>   19.4065    0.0000 </r>
       <r>   21.0994    0.0000 </r>
       <r>   23.3681    0.0000 </r>
       <r>   26.0542    0.0000 </r>
       <r>   27.9972    0.0000 </r>
       <r>   30.4839    0.0000 </r>
       <r>   30.8120    0.0000 </r>
      </set>
      <set comment="kpoint 29">
       <r>    0.7469    1.0000 </r>
       <r>    1.4608    1.0000 </r>
       <r>    2.8180    1.0000 </r>
       <r>    2.9566    1.0000 </r>
       <r>    3.1818    1.0000 </r>
       <r>    3.5806    1.0000 </r>
       <r>    4.4523    1.0000 </r>
       <r>    4.6515    1.0000 </r>
       <r>    5.2226    1.0001 </r>
       <r>    5.4431    1.0084 </r>
       <r>    6.0174   -0.0089 </r>
       <r>    8.1878   -0.0000 </r>
       <r>   14.6812    0.0000 </r>
       <r>   18.0264    0.0000 </r>
       <r>   22.2351    0.0000 </r>
       <r>   23.6802    0.0000 </r>
       <r>   25.3189    0.0000 </r>
       <r>   26.4081    0.0000 </r>
       <r>   31.3479    0.0000 </r>
       <r>   31.8035    0.0000 </r>
      </set>
      <set comment="kpoint 30">
       <r>    1.0606    1.0000 </r>
       <r>    1.2938    1.0000 </r>
       <r>    2.8676    1.0000 </r>
       <r>    2.9892    1.0000 </r>
       <r>    3.2458    1.0000 </r>
       <r>    3.4708    1.0000 </r>
       <r>    4.5392    1.0000 </r>
       <r>    4.6228    1.0000 </r>
       <r>    5.6761    0.9951 </r>
       <r>    5.8716    0.3693 </r>
       <r>    5.9110    0.2204 </r>
       <r>    6.9404   -0.0000 </r>
       <r>   15.6513    0.0000 </r>
       <r>   16.7721    0.0000 </r>
       <r>   23.5109    0.0000 </r>
       <r>   24.1043    0.0000 </r>
       <r>   24.6538    0.0000 </r>
       <r>   24.9075    0.0000 </r>
       <r>   32.3255    0.0000 </r>
       <r>   32.6098    0.0000 </r>
      </set>
      <set comment="kpoint 31">
       <r>    0.6197    1.0000 </r>
       <r>    1.4385    1.0000 </r>
       <r>    2.7109    1.0000 </r>
       <r>    3.0245    1.0000 </r>
       <r>    3.1464    1.0000 </r>
       <r>    3.8796    1.0000 </r>
       <r>    4.4495    1.0000 </r>
       <r>    4.7430    1.0000 </r>
       <r>    4.8740    1.0000 </r>
       <r>    5.4626    1.0113 </r>
       <r>    6.1663   -0.0217 </r>
       <r>    9.1107   -0.0000 </r>
       <r>   13.4024    0.0000 </r>
       <r>   17.9066    0.0000 </r>
       <r>   21.9794    0.0000 </r>
       <r>   23.5373    0.0000 </r>
       <r>   25.5737    0.0000 </r>
       <r>   27.9814    0.0000 </r>
       <r>   29.5899    0.0000 </r>
       <r>   32.6811    0.0000 </r>
      </set>
      <set comment="kpoint 32">
       <r>    0.8303    1.0000 </r>
       <r>    1.2941    1.0000 </r>
       <r>    2.6506    1.0000 </r>
       <r>    2.9135    1.0000 </r>
       <r>    3.4129    1.0000 </r>
       <r>    4.1304    1.0000 </r>
       <r>    4.5372    1.0000 </r>
       <r>    4.7960    1.0000 </r>
       <r>    5.1300    1.0000 </r>
       <r>    5.7098    0.9421 </r>
       <r>    6.1522   -0.0249 </r>
       <r>    8.1623   -0.0000 </r>
       <r>   13.6582    0.0000 </r>
       <r>   16.5534    0.0000 </r>
       <r>   23.0175    0.0000 </r>
       <r>   23.7773    0.0000 </r>
       <r>   25.0433    0.0000 </r>
       <r>   26.8351    0.0000 </r>
       <r>   30.0477    0.0000 </r>
       <r>   33.1629    0.0000 </r>
      </set>
      <set comment="kpoint 33">
       <r>    0.9967    1.0000 </r>
       <r>    1.1464    1.0000 </r>
       <r>    2.6629    1.0000 </r>
       <r>    2.7508    1.0000 </r>
       <r>    3.7571    1.0000 </r>
       <r>    4.0226    1.0000 </r>
       <r>    4.6523    1.0000 </r>
       <r>    4.7527    1.0000 </r>
       <r>    5.9142    0.2095 </r>
       <r>    5.9453    0.1163 </r>
       <r>    6.0651   -0.0337 </r>
       <r>    7.0223   -0.0000 </r>
       <r>   14.3788    0.0000 </r>
       <r>   15.3676    0.0000 </r>
       <r>   24.1091    0.0000 </r>
       <r>   24.1939    0.0000 </r>
       <r>   24.5378    0.0000 </r>
       <r>   25.4831    0.0000 </r>
       <r>   30.9337    0.0000 </r>
       <r>   31.9852    0.0000 </r>
      </set>
      <set comment="kpoint 34">
       <r>    0.8815    1.0000 </r>
       <r>    1.1418    1.0000 </r>
       <r>    2.5510    1.0000 </r>
       <r>    2.7098    1.0000 </r>
       <r>    3.8784    1.0000 </r>
       <r>    4.6375    1.0000 </r>
       <r>    4.6568    1.0000 </r>
       <r>    4.9137    1.0000 </r>
       <r>    5.1688    1.0000 </r>
       <r>    5.9294    0.1612 </r>
       <r>    6.2086   -0.0129 </r>
       <r>    7.7289   -0.0000 </r>
       <r>   13.2744    0.0000 </r>
       <r>   15.2764    0.0000 </r>
       <r>   23.9231    0.0000 </r>
       <r>   23.9387    0.0000 </r>
       <r>   24.7241    0.0000 </r>
       <r>   26.8051    0.0000 </r>
       <r>   29.4449    0.0000 </r>
       <r>   31.8752    0.0000 </r>
      </set>
      <set comment="kpoint 35">
       <r>    0.9374    1.0000 </r>
       <r>    1.0213    1.0000 </r>
       <r>    2.5262    1.0000 </r>
       <r>    2.5793    1.0000 </r>
       <r>    4.2924    1.0000 </r>
       <r>    4.5949    1.0000 </r>
       <r>    4.7397    1.0000 </r>
       <r>    4.8345    1.0000 </r>
       <r>    5.9787    0.0429 </r>
       <r>    6.0914   -0.0353 </r>
       <r>    6.1869   -0.0171 </r>
       <r>    6.9258   -0.0000 </r>
       <r>   13.5279    0.0000 </r>
       <r>   14.2424    0.0000 </r>
       <r>   24.1330    0.0000 </r>
       <r>   24.4071    0.0000 </r>
       <r>   24.9650    0.0000 </r>
       <r>   26.0148    0.0000 </r>
       <r>   29.8430    0.0000 </r>
       <r>   30.7449    0.0000 </r>
      </set>
      <set comment="kpoint 36">
       <r>    0.9140    1.0000 </r>
       <r>    0.9411    1.0000 </r>
       <r>    2.4649    1.0000 </r>
       <r>    2.4827    1.0000 </r>
       <r>    4.7397    1.0000 </r>
       <r>    4.7971    1.0000 </r>
       <r>    4.8079    1.0000 </r>
       <r>    4.9377    1.0000 </r>
       <r>    6.1801   -0.0186 </r>
       <r>    6.1991   -0.0146 </r>
       <r>    6.2318   -0.0091 </r>
       <r>    6.6006   -0.0000 </r>
       <r>   13.2237    0.0000 </r>
       <r>   13.4901    0.0000 </r>
       <r>   24.1901    0.0000 </r>
       <r>   24.2845    0.0000 </r>
       <r>   25.7216    0.0000 </r>
       <r>   26.1795    0.0000 </r>
       <r>   29.3737    0.0000 </r>
       <r>   29.7814    0.0000 </r>
      </set>
      <set comment="kpoint 37">
       <r>   -2.3221    1.0000 </r>
       <r>    1.1068    1.0000 </r>
       <r>    1.1068    1.0000 </r>
       <r>    3.4835    1.0000 </r>
       <r>    3.4835    1.0000 </r>
       <r>    3.7124    1.0000 </r>
       <r>    4.7202    1.0000 </r>
       <r>    4.7202    1.0000 </r>
       <r>    5.5606    1.0318 </r>
       <r>    5.8970    0.2702 </r>
       <r>    5.8970    0.2702 </r>
       <r>   15.3058    0.0000 </r>
       <r>   15.3058    0.0000 </r>
       <r>   15.7418    0.0000 </r>
       <r>   22.3733    0.0000 </r>
       <r>   22.3733    0.0000 </r>
       <r>   27.4806    0.0000 </r>
       <r>   29.5936    0.0000 </r>
       <r>   29.5936    0.0000 </r>
       <r>   31.1368    0.0000 </r>
      </set>
      <set comment="kpoint 38">
       <r>   -2.0524    1.0000 </r>
       <r>    1.2180    1.0000 </r>
       <r>    1.2246    1.0000 </r>
       <r>    3.4237    1.0000 </r>
       <r>    3.4709    1.0000 </r>
       <r>    3.8462    1.0000 </r>
       <r>    4.6169    1.0000 </r>
       <r>    4.7731    1.0000 </r>
       <r>    5.2710    1.0002 </r>
       <r>    5.6825    0.9872 </r>
       <r>    5.9184    0.1958 </r>
       <r>   13.8919    0.0000 </r>
       <r>   15.7741    0.0000 </r>
       <r>   16.1104    0.0000 </r>
       <r>   22.4957    0.0000 </r>
       <r>   23.4197    0.0000 </r>
       <r>   28.1805    0.0000 </r>
       <r>   28.3628    0.0000 </r>
       <r>   29.1699    0.0000 </r>
       <r>   31.0823    0.0000 </r>
      </set>
      <set comment="kpoint 39">
       <r>   -1.6170    1.0000 </r>
       <r>    1.3941    1.0000 </r>
       <r>    1.3983    1.0000 </r>
       <r>    3.3894    1.0000 </r>
       <r>    3.4537    1.0000 </r>
       <r>    4.0119    1.0000 </r>
       <r>    4.4539    1.0000 </r>
       <r>    4.8554    1.0000 </r>
       <r>    4.9349    1.0000 </r>
       <r>    5.3795    1.0027 </r>
       <r>    5.8576    0.4270 </r>
       <r>   12.1937    0.0000 </r>
       <r>   16.4919    0.0000 </r>
       <r>   16.8041    0.0000 </r>
       <r>   22.7100    0.0000 </r>
       <r>   24.2372    0.0000 </r>
       <r>   26.7418    0.0000 </r>
       <r>   28.2265    0.0000 </r>
       <r>   30.0029    0.0000 </r>
       <r>   30.5339    0.0000 </r>
      </set>
      <set comment="kpoint 40">
       <r>   -1.0396    1.0000 </r>
       <r>    1.5727    1.0000 </r>
       <r>    1.6402    1.0000 </r>
       <r>    3.3916    1.0000 </r>
       <r>    3.4297    1.0000 </r>
       <r>    4.2070    1.0000 </r>
       <r>    4.2513    1.0000 </r>
       <r>    4.5916    1.0000 </r>
       <r>    4.9657    1.0000 </r>
       <r>    5.0404    1.0000 </r>
       <r>    5.7303    0.8962 </r>
       <r>   10.5117   -0.0000 </r>
       <r>   17.3943    0.0000 </r>
       <r>   17.7023    0.0000 </r>
       <r>   23.0320    0.0000 </r>
       <r>   24.7981    0.0000 </r>
       <r>   25.3802    0.0000 </r>
       <r>   26.8899    0.0000 </r>
       <r>   29.5185    0.0000 </r>
       <r>   31.5171    0.0000 </r>
      </set>
      <set comment="kpoint 41">
       <r>   -0.3614    1.0000 </r>
       <r>    1.6968    1.0000 </r>
       <r>    1.9327    1.0000 </r>
       <r>    3.3728    1.0000 </r>
       <r>    3.4388    1.0000 </r>
       <r>    4.0576    1.0000 </r>
       <r>    4.2783    1.0000 </r>
       <r>    4.4263    1.0000 </r>
       <r>    4.7081    1.0000 </r>
       <r>    5.1189    1.0000 </r>
       <r>    5.5532    1.0304 </r>
       <r>    8.9562   -0.0000 </r>
       <r>   18.4201    0.0000 </r>
       <r>   18.7541    0.0000 </r>
       <r>   23.4844    0.0000 </r>
       <r>   24.1128    0.0000 </r>
       <r>   25.2996    0.0000 </r>
       <r>   25.4145    0.0000 </r>
       <r>   28.2792    0.0000 </r>
       <r>   30.0827    0.0000 </r>
      </set>
      <set comment="kpoint 42">
       <r>    0.3496    1.0000 </r>
       <r>    1.6842    1.0000 </r>
       <r>    2.2615    1.0000 </r>
       <r>    3.2161    1.0000 </r>
       <r>    3.5340    1.0000 </r>
       <r>    3.9649    1.0000 </r>
       <r>    4.0222    1.0000 </r>
       <r>    4.4130    1.0000 </r>
       <r>    4.6577    1.0000 </r>
       <r>    5.3428    1.0012 </r>
       <r>    5.3663    1.0020 </r>
       <r>    7.6075   -0.0000 </r>
       <r>   19.5162    0.0000 </r>
       <r>   19.9224    0.0000 </r>
       <r>   22.9215    0.0000 </r>
       <r>   23.9412    0.0000 </r>
       <r>   24.0945    0.0000 </r>
       <r>   25.8864    0.0000 </r>
       <r>   27.0241    0.0000 </r>
       <r>   28.7543    0.0000 </r>
      </set>
      <set comment="kpoint 43">
       <r>    0.9926    1.0000 </r>
       <r>    1.4575    1.0000 </r>
       <r>    2.6069    1.0000 </r>
       <r>    2.9409    1.0000 </r>
       <r>    3.6676    1.0000 </r>
       <r>    3.8265    1.0000 </r>
       <r>    4.0170    1.0000 </r>
       <r>    4.1764    1.0000 </r>
       <r>    4.8876    1.0000 </r>
       <r>    5.1164    1.0000 </r>
       <r>    5.8068    0.6395 </r>
       <r>    6.5423   -0.0000 </r>
       <r>   20.6411    0.0000 </r>
       <r>   21.1833    0.0000 </r>
       <r>   21.7739    0.0000 </r>
       <r>   22.5251    0.0000 </r>
       <r>   24.8876    0.0000 </r>
       <r>   25.8720    0.0000 </r>
       <r>   26.6399    0.0000 </r>
       <r>   27.5962    0.0000 </r>
      </set>
      <set comment="kpoint 44">
       <r>   -1.7895    1.0000 </r>
       <r>    1.3168    1.0000 </r>
       <r>    1.3484    1.0000 </r>
       <r>    3.3355    1.0000 </r>
       <r>    3.4268    1.0000 </r>
       <r>    4.0230    1.0000 </r>
       <r>    4.6233    1.0000 </r>
       <r>    4.7471    1.0000 </r>
       <r>    4.9426    1.0000 </r>
       <r>    5.5573    1.0312 </r>
       <r>    5.9294    0.1611 </r>
       <r>   13.9057    0.0000 </r>
       <r>   14.7744    0.0000 </r>
       <r>   16.4071    0.0000 </r>
       <r>   23.0386    0.0000 </r>
       <r>   24.2906    0.0000 </r>
       <r>   27.0723    0.0000 </r>
       <r>   28.4626    0.0000 </r>
       <r>   29.0589    0.0000 </r>
       <r>   31.2836    0.0000 </r>
      </set>
      <set comment="kpoint 45">
       <r>   -1.3668    1.0000 </r>
       <r>    1.4656    1.0000 </r>
       <r>    1.5365    1.0000 </r>
       <r>    3.2570    1.0000 </r>
       <r>    3.3875    1.0000 </r>
       <r>    4.2311    1.0000 </r>
       <r>    4.5261    1.0000 </r>
       <r>    4.5879    1.0000 </r>
       <r>    4.8099    1.0000 </r>
       <r>    5.2814    1.0003 </r>
       <r>    5.9219    0.1842 </r>
       <r>   12.4655    0.0000 </r>
       <r>   15.1455    0.0000 </r>
       <r>   17.0530    0.0000 </r>
       <r>   23.3349    0.0000 </r>
       <r>   25.3191    0.0000 </r>
       <r>   25.5975    0.0000 </r>
       <r>   27.6436    0.0000 </r>
       <r>   30.4550    0.0000 </r>
       <r>   30.9070    0.0000 </r>
      </set>
      <set comment="kpoint 46">
       <r>   -0.8110    1.0000 </r>
       <r>    1.6350    1.0000 </r>
       <r>    1.7644    1.0000 </r>
       <r>    3.2148    1.0000 </r>
       <r>    3.3447    1.0000 </r>
       <r>    4.2474    1.0000 </r>
       <r>    4.3790    1.0000 </r>
       <r>    4.4651    1.0000 </r>
       <r>    4.9203    1.0000 </r>
       <r>    4.9685    1.0000 </r>
       <r>    5.8470    0.4715 </r>
       <r>   10.7952   -0.0000 </r>
       <r>   15.9346    0.0000 </r>
       <r>   17.8960    0.0000 </r>
       <r>   23.6782    0.0000 </r>
       <r>   24.1377    0.0000 </r>
       <r>   26.0787    0.0000 </r>
       <r>   26.4287    0.0000 </r>
       <r>   29.9322    0.0000 </r>
       <r>   31.4660    0.0000 </r>
      </set>
      <set comment="kpoint 47">
       <r>   -0.1671    1.0000 </r>
       <r>    1.7533    1.0000 </r>
       <r>    2.0241    1.0000 </r>
       <r>    3.1927    1.0000 </r>
       <r>    3.3074    1.0000 </r>
       <r>    3.9577    1.0000 </r>
       <r>    4.2474    1.0000 </r>
       <r>    4.6756    1.0000 </r>
       <r>    4.7043    1.0000 </r>
       <r>    5.0820    1.0000 </r>
       <r>    5.7108    0.9401 </r>
       <r>    9.2240   -0.0000 </r>
       <r>   16.8675    0.0000 </r>
       <r>   18.8860    0.0000 </r>
       <r>   22.7467    0.0000 </r>
       <r>   24.1324    0.0000 </r>
       <r>   25.0596    0.0000 </r>
       <r>   26.7214    0.0000 </r>
       <r>   28.7486    0.0000 </r>
[...]
       </set>
       <set comment="band 16">
        <r>  0.0000  0.0824  0.0000  0.0824  0.0000  0.1081  0.0000  0.1081  0.0014 </r>
        <r>  0.0000  0.0824  0.0000  0.0824  0.0000  0.1081  0.0000  0.1081  0.0014 </r>
       </set>
       <set comment="band 17">
        <r>  0.2234  0.0009  0.1383  0.0009  0.0238  0.0008  0.0076  0.0008  0.0000 </r>
        <r>  0.2234  0.0009  0.1383  0.0009  0.0238  0.0008  0.0076  0.0008  0.0000 </r>
       </set>
       <set comment="band 18">
        <r>  0.1366  0.0310  0.1006  0.0310  0.0239  0.0304  0.0039  0.0304  0.0000 </r>
        <r>  0.1366  0.0310  0.1006  0.0310  0.0239  0.0304  0.0039  0.0304  0.0000 </r>
       </set>
       <set comment="band 19">
        <r>  0.0005  0.0000  0.0045  0.0000  0.0030  0.0713  0.0243  0.0713  0.0000 </r>
        <r>  0.0005  0.0000  0.0045  0.0000  0.0030  0.0713  0.0243  0.0713  0.0000 </r>
       </set>
       <set comment="band 20">
        <r>  0.0000  0.0000  0.0000  0.0000  0.0000  0.0777  0.0000  0.0777  0.0009 </r>
        <r>  0.0000  0.0000  0.0000  0.0000  0.0000  0.0777  0.0000  0.0777  0.0009 </r>
       </set>
      </set>
      <set comment="kpoint 117">
       <set comment="band 1">
        <r>  0.0196  0.0074  0.0074  0.0074  0.1393  0.1392  0.0000  0.1392  0.0000 </r>
        <r>  0.0196  0.0074  0.0074  0.0074  0.1393  0.1392  0.0000  0.1392  0.0000 </r>
       </set>
       <set comment="band 2">
        <r>  0.0479  0.0417  0.0417  0.0417  0.0815  0.0814  0.0000  0.0814  0.0000 </r>
        <r>  0.0479  0.0417  0.0417  0.0417  0.0815  0.0814  0.0000  0.0814  0.0000 </r>
       </set>
       <set comment="band 3">
        <r>  0.0000  0.0070  0.0303  0.0082  0.2635  0.0712  0.0160  0.0608  0.0000 </r>
        <r>  0.0000  0.0070  0.0303  0.0082  0.2635  0.0712  0.0160  0.0608  0.0000 </r>
       </set>
       <set comment="band 4">
        <r>  0.0000  0.0234  0.0000  0.0222  0.0001  0.1925  0.0000  0.2029  0.0160 </r>
        <r>  0.0000  0.0234  0.0000  0.0222  0.0001  0.1925  0.0000  0.2029  0.0160 </r>
       </set>
       <set comment="band 5">
        <r>  0.0000  0.0159  0.0656  0.0169  0.1999  0.0515  0.0392  0.0486  0.0000 </r>
        <r>  0.0000  0.0159  0.0656  0.0169  0.1999  0.0515  0.0392  0.0486  0.0000 </r>
       </set>
       <set comment="band 6">
        <r>  0.0000  0.0497  0.0000  0.0487  0.0000  0.1485  0.0000  0.1514  0.0392 </r>
        <r>  0.0000  0.0497  0.0000  0.0487  0.0000  0.1485  0.0000  0.1514  0.0392 </r>
       </set>
       <set comment="band 7">
        <r>  0.0000  0.0001  0.0003  0.0001  0.0369  0.0069  0.4336  0.0119  0.0027 </r>
        <r>  0.0000  0.0001  0.0003  0.0001  0.0369  0.0069  0.4336  0.0119  0.0027 </r>
       </set>
       <set comment="band 8">
        <r>  0.0000  0.0002  0.0000  0.0003  0.0002  0.0302  0.0027  0.0252  0.4336 </r>
        <r>  0.0000  0.0002  0.0000  0.0003  0.0002  0.0302  0.0027  0.0252  0.4336 </r>
       </set>
       <set comment="band 9">
        <r>  0.0000  0.0000  0.0000  0.0000  0.0141  0.0026  0.4682  0.0046  0.0033 </r>
        <r>  0.0000  0.0000  0.0000  0.0000  0.0141  0.0026  0.4682  0.0046  0.0033 </r>
       </set>
       <set comment="band 10">
        <r>  0.0000  0.0000  0.0000  0.0000  0.0001  0.0116  0.0033  0.0096  0.4682 </r>
        <r>  0.0000  0.0000  0.0000  0.0000  0.0001  0.0116  0.0033  0.0096  0.4682 </r>
       </set>
       <set comment="band 11">
        <r>  0.0387  0.0361  0.0361  0.0361  0.0996  0.0996  0.0000  0.0996  0.0000 </r>
        <r>  0.0387  0.0361  0.0361  0.0361  0.0996  0.0996  0.0000  0.0996  0.0000 </r>
       </set>
       <set comment="band 12">
        <r>  0.0000  0.0295  0.1226  0.0318  0.1407  0.0365  0.0256  0.0339  0.0000 </r>
        <r>  0.0000  0.0295  0.1226  0.0318  0.1407  0.0365  0.0256  0.0339  0.0000 </r>
       </set>
       <set comment="band 13">
        <r>  0.0000  0.0931  0.0000  0.0908  0.0000  0.1043  0.0000  0.1068  0.0256 </r>
        <r>  0.0000  0.0931  0.0000  0.0908  0.0000  0.1043  0.0000  0.1068  0.0256 </r>
       </set>
       <set comment="band 14">
        <r>  0.2771  0.0033  0.0033  0.0033  0.0430  0.0430  0.0000  0.0430  0.0000 </r>
        <r>  0.2771  0.0033  0.0033  0.0033  0.0430  0.0430  0.0000  0.0430  0.0000 </r>
       </set>
       <set comment="band 15">
        <r>  0.0000  0.0254  0.1146  0.0321  0.1411  0.0395  0.0140  0.0313  0.0000 </r>
        <r>  0.0000  0.0254  0.1146  0.0321  0.1411  0.0395  0.0140  0.0313  0.0000 </r>
       </set>
       <set comment="band 16">
        <r>  0.0000  0.0893  0.0001  0.0827  0.0002  0.1018  0.0000  0.1099  0.0140 </r>
        <r>  0.0000  0.0893  0.0001  0.0827  0.0002  0.1018  0.0000  0.1099  0.0140 </r>
       </set>
       <set comment="band 17">
        <r>  0.3108  0.0300  0.0300  0.0300  0.0000  0.0000  0.0000  0.0000  0.0000 </r>
        <r>  0.3108  0.0300  0.0300  0.0300  0.0000  0.0000  0.0000  0.0000  0.0000 </r>
       </set>
       <set comment="band 18">
        <r>  0.0943  0.0585  0.0585  0.0585  0.0381  0.0381  0.0000  0.0381  0.0000 </r>
        <r>  0.0943  0.0585  0.0585  0.0585  0.0381  0.0381  0.0000  0.0381  0.0000 </r>
       </set>
       <set comment="band 19">
        <r>  0.0000  0.0105  0.0002  0.0080  0.0005  0.0225  0.0013  0.0295  0.0947 </r>
        <r>  0.0000  0.0105  0.0002  0.0080  0.0005  0.0225  0.0013  0.0295  0.0947 </r>
       </set>
       <set comment="band 20">
        <r>  0.0000  0.0020  0.0123  0.0044  0.0346  0.0125  0.0947  0.0055  0.0013 </r>
        <r>  0.0000  0.0020  0.0123  0.0044  0.0346  0.0125  0.0947  0.0055  0.0013 </r>
       </set>
      </set>
      <set comment="kpoint 118">
       <set comment="band 1">
        <r>  0.0167  0.0174  0.0175  0.0018  0.1572  0.0840  0.0009  0.1571  0.0027 </r>
        <r>  0.0167  0.0174  0.0175  0.0018  0.1572  0.0840  0.0009  0.1571  0.0027 </r>
       </set>
       <set comment="band 2">
        <r>  0.0189  0.0300  0.0301  0.0000  0.1587  0.0431  0.0019  0.1585  0.0056 </r>
        <r>  0.0189  0.0300  0.0301  0.0000  0.1587  0.0431  0.0019  0.1585  0.0056 </r>
       </set>
       <set comment="band 3">
        <r>  0.0000  0.0307  0.0307  0.0000  0.1839  0.0000  0.0162  0.1841  0.0054 </r>
        <r>  0.0000  0.0307  0.0307  0.0000  0.1839  0.0000  0.0162  0.1841  0.0054 </r>
       </set>
       <set comment="band 4">
        <r>  0.0000  0.0395  0.0395  0.0000  0.1682  0.0000  0.0218  0.1683  0.0072 </r>
        <r>  0.0000  0.0395  0.0395  0.0000  0.1682  0.0000  0.0218  0.1683  0.0072 </r>
       </set>
       <set comment="band 5">
        <r>  0.0099  0.0097  0.0097  0.0803  0.0045  0.3189  0.0000  0.0045  0.0000 </r>
        <r>  0.0099  0.0097  0.0097  0.0803  0.0045  0.3189  0.0000  0.0045  0.0000 </r>
       </set>
       <set comment="band 6">
        <r>  0.0021  0.0138  0.0138  0.0788  0.0199  0.2763  0.0030  0.0199  0.0091 </r>
        <r>  0.0021  0.0138  0.0138  0.0788  0.0199  0.2763  0.0030  0.0199  0.0091 </r>
       </set>
       <set comment="band 7">
        <r>  0.0000  0.0001  0.0001  0.0000  0.0202  0.0000  0.3395  0.0201  0.1126 </r>
        <r>  0.0000  0.0001  0.0001  0.0000  0.0202  0.0000  0.3395  0.0201  0.1126 </r>
       </set>
       <set comment="band 8">
        <r>  0.0000  0.0000  0.0000  0.0000  0.0147  0.0000  0.3480  0.0146  0.1154 </r>
        <r>  0.0000  0.0000  0.0000  0.0000  0.0147  0.0000  0.3480  0.0146  0.1154 </r>
       </set>
       <set comment="band 9">
        <r>  0.0001  0.0000  0.0000  0.0001  0.0073  0.0087  0.1170  0.0073  0.3528 </r>
        <r>  0.0001  0.0000  0.0000  0.0001  0.0073  0.0087  0.1170  0.0073  0.3528 </r>
       </set>
       <set comment="band 10">
        <r>  0.0001  0.0000  0.0000  0.0000  0.0052  0.0003  0.1202  0.0052  0.3625 </r>
        <r>  0.0001  0.0000  0.0000  0.0000  0.0052  0.0003  0.1202  0.0052  0.3625 </r>
       </set>
       <set comment="band 11">
        <r>  0.0346  0.0348  0.0348  0.0607  0.0805  0.1078  0.0006  0.0805  0.0017 </r>
        <r>  0.0346  0.0348  0.0348  0.0607  0.0805  0.1078  0.0006  0.0805  0.0017 </r>
       </set>
       <set comment="band 12">
        <r>  0.0182  0.0337  0.0337  0.0929  0.0605  0.1163  0.0026  0.0605  0.0079 </r>
        <r>  0.0182  0.0337  0.0337  0.0929  0.0605  0.1163  0.0026  0.0605  0.0079 </r>
       </set>
       <set comment="band 13">
        <r>  0.0000  0.0916  0.0916  0.0000  0.1056  0.0000  0.0152  0.1056  0.0051 </r>
        <r>  0.0000  0.0916  0.0916  0.0000  0.1056  0.0000  0.0152  0.1056  0.0051 </r>
       </set>
       <set comment="band 14">
        <r>  0.0000  0.0896  0.0896  0.0000  0.1059  0.0000  0.0124  0.1059  0.0041 </r>
        <r>  0.0000  0.0896  0.0896  0.0000  0.1059  0.0000  0.0124  0.1059  0.0041 </r>
       </set>
       <set comment="band 15">
        <r>  0.2323  0.0008  0.0008  0.0438  0.0307  0.0712  0.0000  0.0307  0.0000 </r>
        <r>  0.2323  0.0008  0.0008  0.0438  0.0307  0.0712  0.0000  0.0307  0.0000 </r>
       </set>
       <set comment="band 16">
        <r>  0.1373  0.0025  0.0025  0.1018  0.0306  0.0946  0.0005  0.0306  0.0016 </r>
        <r>  0.1373  0.0025  0.0025  0.1018  0.0306  0.0946  0.0005  0.0306  0.0016 </r>
       </set>
       <set comment="band 17">
        <r>  0.1980  0.0586  0.0586  0.0105  0.0160  0.0345  0.0006  0.0160  0.0017 </r>
        <r>  0.1980  0.0586  0.0586  0.0105  0.0160  0.0345  0.0006  0.0160  0.0017 </r>
       </set>
       <set comment="band 18">
        <r>  0.1273  0.0606  0.0606  0.0375  0.0299  0.0420  0.0002  0.0299  0.0005 </r>
        <r>  0.1273  0.0606  0.0606  0.0375  0.0299  0.0420  0.0002  0.0299  0.0005 </r>
       </set>
       <set comment="band 19">
        <r>  0.0000  0.0059  0.0059  0.0000  0.0309  0.0000  0.0463  0.0309  0.0154 </r>
        <r>  0.0000  0.0059  0.0059  0.0000  0.0309  0.0000  0.0463  0.0309  0.0154 </r>
       </set>
       <set comment="band 20">
        <r>  0.0000  0.0021  0.0021  0.0000  0.0244  0.0000  0.0172  0.0244  0.0057 </r>
        <r>  0.0000  0.0021  0.0021  0.0000  0.0244  0.0000  0.0172  0.0244  0.0057 </r>
       </set>
      </set>
      <set comment="kpoint 119">
       <set comment="band 1">
        <r>  0.0112  0.0057  0.0384  0.0057  0.2379  0.0732  0.0070  0.0732  0.0000 </r>
        <r>  0.0112  0.0057  0.0384  0.0057  0.2379  0.0732  0.0070  0.0732  0.0000 </r>
       </set>
       <set comment="band 2">
        <r>  0.0118  0.0004  0.0681  0.0004  0.3488  0.0000  0.0153  0.0000  0.0000 </r>
        <r>  0.0118  0.0004  0.0681  0.0004  0.3488  0.0000  0.0153  0.0000  0.0000 </r>
       </set>
       <set comment="band 3">
        <r>  0.0000  0.0244  0.0000  0.0244  0.0000  0.2032  0.0000  0.2032  0.0019 </r>
        <r>  0.0000  0.0244  0.0000  0.0244  0.0000  0.2032  0.0000  0.2032  0.0019 </r>
       </set>
       <set comment="band 4">
        <r>  0.0008  0.0189  0.0301  0.0189  0.1114  0.1290  0.0115  0.1290  0.0000 </r>
        <r>  0.0008  0.0189  0.0301  0.0189  0.1114  0.1290  0.0115  0.1290  0.0000 </r>
       </set>
       <set comment="band 5">
        <r>  0.0036  0.0533  0.0003  0.0533  0.0011  0.1623  0.0008  0.1623  0.0000 </r>
        <r>  0.0036  0.0533  0.0003  0.0533  0.0011  0.1623  0.0008  0.1623  0.0000 </r>
       </set>
       <set comment="band 6">
        <r>  0.0000  0.0537  0.0000  0.0537  0.0000  0.1627  0.0000  0.1627  0.0047 </r>
        <r>  0.0000  0.0537  0.0000  0.0537  0.0000  0.1627  0.0000  0.1627  0.0047 </r>
       </set>
       <set comment="band 7">
        <r>  0.0001  0.0000  0.0001  0.0000  0.0239  0.0010  0.4671  0.0010  0.0000 </r>
        <r>  0.0001  0.0000  0.0001  0.0000  0.0239  0.0010  0.4671  0.0010  0.0000 </r>
       </set>
       <set comment="band 8">
        <r>  0.0001  0.0000  0.0001  0.0000  0.0214  0.0004  0.4709  0.0004  0.0000 </r>
        <r>  0.0001  0.0000  0.0001  0.0000  0.0214  0.0004  0.4709  0.0004  0.0000 </r>
       </set>
       <set comment="band 9">
        <r>  0.0000  0.0000  0.0000  0.0000  0.0000  0.0034  0.0000  0.0034  0.4869 </r>
        <r>  0.0000  0.0000  0.0000  0.0000  0.0000  0.0034  0.0000  0.0034  0.4869 </r>
       </set>
       <set comment="band 10">
        <r>  0.0000  0.0000  0.0000  0.0000  0.0000  0.0013  0.0000  0.0013  0.4913 </r>
        <r>  0.0000  0.0000  0.0000  0.0000  0.0000  0.0013  0.0000  0.0013  0.4913 </r>
       </set>
       <set comment="band 11">
        <r>  0.0236  0.0660  0.0209  0.0660  0.0454  0.1020  0.0006  0.1020  0.0000 </r>
        <r>  0.0236  0.0660  0.0209  0.0660  0.0454  0.1020  0.0006  0.1020  0.0000 </r>
       </set>
       <set comment="band 12">
        <r>  0.0000  0.0901  0.0000  0.0901  0.0000  0.1179  0.0000  0.1179  0.0032 </r>
        <r>  0.0000  0.0901  0.0000  0.0901  0.0000  0.1179  0.0000  0.1179  0.0032 </r>
       </set>
       <set comment="band 13">
        <r>  0.0655  0.0069  0.1183  0.0069  0.2018  0.0047  0.0120  0.0047  0.0000 </r>
        <r>  0.0655  0.0069  0.1183  0.0069  0.2018  0.0047  0.0120  0.0047  0.0000 </r>
       </set>
       <set comment="band 14">
        <r>  0.0621  0.0226  0.0930  0.0226  0.1659  0.0193  0.0099  0.0193  0.0000 </r>
        <r>  0.0621  0.0226  0.0930  0.0226  0.1659  0.0193  0.0099  0.0193  0.0000 </r>
       </set>
       <set comment="band 15">
        <r>  0.1369  0.0495  0.0056  0.0495  0.0010  0.0806  0.0007  0.0806  0.0000 </r>
        <r>  0.1369  0.0495  0.0056  0.0495  0.0010  0.0806  0.0007  0.0806  0.0000 </r>
       </set>
       <set comment="band 16">
        <r>  0.0000  0.0868  0.0000  0.0868  0.0000  0.1109  0.0000  0.1109  0.0016 </r>
        <r>  0.0000  0.0868  0.0000  0.0868  0.0000  0.1109  0.0000  0.1109  0.0016 </r>
       </set>
       <set comment="band 17">
        <r>  0.3003  0.0018  0.0757  0.0018  0.0180  0.0003  0.0018  0.0003  0.0000 </r>
        <r>  0.3003  0.0018  0.0757  0.0018  0.0180  0.0003  0.0018  0.0003  0.0000 </r>
       </set>
       <set comment="band 18">
        <r>  0.1865  0.0311  0.0662  0.0311  0.0245  0.0269  0.0009  0.0269  0.0000 </r>
        <r>  0.1865  0.0311  0.0662  0.0311  0.0245  0.0269  0.0009  0.0269  0.0000 </r>
       </set>
       <set comment="band 19">
        <r>  0.0001  0.0005  0.0043  0.0005  0.0088  0.0380  0.0244  0.0380  0.0000 </r>
        <r>  0.0001  0.0005  0.0043  0.0005  0.0088  0.0380  0.0244  0.0380  0.0000 </r>
       </set>
       <set comment="band 20">
        <r>  0.0000  0.0003  0.0000  0.0003  0.0000  0.0403  0.0000  0.0403  0.0013 </r>
        <r>  0.0000  0.0003  0.0000  0.0003  0.0000  0.0403  0.0000  0.0403  0.0013 </r>
       </set>
      </set>
      <set comment="kpoint 120">
       <set comment="band 1">
        <r>  0.0033  0.0188  0.0188  0.0188  0.1312  0.1311  0.0000  0.1311  0.0000 </r>
        <r>  0.0033  0.0188  0.0188  0.0188  0.1312  0.1311  0.0000  0.1311  0.0000 </r>
       </set>
       <set comment="band 2">
        <r>  0.0000  0.0099  0.0440  0.0121  0.2549  0.0700  0.0025  0.0576  0.0000 </r>
        <r>  0.0000  0.0099  0.0440  0.0121  0.2549  0.0700  0.0025  0.0576  0.0000 </r>
       </set>
       <set comment="band 3">
        <r>  0.0000  0.0340  0.0000  0.0319  0.0002  0.1850  0.0000  0.1973  0.0025 </r>
        <r>  0.0000  0.0340  0.0000  0.0319  0.0002  0.1850  0.0000  0.1973  0.0025 </r>
       </set>
       <set comment="band 4">
        <r>  0.0000  0.0129  0.0569  0.0156  0.2368  0.0650  0.0034  0.0538  0.0000 </r>
        <r>  0.0000  0.0129  0.0569  0.0156  0.2368  0.0650  0.0034  0.0538  0.0000 </r>
       </set>
       <set comment="band 5">
        <r>  0.0000  0.0441  0.0000  0.0414  0.0002  0.1722  0.0000  0.1833  0.0034 </r>
        <r>  0.0000  0.0441  0.0000  0.0414  0.0002  0.1722  0.0000  0.1833  0.0034 </r>
       </set>
       <set comment="band 6">
        <r>  0.0045  0.0318  0.0318  0.0318  0.1133  0.1135  0.0000  0.1135  0.0000 </r>
        <r>  0.0045  0.0318  0.0318  0.0318  0.1133  0.1135  0.0000  0.1135  0.0000 </r>
       </set>
       <set comment="band 7">
        <r>  0.0000  0.0000  0.0000  0.0000  0.0032  0.0006  0.4855  0.0011  0.0036 </r>
        <r>  0.0000  0.0000  0.0000  0.0000  0.0032  0.0006  0.4855  0.0011  0.0036 </r>
       </set>
       <set comment="band 8">
        <r>  0.0000  0.0000  0.0000  0.0000  0.0000  0.0026  0.0036  0.0022  0.4855 </r>
        <r>  0.0000  0.0000  0.0000  0.0000  0.0000  0.0026  0.0036  0.0022  0.4855 </r>
       </set>
       <set comment="band 9">
        <r>  0.0000  0.0000  0.0000  0.0000  0.0023  0.0004  0.4868  0.0008  0.0036 </r>
        <r>  0.0000  0.0000  0.0000  0.0000  0.0023  0.0004  0.4868  0.0008  0.0036 </r>
       </set>
       <set comment="band 10">
        <r>  0.0000  0.0000  0.0000  0.0000  0.0000  0.0019  0.0036  0.0016  0.4868 </r>
        <r>  0.0000  0.0000  0.0000  0.0000  0.0000  0.0019  0.0036  0.0016  0.4868 </r>
       </set>
       <set comment="band 11">
        <r>  0.0206  0.0542  0.0542  0.0542  0.0788  0.0788  0.0000  0.0788  0.0000 </r>
        <r>  0.0206  0.0542  0.0542  0.0542  0.0788  0.0788  0.0000  0.0788  0.0000 </r>
       </set>
       <set comment="band 12">
        <r>  0.0000  0.0256  0.1210  0.0353  0.1524  0.0444  0.0024  0.0323  0.0000 </r>
        <r>  0.0000  0.0256  0.1210  0.0353  0.1524  0.0444  0.0024  0.0323  0.0000 </r>
       </set>
       <set comment="band 13">
        <r>  0.0000  0.0957  0.0003  0.0860  0.0003  0.1083  0.0000  0.1204  0.0024 </r>
        <r>  0.0000  0.0957  0.0003  0.0860  0.0003  0.1083  0.0000  0.1204  0.0024 </r>
       </set>
       <set comment="band 14">
        <r>  0.0000  0.0246  0.1194  0.0355  0.1496  0.0446  0.0019  0.0309  0.0000 </r>
        <r>  0.0000  0.0246  0.1194  0.0355  0.1496  0.0446  0.0019  0.0309  0.0000 </r>
       </set>
       <set comment="band 15">
        <r>  0.0000  0.0951  0.0003  0.0842  0.0004  0.1055  0.0000  0.1192  0.0019 </r>
        <r>  0.0000  0.0951  0.0003  0.0842  0.0004  0.1055  0.0000  0.1192  0.0019 </r>
       </set>
       <set comment="band 16">
        <r>  0.1142  0.0368  0.0368  0.0368  0.0617  0.0617  0.0000  0.0617  0.0000 </r>
        <r>  0.1142  0.0368  0.0368  0.0368  0.0617  0.0617  0.0000  0.0617  0.0000 </r>
       </set>
       <set comment="band 17">
        <r>  0.3797  0.0073  0.0073  0.0073  0.0009  0.0009  0.0000  0.0009  0.0000 </r>
        <r>  0.3797  0.0073  0.0073  0.0073  0.0009  0.0009  0.0000  0.0009  0.0000 </r>
       </set>
       <set comment="band 18">
        <r>  0.2871  0.0233  0.0233  0.0233  0.0145  0.0145  0.0000  0.0145  0.0000 </r>
        <r>  0.2871  0.0233  0.0233  0.0233  0.0145  0.0145  0.0000  0.0145  0.0000 </r>
       </set>
       <set comment="band 19">
        <r>  0.0000  0.0034  0.0002  0.0034  0.0014  0.0224  0.0008  0.0228  0.0169 </r>
        <r>  0.0000  0.0034  0.0002  0.0034  0.0014  0.0224  0.0008  0.0228  0.0169 </r>
       </set>
       <set comment="band 20">
        <r>  0.0000  0.0011  0.0038  0.0011  0.0256  0.0074  0.0145  0.0071  0.0007 </r>
        <r>  0.0000  0.0011  0.0038  0.0011  0.0256  0.0074  0.0145  0.0071  0.0007 </r>
       </set>
      </set>
     </set>
    </set>
   </array>
  </projected>
 </calculation>
 <structure name="finalpos" >
  <crystal>
   <varray name="basis" >
    <v>       2.83055312      -0.00000000       0.00000000 </v>
    <v>       0.00000000       2.83055312       0.00000000 </v>
    <v>       0.00000000       0.00000000       2.83055312 </v>
   </varray>
   <i name="volume">     22.67847918 </i>
   <varray name="rec_basis" >
    <v>       0.35328784      -0.00000000      -0.00000000 </v>
    <v>       0.00000000       0.35328784      -0.00000000 </v>
    <v>      -0.00000000      -0.00000000       0.35328784 </v>
   </varray>
  </crystal>
  <varray name="positions" >
   <v>      -0.00000000      -0.00000000      -0.00000000 </v>
   <v>       0.50000000       0.50000000       0.50000000 </v>
  </varray>
 </structure>
</modeling>
