   1   1   0   0
  0.1386300E+02  0.2621157E-09  0.2621157E-09  0.2621157E-09  0.5000000E-15
  1.000000000000000E-004
  CAR 
 unknown system                          
     36.23698220     -6.24451108  301      9.88640872      1.00000000
     -6.245  0.0000E+00  0.0000E+00
     -6.103  0.0000E+00  0.0000E+00
     -5.961  0.0000E+00  0.0000E+00
     -5.820  0.0000E+00  0.0000E+00
     -5.678  0.0000E+00  0.0000E+00
     -5.536  0.0000E+00  0.0000E+00
     -5.395  0.0000E+00  0.0000E+00
     -5.253  0.0000E+00  0.0000E+00
     -5.112  0.0000E+00  0.0000E+00
     -4.970  0.0000E+00  0.0000E+00
     -4.828  0.0000E+00  0.0000E+00
     -4.687  0.0000E+00  0.0000E+00
     -4.545  0.1172E-14  0.1660E-15
     -4.404  0.2262E-06  0.3203E-07
     -4.262  0.4277E-04  0.6088E-05
     -4.120  0.4773E-03  0.7368E-04
     -3.979  0.2841E-03  0.1139E-03
     -3.837  0.9819E-03  0.2530E-03
     -3.696  0.5463E-03  0.3303E-03
     -3.554  0.9802E-03  0.4691E-03
     -3.412  0.4838E-03  0.5376E-03
     -3.271  0.1870E-02  0.8025E-03
     -3.129  0.4487E-03  0.8660E-03
     -2.988  0.1477E-02  0.1075E-02
     -2.846  0.1059E-02  0.1225E-02
     -2.704  0.1065E-02  0.1376E-02
     -2.563  0.1808E-02  0.1632E-02
     -2.421  0.1909E-02  0.1902E-02
     -2.280  0.1033E-02  0.2048E-02
     -2.138  0.1273E-02  0.2229E-02
     -1.996  0.1540E-02  0.2447E-02
     -1.855  0.1595E-02  0.2673E-02
     -1.713  0.2727E-02  0.3059E-02
     -1.572  0.1475E-02  0.3268E-02
     -1.430  0.1945E-02  0.3543E-02
     -1.288  0.1160E-02  0.3707E-02
     -1.147  0.1972E-02  0.3987E-02
     -1.005  0.5128E-03  0.4059E-02
     -0.864  0.3409E-02  0.4542E-02
     -0.722  0.1288E-02  0.4724E-02
     -0.580  0.3939E-02  0.5282E-02
     -0.439  0.1969E-02  0.5561E-02
     -0.297  0.8597E-03  0.5683E-02
     -0.155  0.1138E-02  0.5844E-02
     -0.014  0.2970E-02  0.6264E-02
      0.128  0.1994E-02  0.6547E-02
      0.269  0.3287E-02  0.7012E-02
      0.411  0.2204E-02  0.7324E-02
      0.553  0.1822E-02  0.7582E-02
      0.694  0.4455E-02  0.8213E-02
      0.836  0.1849E-02  0.8475E-02
      0.977  0.1971E-02  0.8754E-02
      1.119  0.1144E-02  0.8916E-02
      1.261  0.2029E-02  0.9203E-02
      1.402  0.2267E-02  0.9524E-02
      1.544  0.4813E-02  0.1021E-01
      1.685  0.1706E-02  0.1045E-01
      1.827  0.4260E-02  0.1105E-01
      1.969  0.1268E-02  0.1123E-01
      2.110  0.3166E-02  0.1168E-01
      2.252  0.3083E-02  0.1212E-01
      2.393  0.2932E-02  0.1253E-01
      2.535  0.1917E-02  0.1280E-01
      2.677  0.3054E-02  0.1323E-01
      2.818  0.3144E-02  0.1368E-01
      2.960  0.1633E-02  0.1391E-01
      3.101  0.6206E-02  0.1479E-01
      3.243  0.9416E-03  0.1492E-01
      3.385  0.2849E-02  0.1533E-01
      3.526  0.3895E-02  0.1588E-01
      3.668  0.2591E-02  0.1624E-01
      3.809  0.3769E-02  0.1678E-01
      3.951  0.3628E-02  0.1729E-01
      4.093  0.2505E-02  0.1765E-01
      4.234  0.1089E-02  0.1780E-01
      4.376  0.3577E-02  0.1831E-01
      4.517  0.3176E-02  0.1876E-01
      4.659  0.5158E-02  0.1949E-01
      4.801  0.4707E-02  0.2015E-01
      4.942  0.1101E-02  0.2031E-01
      5.084  0.4042E-02  0.2088E-01
      5.225  0.1305E-02  0.2107E-01
      5.367  0.3725E-02  0.2159E-01
      5.509  0.5859E-02  0.2242E-01
      5.650  0.2667E-02  0.2280E-01
      5.792  0.5499E-02  0.2358E-01
      5.934  0.2918E-02  0.2399E-01
      6.075  0.1864E-02  0.2426E-01
      6.217  0.4171E-02  0.2485E-01
      6.358  0.2427E-02  0.2519E-01
      6.500  0.9305E-03  0.2532E-01
      6.642  0.7055E-02  0.2632E-01
      6.783  0.3227E-02  0.2678E-01
      6.925  0.5406E-02  0.2755E-01
      7.066  0.5035E-02  0.2826E-01
      7.208  0.2584E-02  0.2862E-01
      7.350  0.3645E-02  0.2914E-01
      7.491  0.3012E-02  0.2957E-01
      7.633  0.4870E-02  0.3026E-01
      7.774  0.4686E-02  0.3092E-01
      7.916  0.5031E-02  0.3163E-01
      8.058  0.2643E-02  0.3201E-01
      8.199  0.1369E-02  0.3220E-01
      8.341  0.1980E-02  0.3248E-01
      8.482  0.8047E-02  0.3362E-01
      8.624  0.4871E-02  0.3431E-01
      8.766  0.3571E-02  0.3482E-01
      8.907  0.4646E-02  0.3547E-01
      9.049  0.4052E-02  0.3605E-01
      9.190  0.5260E-02  0.3679E-01
      9.332  0.4745E-02  0.3746E-01
      9.474  0.4686E-02  0.3813E-01
      9.615  0.5100E-02  0.3885E-01
      9.757  0.5241E-02  0.3959E-01
      9.898  0.3205E-02  0.4005E-01
     10.040  0.4719E-02  0.4071E-01
     10.182  0.2557E-02  0.4108E-01
     10.323  0.3904E-02  0.4163E-01
     10.465  0.4655E-02  0.4229E-01
     10.606  0.4764E-02  0.4296E-01
     10.748  0.5326E-02  0.4372E-01
     10.890  0.5614E-02  0.4451E-01
     11.031  0.6739E-02  0.4547E-01
     11.173  0.2177E-02  0.4578E-01
     11.315  0.2761E-02  0.4617E-01
     11.456  0.2634E-02  0.4654E-01
     11.598  0.6409E-02  0.4745E-01
     11.739  0.6361E-02  0.4835E-01
     11.881  0.2540E-02  0.4871E-01
     12.023  0.6775E-02  0.4967E-01
     12.164  0.4090E-02  0.5025E-01
     12.306  0.1868E-02  0.5051E-01
     12.447  0.4195E-02  0.5110E-01
     12.589  0.1627E-02  0.5133E-01
     12.731  0.5461E-02  0.5211E-01
     12.872  0.3227E-02  0.5257E-01
     13.014  0.7565E-02  0.5364E-01
     13.155  0.4811E-02  0.5432E-01
     13.297  0.4380E-02  0.5494E-01
     13.439  0.8570E-02  0.5615E-01
     13.580  0.4225E-02  0.5675E-01
     13.722  0.4851E-02  0.5744E-01
     13.863  0.3446E-02  0.5792E-01
     14.005  0.4548E-02  0.5857E-01
     14.147  0.4511E-02  0.5921E-01
     14.288  0.3628E-02  0.5972E-01
     14.430  0.5684E-02  0.6053E-01
     14.571  0.8306E-02  0.6170E-01
     14.713  0.2011E-02  0.6199E-01
     14.855  0.5131E-02  0.6271E-01
     14.996  0.2693E-02  0.6310E-01
     15.138  0.6907E-02  0.6407E-01
     15.279  0.4529E-02  0.6471E-01
     15.421  0.5921E-02  0.6555E-01
     15.563  0.6950E-02  0.6654E-01
     15.704  0.4466E-02  0.6717E-01
     15.846  0.5665E-02  0.6797E-01
     15.987  0.5541E-02  0.6876E-01
     16.129  0.8605E-02  0.6997E-01
     16.271  0.5526E-02  0.7076E-01
     16.412  0.2116E-02  0.7106E-01
     16.554  0.7288E-02  0.7209E-01
     16.695  0.3149E-02  0.7253E-01
     16.837  0.2322E-02  0.7286E-01
     16.979  0.3742E-02  0.7339E-01
     17.120  0.6450E-02  0.7431E-01
     17.262  0.9047E-02  0.7559E-01
     17.404  0.1268E-01  0.7738E-01
     17.545  0.7425E-02  0.7843E-01
     17.687  0.4355E-02  0.7905E-01
     17.828  0.3615E-02  0.7956E-01
     17.970  0.4992E-02  0.8027E-01
     18.112  0.6491E-02  0.8119E-01
     18.253  0.4965E-02  0.8189E-01
     18.395  0.3111E-02  0.8233E-01
     18.536  0.1970E-02  0.8261E-01
     18.678  0.3947E-02  0.8317E-01
     18.820  0.3797E-02  0.8371E-01
     18.961  0.1117E-02  0.8387E-01
     19.103  0.5346E-02  0.8462E-01
     19.244  0.6355E-02  0.8552E-01
     19.386  0.4622E-02  0.8618E-01
     19.528  0.4768E-02  0.8685E-01
     19.669  0.7028E-02  0.8785E-01
     19.811  0.7002E-02  0.8884E-01
     19.952  0.3490E-02  0.8933E-01
     20.094  0.2447E-02  0.8968E-01
     20.236  0.1020E-01  0.9113E-01
     20.377  0.4623E-02  0.9178E-01
     20.519  0.2828E-02  0.9218E-01
     20.660  0.6902E-02  0.9316E-01
     20.802  0.3926E-02  0.9371E-01
     20.944  0.6493E-02  0.9463E-01
     21.085  0.7631E-02  0.9571E-01
     21.227  0.4458E-02  0.9634E-01
     21.368  0.5046E-02  0.9706E-01
     21.510  0.6162E-02  0.9793E-01
     21.652  0.8556E-02  0.9914E-01
     21.793  0.9192E-02  0.1004E+00
     21.935  0.1415E-01  0.1024E+00
     22.076  0.6666E-02  0.1034E+00
     22.218  0.7378E-02  0.1044E+00
     22.360  0.8668E-02  0.1057E+00
     22.501  0.6049E-02  0.1065E+00
     22.643  0.2230E-02  0.1068E+00
     22.785  0.1558E-02  0.1071E+00
     22.926  0.2932E-02  0.1075E+00
     23.068  0.8531E-02  0.1087E+00
     23.209  0.7589E-02  0.1098E+00
     23.351  0.9747E-02  0.1111E+00
     23.493  0.4156E-02  0.1117E+00
     23.634  0.6410E-02  0.1126E+00
     23.776  0.5005E-02  0.1133E+00
     23.917  0.4998E-02  0.1140E+00
     24.059  0.4768E-02  0.1147E+00
     24.201  0.2303E-02  0.1150E+00
     24.342  0.6951E-02  0.1160E+00
     24.484  0.5390E-02  0.1168E+00
     24.625  0.1141E-01  0.1184E+00
     24.767  0.6835E-02  0.1194E+00
     24.909  0.4780E-02  0.1201E+00
     25.050  0.4341E-02  0.1207E+00
     25.192  0.6968E-02  0.1217E+00
     25.333  0.5871E-02  0.1225E+00
     25.475  0.5635E-02  0.1233E+00
     25.617  0.7923E-02  0.1244E+00
     25.758  0.3516E-02  0.1249E+00
     25.900  0.7142E-02  0.1259E+00
     26.041  0.4459E-02  0.1266E+00
     26.183  0.6741E-02  0.1275E+00
     26.325  0.6020E-02  0.1284E+00
     26.466  0.7954E-02  0.1295E+00
     26.608  0.7420E-02  0.1305E+00
     26.749  0.4722E-02  0.1312E+00
     26.891  0.9423E-02  0.1325E+00
     27.033  0.4710E-02  0.1332E+00
     27.174  0.7227E-02  0.1342E+00
     27.316  0.5734E-02  0.1350E+00
     27.457  0.5991E-02  0.1359E+00
     27.599  0.2676E-02  0.1363E+00
     27.741  0.5877E-02  0.1371E+00
     27.882  0.6320E-02  0.1380E+00
     28.024  0.7150E-02  0.1390E+00
     28.165  0.6137E-02  0.1399E+00
     28.307  0.4521E-02  0.1405E+00
     28.449  0.5806E-02  0.1413E+00
     28.590  0.6524E-02  0.1423E+00
     28.732  0.9724E-02  0.1436E+00
     28.874  0.6372E-02  0.1445E+00
     29.015  0.1284E-01  0.1464E+00
     29.157  0.7294E-02  0.1474E+00
     29.298  0.2528E-02  0.1478E+00
     29.440  0.6343E-02  0.1486E+00
     29.582  0.4868E-02  0.1493E+00
     29.723  0.5731E-02  0.1501E+00
     29.865  0.8055E-02  0.1513E+00
     30.006  0.8501E-02  0.1525E+00
     30.148  0.6683E-02  0.1534E+00
     30.290  0.2106E-02  0.1537E+00
     30.431  0.5818E-02  0.1546E+00
     30.573  0.4968E-02  0.1553E+00
     30.714  0.8120E-02  0.1564E+00
     30.856  0.5538E-02  0.1572E+00
     30.998  0.1768E-02  0.1575E+00
     31.139  0.4279E-02  0.1581E+00
     31.281  0.1963E-02  0.1583E+00
     31.422  0.4203E-03  0.1584E+00
     31.564  0.1765E-02  0.1586E+00
     31.706  0.2151E-02  0.1589E+00
     31.847  0.1193E-02  0.1591E+00
     31.989  0.1241E-03  0.1591E+00
     32.130  0.1932E-03  0.1592E+00
     32.272  0.3398E-03  0.1592E+00
     32.414  0.1015E-02  0.1594E+00
     32.555  0.1432E-03  0.1594E+00
     32.697  0.1050E-02  0.1595E+00
     32.838  0.5061E-03  0.1596E+00
     32.980  0.1213E-02  0.1598E+00
     33.122  0.4924E-03  0.1598E+00
     33.263  0.3166E-03  0.1599E+00
     33.405  0.3639E-05  0.1599E+00
     33.546  0.4981E-13  0.1599E+00
     33.688  0.0000E+00  0.1599E+00
     33.830  0.9377E-14  0.1599E+00
     33.971  0.1534E-05  0.1599E+00
     34.113  0.2347E-03  0.1599E+00
     34.255  0.2759E-03  0.1600E+00
     34.396  0.3230E-03  0.1600E+00
     34.538  0.1810E-05  0.1600E+00
     34.679  0.9380E-14  0.1600E+00
     34.821  0.0000E+00  0.1600E+00
     34.963  0.0000E+00  0.1600E+00
     35.104  0.0000E+00  0.1600E+00
     35.246  0.0000E+00  0.1600E+00
     35.387  0.0000E+00  0.1600E+00
     35.529  0.0000E+00  0.1600E+00
     35.671  0.0000E+00  0.1600E+00
     35.812  0.0000E+00  0.1600E+00
     35.954  0.0000E+00  0.1600E+00
     36.095  0.0000E+00  0.1600E+00
     36.237  0.0000E+00  0.1600E+00
