<?xml version="1.0" encoding="ISO-8859-1"?>
<modeling>
 <generator>
  <i name="program" type="string">vasp </i>
  <i name="version" type="string">6.2.0  </i>
  <i name="subversion" type="string">18Jan21 (build Aug 12 2022 13:00:08) complex                          parallel </i>
  <i name="platform" type="string">LinuxIFC </i>
  <i name="date" type="string">2024 11 03 </i>
  <i name="time" type="string">22:07:08 </i>
 </generator>
 <incar>
  <i type="int" name="ISTART">     0</i>
  <i type="string" name="PREC">Accurate      (Accurate strictly avoids</i>
  <i type="logical" name="ADDGRID"> T  </i>
  <i type="int" name="ISPIN">     1</i>
  <i type="int" name="NELM">    90</i>
  <i type="int" name="NELMIN">     6</i>
  <i type="int" name="IBRION">     2</i>
  <i name="EDIFF">      0.00000100</i>
  <i name="EDIFFG">     -0.00200000</i>
  <i type="int" name="NSW">   100</i>
  <i type="int" name="ISIF">     3</i>
  <i type="int" name="ISYM">     2</i>
  <i name="ENCUT">    350.00000000</i>
  <i type="logical" name="LREAL"> F  </i>
  <i type="int" name="ISMEAR">     0</i>
  <i name="SIGMA">      0.05000000</i>
  <i type="logical" name="LWAVE"> F  </i>
  <i type="logical" name="LCHARG"> F  </i>
  <i type="logical" name="LASPH"> T  </i>
 </incar>
 <primitive_cell>
  <structure name="primitive_cell" >
   <crystal>
    <varray name="basis" >
     <v>       1.51332563       1.51332563       1.51332563 </v>
     <v>       1.51332563      -1.51332563      -1.51332563 </v>
     <v>      -1.51332563       1.51332563      -1.51332563 </v>
    </varray>
    <i name="volume">     13.86299778 </i>
    <varray name="rec_basis" >
     <v>       0.33039816       0.33039816       0.00000000 </v>
     <v>       0.33039816       0.00000000      -0.33039816 </v>
     <v>       0.00000000       0.33039816      -0.33039816 </v>
    </varray>
   </crystal>
   <varray name="positions" >
    <v>       0.00000000       0.00000000       0.00000000 </v>
   </varray>
  </structure>
  <varray name="primitive_index" >
   <v type="int" >        1 </v>
  </varray>
 </primitive_cell>
 <kpoints>
  <generation param="Monkhorst-Pack">
   <v type="int" name="divisions">      15       15       15 </v>
   <v name="usershift">      0.00000000       0.00000000       0.00000000 </v>
   <v name="genvec1">      0.06666667       0.00000000       0.00000000 </v>
   <v name="genvec2">      0.00000000       0.06666667       0.00000000 </v>
   <v name="genvec3">      0.00000000       0.00000000       0.06666667 </v>
   <v name="shift">      0.00000000       0.00000000       0.00000000 </v>
  </generation>
  <varray name="kpointlist" >
   <v>       0.00000000       0.00000000       0.00000000 </v>
   <v>       0.06666667       0.00000000       0.00000000 </v>
   <v>       0.13333333       0.00000000       0.00000000 </v>
   <v>       0.20000000       0.00000000       0.00000000 </v>
   <v>       0.26666667       0.00000000       0.00000000 </v>
   <v>       0.33333333       0.00000000       0.00000000 </v>
   <v>       0.40000000       0.00000000       0.00000000 </v>
   <v>       0.46666667       0.00000000       0.00000000 </v>
   <v>       0.06666667       0.06666667       0.00000000 </v>
   <v>       0.13333333       0.06666667      -0.00000000 </v>
   <v>       0.20000000       0.06666667      -0.00000000 </v>
   <v>       0.26666667       0.06666667       0.00000000 </v>
   <v>       0.33333333       0.06666667      -0.00000000 </v>
   <v>       0.40000000       0.06666667       0.00000000 </v>
   <v>       0.46666667       0.06666667       0.00000000 </v>
   <v>       0.13333333       0.13333333       0.00000000 </v>
   <v>       0.20000000       0.13333333       0.00000000 </v>
   <v>       0.26666667       0.13333333       0.00000000 </v>
   <v>       0.33333333       0.13333333       0.00000000 </v>
   <v>       0.40000000       0.13333333       0.00000000 </v>
   <v>       0.20000000       0.20000000       0.00000000 </v>
   <v>       0.26666667       0.20000000       0.00000000 </v>
   <v>       0.33333333       0.20000000       0.00000000 </v>
   <v>       0.40000000       0.20000000       0.00000000 </v>
   <v>       0.26666667       0.26666667       0.00000000 </v>
   <v>       0.33333333       0.26666667       0.00000000 </v>
   <v>       0.33333333       0.33333333       0.00000000 </v>
   <v>       0.06666667       0.06666667       0.06666667 </v>
   <v>       0.13333333       0.06666667       0.06666667 </v>
   <v>       0.20000000       0.06666667       0.06666667 </v>
   <v>       0.26666667       0.06666667       0.06666667 </v>
   <v>       0.33333333       0.06666667       0.06666667 </v>
   <v>       0.40000000       0.06666667       0.06666667 </v>
   <v>      -0.06666667       0.06666667       0.06666667 </v>
   <v>       0.13333333       0.13333333       0.06666667 </v>
   <v>       0.20000000       0.13333333       0.06666667 </v>
   <v>       0.26666667       0.13333333       0.06666667 </v>
   <v>       0.33333333       0.13333333       0.06666667 </v>
   <v>       0.40000000       0.13333333       0.06666667 </v>
   <v>      -0.13333333       0.13333333       0.06666667 </v>
   <v>       0.20000000       0.20000000       0.06666667 </v>
   <v>       0.26666667       0.20000000       0.06666667 </v>
   <v>       0.33333333       0.20000000       0.06666667 </v>
   <v>      -0.20000000       0.20000000       0.06666667 </v>
   <v>      -0.13333333       0.20000000       0.06666667 </v>
   <v>       0.26666667       0.26666667       0.06666667 </v>
   <v>       0.33333333       0.26666667       0.06666667 </v>
   <v>      -0.26666667       0.26666667       0.06666667 </v>
   <v>      -0.20000000       0.26666667       0.06666667 </v>
   <v>      -0.33333333       0.33333333       0.06666667 </v>
   <v>      -0.26666667       0.33333333       0.06666667 </v>
   <v>      -0.20000000       0.33333333       0.06666667 </v>
   <v>      -0.40000000       0.40000000       0.06666667 </v>
   <v>      -0.33333333       0.40000000       0.06666667 </v>
   <v>      -0.26666667       0.40000000       0.06666667 </v>
   <v>      -0.46666667       0.46666667       0.06666667 </v>
   <v>      -0.40000000       0.46666667       0.06666667 </v>
   <v>      -0.33333333       0.46666667       0.06666667 </v>
   <v>      -0.26666667       0.46666667       0.06666667 </v>
   <v>      -0.46666667      -0.46666667       0.06666667 </v>
   <v>      -0.40000000      -0.46666667       0.06666667 </v>
   <v>      -0.33333333      -0.46666667       0.06666667 </v>
   <v>      -0.40000000      -0.40000000       0.06666667 </v>
   <v>      -0.33333333      -0.40000000       0.06666667 </v>
   <v>       0.13333333       0.13333333       0.13333333 </v>
   <v>       0.20000000       0.13333333       0.13333333 </v>
   <v>       0.26666667       0.13333333       0.13333333 </v>
   <v>       0.33333333       0.13333333       0.13333333 </v>
   <v>      -0.13333333       0.13333333       0.13333333 </v>
   <v>       0.20000000       0.20000000       0.13333333 </v>
   <v>       0.26666667       0.20000000       0.13333333 </v>
   <v>       0.33333333       0.20000000       0.13333333 </v>
   <v>      -0.20000000       0.20000000       0.13333333 </v>
   <v>       0.26666667       0.26666667       0.13333333 </v>
   <v>      -0.26666667       0.26666667       0.13333333 </v>
   <v>      -0.20000000       0.26666667       0.13333333 </v>
   <v>      -0.33333333       0.33333333       0.13333333 </v>
   <v>      -0.26666667       0.33333333       0.13333333 </v>
   <v>      -0.40000000       0.40000000       0.13333333 </v>
   <v>      -0.33333333       0.40000000       0.13333333 </v>
   <v>      -0.26666667       0.40000000       0.13333333 </v>
   <v>      -0.46666667       0.46666667       0.13333333 </v>
   <v>      -0.40000000       0.46666667       0.13333333 </v>
   <v>      -0.33333333       0.46666667       0.13333333 </v>
   <v>      -0.46666667      -0.46666667       0.13333333 </v>
   <v>      -0.40000000      -0.46666667       0.13333333 </v>
   <v>      -0.33333333      -0.46666667       0.13333333 </v>
   <v>      -0.40000000      -0.40000000       0.13333333 </v>
   <v>       0.20000000       0.20000000       0.20000000 </v>
   <v>       0.26666667       0.20000000       0.20000000 </v>
   <v>      -0.20000000       0.20000000       0.20000000 </v>
   <v>       0.26666667       0.26666667       0.20000000 </v>
   <v>      -0.26666667       0.26666667       0.20000000 </v>
   <v>      -0.33333333       0.33333333       0.20000000 </v>
   <v>      -0.26666667       0.33333333       0.20000000 </v>
   <v>      -0.40000000       0.40000000       0.20000000 </v>
   <v>      -0.33333333       0.40000000       0.20000000 </v>
   <v>      -0.46666667       0.46666667       0.20000000 </v>
   <v>      -0.40000000       0.46666667       0.20000000 </v>
   <v>      -0.33333333       0.46666667       0.20000000 </v>
   <v>      -0.46666667      -0.46666667       0.20000000 </v>
   <v>      -0.40000000      -0.46666667       0.20000000 </v>
   <v>      -0.40000000      -0.40000000       0.20000000 </v>
   <v>      -0.26666667       0.26666667       0.26666667 </v>
   <v>      -0.33333333       0.33333333       0.26666667 </v>
   <v>      -0.40000000       0.40000000       0.26666667 </v>
   <v>      -0.33333333       0.40000000       0.26666667 </v>
   <v>      -0.46666667       0.46666667       0.26666667 </v>
   <v>      -0.40000000       0.46666667       0.26666667 </v>
   <v>      -0.46666667      -0.46666667       0.26666667 </v>
   <v>      -0.40000000      -0.46666667       0.26666667 </v>
   <v>      -0.33333333       0.33333333       0.33333333 </v>
   <v>      -0.40000000       0.40000000       0.33333333 </v>
   <v>      -0.46666667       0.46666667       0.33333333 </v>
   <v>      -0.40000000       0.46666667       0.33333333 </v>
   <v>      -0.46666667      -0.46666667       0.33333333 </v>
   <v>      -0.40000000       0.40000000       0.40000000 </v>
   <v>      -0.46666667       0.46666667       0.40000000 </v>
   <v>      -0.46666667      -0.46666667       0.40000000 </v>
   <v>      -0.46666667       0.46666667       0.46666667 </v>
  </varray>
  <varray name="weights" >
   <v>       0.00029630 </v>
   <v>       0.00355556 </v>
   <v>       0.00355556 </v>
   <v>       0.00355556 </v>
   <v>       0.00355556 </v>
   <v>       0.00355556 </v>
   <v>       0.00355556 </v>
   <v>       0.00355556 </v>
   <v>       0.00711111 </v>
   <v>       0.01422222 </v>
   <v>       0.01422222 </v>
   <v>       0.01422222 </v>
   <v>       0.01422222 </v>
   <v>       0.01422222 </v>
   <v>       0.00711111 </v>
   <v>       0.00711111 </v>
   <v>       0.01422222 </v>
   <v>       0.01422222 </v>
   <v>       0.01422222 </v>
   <v>       0.01422222 </v>
   <v>       0.00711111 </v>
   <v>       0.01422222 </v>
   <v>       0.01422222 </v>
   <v>       0.00711111 </v>
   <v>       0.00711111 </v>
   <v>       0.01422222 </v>
   <v>       0.00237037 </v>
   <v>       0.00237037 </v>
   <v>       0.00711111 </v>
   <v>       0.00711111 </v>
   <v>       0.00711111 </v>
   <v>       0.00711111 </v>
   <v>       0.00711111 </v>
   <v>       0.00177778 </v>
   <v>       0.00711111 </v>
   <v>       0.01422222 </v>
   <v>       0.01422222 </v>
   <v>       0.01422222 </v>
   <v>       0.00711111 </v>
   <v>       0.00711111 </v>
   <v>       0.00711111 </v>
   <v>       0.01422222 </v>
   <v>       0.01422222 </v>
   <v>       0.00711111 </v>
   <v>       0.00711111 </v>
   <v>       0.00711111 </v>
   <v>       0.00711111 </v>
   <v>       0.00711111 </v>
   <v>       0.01422222 </v>
   <v>       0.00711111 </v>
   <v>       0.01422222 </v>
   <v>       0.00711111 </v>
   <v>       0.00711111 </v>
   <v>       0.01422222 </v>
   <v>       0.01422222 </v>
   <v>       0.00711111 </v>
   <v>       0.01422222 </v>
   <v>       0.01422222 </v>
   <v>       0.00711111 </v>
   <v>       0.00711111 </v>
   <v>       0.01422222 </v>
   <v>       0.01422222 </v>
   <v>       0.00711111 </v>
   <v>       0.00711111 </v>
   <v>       0.00237037 </v>
   <v>       0.00711111 </v>
   <v>       0.00711111 </v>
   <v>       0.00711111 </v>
   <v>       0.00177778 </v>
   <v>       0.00711111 </v>
   <v>       0.01422222 </v>
   <v>       0.00711111 </v>
   <v>       0.00711111 </v>
   <v>       0.00711111 </v>
   <v>       0.00711111 </v>
   <v>       0.00711111 </v>
   <v>       0.00711111 </v>
   <v>       0.01422222 </v>
   <v>       0.00711111 </v>
   <v>       0.01422222 </v>
   <v>       0.00711111 </v>
   <v>       0.00711111 </v>
   <v>       0.01422222 </v>
   <v>       0.01422222 </v>
   <v>       0.00711111 </v>
   <v>       0.01422222 </v>
   <v>       0.00711111 </v>
   <v>       0.00711111 </v>
   <v>       0.00237037 </v>
   <v>       0.00711111 </v>
   <v>       0.00177778 </v>
   <v>       0.00237037 </v>
   <v>       0.00711111 </v>
   <v>       0.00711111 </v>
   <v>       0.00711111 </v>
   <v>       0.00711111 </v>
   <v>       0.01422222 </v>
   <v>       0.00711111 </v>
   <v>       0.01422222 </v>
   <v>       0.00711111 </v>
   <v>       0.00711111 </v>
   <v>       0.01422222 </v>
   <v>       0.00237037 </v>
   <v>       0.00177778 </v>
   <v>       0.00711111 </v>
   <v>       0.00711111 </v>
   <v>       0.00711111 </v>
   <v>       0.00711111 </v>
   <v>       0.01422222 </v>
   <v>       0.00711111 </v>
   <v>       0.00711111 </v>
   <v>       0.00177778 </v>
   <v>       0.00711111 </v>
   <v>       0.00711111 </v>
   <v>       0.00711111 </v>
   <v>       0.00711111 </v>
   <v>       0.00177778 </v>
   <v>       0.00711111 </v>
   <v>       0.00237037 </v>
   <v>       0.00177778 </v>
  </varray>
 </kpoints>
 <parameters>
  <separator name="general" >
   <i type="string" name="SYSTEM">unknown system</i>
   <i type="logical" name="LCOMPAT"> F  </i>
  </separator>
  <separator name="electronic" >
   <i type="string" name="PREC">accura</i>
   <i name="ENMAX">    350.00000000</i>
   <i name="ENAUG">    322.06900000</i>
   <i name="EDIFF">      0.00000100</i>
   <i type="int" name="IALGO">    38</i>
   <i type="int" name="IWAVPR">    11</i>
   <i type="int" name="NBANDS">     8</i>
   <i type="int" name="NBANDSLOW">    -1</i>
   <i type="int" name="NBANDSHIGH">    -1</i>
   <i name="NELECT">      4.00000000</i>
   <i type="int" name="TURBO">     0</i>
   <i type="int" name="IRESTART">     0</i>
   <i type="int" name="NREBOOT">     0</i>
   <i type="int" name="NMIN">     0</i>
   <i name="EREF">      0.00000000</i>
   <separator name="electronic smearing" >
    <i type="int" name="ISMEAR">     0</i>
    <i name="SIGMA">      0.05000000</i>
    <i name="KSPACING">      0.50000000</i>
    <i type="logical" name="KGAMMA"> T  </i>
    <i type="logical" name="KBLOWUP"> T  </i>
   </separator>
   <separator name="electronic projectors" >
    <i type="logical" name="LREAL"> F  </i>
    <v name="ROPT">      0.00000000</v>
    <i type="int" name="LMAXPAW">  -100</i>
    <i type="int" name="LMAXMIX">     2</i>
    <i type="logical" name="NLSPLINE"> F  </i>
   </separator>
   <separator name="electronic startup" >
    <i type="int" name="ISTART">     0</i>
    <i type="int" name="ICHARG">     2</i>
    <i type="int" name="INIWAV">     1</i>
   </separator>
   <separator name="electronic spin" >
    <i type="int" name="ISPIN">     1</i>
    <i type="logical" name="LNONCOLLINEAR"> F  </i>
    <v name="MAGMOM">      1.00000000</v>
    <i name="NUPDOWN">     -1.00000000</i>
    <i type="logical" name="LSORBIT"> F  </i>
    <v name="SAXIS">      0.00000000      0.00000000      1.00000000</v>
    <i type="logical" name="LSPIRAL"> F  </i>
    <v name="QSPIRAL">      0.00000000      0.00000000      0.00000000</v>
    <i type="logical" name="LZEROZ"> F  </i>
   </separator>
   <separator name="electronic exchange-correlation" >
    <i type="logical" name="LASPH"> T  </i>
    <i type="logical" name="LMETAGGA"> F  </i>
   </separator>
   <separator name="electronic convergence" >
    <i type="int" name="NELM">    90</i>
    <i type="int" name="NELMDL">    -5</i>
    <i type="int" name="NELMIN">     6</i>
    <i name="ENINI">    350.00000000</i>
    <separator name="electronic convergence detail" >
     <i type="logical" name="LDIAG"> T  </i>
     <i type="logical" name="LSUBROT"> F  </i>
     <i name="WEIMIN">      0.00100000</i>
     <i name="EBREAK">      0.00000003</i>
     <i name="DEPER">      0.30000000</i>
     <i type="int" name="NRMM">     4</i>
     <i name="TIME">      0.40000000</i>
    </separator>
   </separator>
   <separator name="electronic mixer" >
    <i name="AMIX">      0.40000000</i>
    <i name="BMIX">      1.00000000</i>
    <i name="AMIN">      0.10000000</i>
    <i name="AMIX_MAG">      1.60000000</i>
    <i name="BMIX_MAG">      1.00000000</i>
    <separator name="electronic mixer details" >
     <i type="int" name="IMIX">     4</i>
     <i type="logical" name="MIXFIRST"> F  </i>
     <i type="int" name="MAXMIX">   -45</i>
     <i name="WC">    100.00000000</i>
     <i type="int" name="INIMIX">     1</i>
     <i type="int" name="MIXPRE">     1</i>
     <i type="int" name="MREMOVE">     5</i>
    </separator>
   </separator>
   <separator name="electronic dipolcorrection" >
    <i type="logical" name="LDIPOL"> F  </i>
    <i type="logical" name="LMONO"> F  </i>
    <i type="int" name="IDIPOL">     0</i>
    <i name="EPSILON">      1.00000000</i>
    <v name="DIPOL">   -100.00000000   -100.00000000   -100.00000000</v>
    <i name="EFIELD">      0.00000000</i>
   </separator>
  </separator>
  <separator name="grids" >
   <i type="int" name="NGX">    16</i>
   <i type="int" name="NGY">    16</i>
   <i type="int" name="NGZ">    16</i>
   <i type="int" name="NGXF">    32</i>
   <i type="int" name="NGYF">    32</i>
   <i type="int" name="NGZF">    32</i>
   <i type="logical" name="ADDGRID"> T  </i>
  </separator>
  <separator name="ionic" >
   <i type="int" name="NSW">   100</i>
   <i type="int" name="IBRION">     2</i>
   <i type="int" name="MDALGO">     0</i>
   <i type="int" name="ISIF">     3</i>
   <i name="PSTRESS">      0.00000000</i>
   <i name="EDIFFG">     -0.00200000</i>
   <i type="int" name="NFREE">     1</i>
   <i name="POTIM">      0.50000000</i>
   <i name="SMASS">     -3.00000000</i>
   <i name="SCALEE">      1.00000000</i>
  </separator>
  <separator name="ionic md" >
   <i name="TEBEG">      0.00010000</i>
   <i name="TEEND">      0.00010000</i>
   <i type="int" name="NBLOCK">     1</i>
   <i type="int" name="KBLOCK">   100</i>
   <i type="int" name="NPACO">   256</i>
   <i name="APACO">     16.00000000</i>
  </separator>
  <separator name="symmetry" >
   <i type="int" name="ISYM">     2</i>
   <i name="SYMPREC">      0.00001000</i>
  </separator>
  <separator name="dos" >
   <i type="int" name="LORBIT">     0</i>
   <v name="RWIGS">     -1.00000000</v>
   <i type="int" name="NEDOS">   301</i>
   <i name="EMIN">     10.00000000</i>
   <i name="EMAX">    -10.00000000</i>
   <i name="EFERMI">      0.00000000</i>
  </separator>
  <separator name="writing" >
   <i type="int" name="NWRITE">     2</i>
   <i type="logical" name="LWAVE"> F  </i>
   <i type="logical" name="LDOWNSAMPLE"> F  </i>
   <i type="logical" name="LCHARG"> F  </i>
   <i type="logical" name="LPARD"> F  </i>
   <i type="logical" name="LVTOT"> F  </i>
   <i type="logical" name="LVHAR"> F  </i>
   <i type="logical" name="LELF"> F  </i>
   <i type="logical" name="LOPTICS"> F  </i>
   <v name="STM">      0.00000000      0.00000000      0.00000000      0.00000000      0.00000000      0.00000000      0.00000000</v>
  </separator>
  <separator name="performance" >
   <i type="int" name="NPAR">     4</i>
   <i type="int" name="NSIM">     4</i>
   <i type="int" name="NBLK">    -1</i>
   <i type="logical" name="LPLANE"> T  </i>
   <i type="logical" name="LSCALAPACK"> T  </i>
   <i type="logical" name="LSCAAWARE"> F  </i>
   <i type="logical" name="LSCALU"> F  </i>
   <i type="logical" name="LASYNC"> F  </i>
   <i type="logical" name="LORBITALREAL"> F  </i>
  </separator>
  <separator name="miscellaneous" >
   <i type="int" name="IDIOT">     3</i>
   <i type="int" name="PHON_NSTRUCT">    -1</i>
   <i type="logical" name="LMUSIC"> F  </i>
   <v name="POMASS">     28.08500000</v>
   <v name="DARWINR">      0.00000000</v>
   <v name="DARWINV">      1.00000000</v>
   <i type="logical" name="LCORR"> T  </i>
  </separator>
  <i type="logical" name="GGA_COMPAT"> T  </i>
  <i type="logical" name="LBERRY"> F  </i>
  <i type="int" name="ICORELEVEL">     0</i>
  <i type="logical" name="LDAU"> F  </i>
  <i type="int" name="I_CONSTRAINED_M">     0</i>
  <separator name="electronic exchange-correlation" >
   <i type="string" name="GGA">--</i>
   <i type="int" name="VOSKOWN">     0</i>
   <i type="logical" name="LHFCALC"> F  </i>
   <i type="string" name="PRECFOCK"></i>
   <i type="logical" name="LSYMGRAD"> F  </i>
   <i type="logical" name="LHFONE"> F  </i>
   <i type="logical" name="LRHFCALC"> F  </i>
   <i type="logical" name="LTHOMAS"> F  </i>
   <i type="logical" name="LMODELHF"> F  </i>
   <i type="logical" name="LFOCKACE"> F  </i>
   <i name="ENCUT4O">     -1.00000000</i>
   <i type="int" name="EXXOEP">     0</i>
   <i type="int" name="FOURORBIT">     0</i>
   <i name="AEXX">      0.00000000</i>
   <i name="HFALPHA">      0.00000000</i>
   <i name="MCALPHA">      0.00000000</i>
   <i name="ALDAX">      1.00000000</i>
   <i name="AGGAX">      1.00000000</i>
   <i name="ALDAC">      1.00000000</i>
   <i name="AGGAC">      1.00000000</i>
   <i type="int" name="NKREDX">     1</i>
   <i type="int" name="NKREDY">     1</i>
   <i type="int" name="NKREDZ">     1</i>
   <i type="logical" name="SHIFTRED"> F  </i>
   <i type="logical" name="ODDONLY"> F  </i>
   <i type="logical" name="EVENONLY"> F  </i>
   <i type="int" name="LMAXFOCK">     0</i>
   <i type="int" name="NMAXFOCKAE">     0</i>
   <i type="logical" name="LFOCKAEDFT"> F  </i>
   <i name="HFSCREEN">      0.00000000</i>
   <i name="HFSCREENC">      0.00000000</i>
   <i type="int" name="NBANDSGWLOW">     0</i>
  </separator>
  <separator name="vdW DFT" >
   <i type="logical" name="LUSE_VDW"> F  </i>
   <i name="Zab_VDW">     -0.84910000</i>
   <i name="PARAM1">      0.12340000</i>
   <i name="PARAM2">      1.00000000</i>
   <i name="PARAM3">      0.00000000</i>
  </separator>
  <separator name="model GW" >
   <i type="int" name="MODEL_GW">     0</i>
   <i name="MODEL_EPS0">      8.31779867</i>
   <i name="MODEL_ALPHA">      1.00000000</i>
  </separator>
  <separator name="linear response parameters" >
   <i type="logical" name="LEPSILON"> F  </i>
   <i type="logical" name="LRPA"> F  </i>
   <i type="logical" name="LNABLA"> F  </i>
   <i type="logical" name="LVEL"> F  </i>
   <i type="int" name="KINTER">     0</i>
   <i name="CSHIFT">      0.10000000</i>
   <i name="OMEGAMAX">     -1.00000000</i>
   <i name="DEG_THRESHOLD">      0.00200000</i>
   <i name="RTIME">     -0.10000000</i>
   <i name="WPLASMAI">      0.00000000</i>
   <v name="DFIELD">      0.00000000      0.00000000      0.00000000</v>
   <v name="WPLASMA">      0.00000000      0.00000000      0.00000000      0.00000000      0.00000000      0.00000000      0.00000000      0.00000000      0.00000000</v>
  </separator>
  <separator name="orbital magnetization" >
   <i type="logical" name="NUCIND"> F  </i>
   <v name="MAGPOS">      0.00000000      0.00000000      0.00000000</v>
   <i type="logical" name="LNICSALL"> T  </i>
   <i type="logical" name="ORBITALMAG"> F  </i>
   <i type="logical" name="LMAGBLOCH"> F  </i>
   <i type="logical" name="LCHIMAG"> F  </i>
   <i type="logical" name="LGAUGE"> T  </i>
   <i type="int" name="MAGATOM">     0</i>
   <v name="MAGDIPOL">      0.00000000      0.00000000      0.00000000</v>
   <v name="AVECCONST">      0.00000000      0.00000000      0.00000000</v>
  </separator>
  <separator name="response functions" >
   <i type="logical" name="LFINITE_TEMPERATURE"> F  </i>
   <i type="logical" name="LADDER"> F  </i>
   <i type="logical" name="LRPAFORCE"> F  </i>
   <i type="logical" name="LFXC"> F  </i>
   <i type="logical" name="LHARTREE"> T  </i>
   <i type="int" name="IBSE">     0</i>
   <v type="int" name="KPOINT">    -1     0     0     0</v>
   <i type="logical" name="LTCTC"> F  </i>
   <i type="logical" name="LTCTE"> F  </i>
   <i type="logical" name="LTETE"> F  </i>
   <i type="logical" name="LTRIPLET"> F  </i>
   <i type="logical" name="LFXCEPS"> F  </i>
   <i type="logical" name="LFXHEG"> F  </i>
   <i type="int" name="NATURALO">     2</i>
   <i type="logical" name="LHOLEGF"> F  </i>
   <i type="logical" name="L2ORDER"> F  </i>
   <i type="logical" name="LDMP1"> F  </i>
   <i type="logical" name="LMP2LT"> F  </i>
   <i type="logical" name="LSMP2LT"> F  </i>
   <i type="logical" name="LGWLF"> F  </i>
   <i name="ENCUTGW">     -2.00000000</i>
   <i name="ENCUTGWSOFT">     -2.00000000</i>
   <i name="ENCUTLF">     -1.00000000</i>
   <i type="logical" name="LESF_SPLINES"> F  </i>
   <i type="int" name="LMAXMP2">    -1</i>
   <i name="SCISSOR">      0.00000000</i>
   <i type="int" name="NOMEGA">     0</i>
   <i type="int" name="NOMEGAR">     0</i>
   <i type="int" name="NBANDSGW">    -1</i>
   <i type="int" name="NBANDSO">    -1</i>
   <i type="int" name="NBANDSV">    -1</i>
   <i type="int" name="NELM">    90</i>
   <i type="int" name="NELMHF">     1</i>
   <i type="int" name="DIM">     3</i>
   <i type="int" name="IESPILON">     4</i>
   <i type="int" name="ANTIRES">     0</i>
   <i name="OMEGAMAX">    -30.00000000</i>
   <i name="OMEGAMIN">    -30.00000000</i>
   <i name="OMEGATL">   -200.00000000</i>
   <i type="int" name="OMEGAGRID">     0</i>
   <i name="CSHIFT">     -0.10000000</i>
   <i type="logical" name="LSELFENERGY"> F  </i>
   <i type="logical" name="LSPECTRAL"> F  </i>
   <i type="logical" name="LSPECTRALGW"> F  </i>
   <i type="logical" name="LSINGLES"> F  </i>
   <i type="logical" name="LFERMIGW"> F  </i>
   <i type="logical" name="ODDONLYGW"> F  </i>
   <i type="logical" name="EVENONLYGW"> F  </i>
   <i type="int" name="NKREDLFX">     1</i>
   <i type="int" name="NKREDLFY">     1</i>
   <i type="int" name="NKREDLFZ">     1</i>
   <i type="int" name="MAXMEM">  2800</i>
   <i type="int" name="TELESCOPE">     0</i>
   <i type="int" name="NTAUPAR">    -1</i>
   <i type="int" name="NOMEGAPAR">    -1</i>
   <i name="DAMP_NEWTON">      0.80000001</i>
   <i name="LAMBDA">      1.00000000</i>
  </separator>
  <separator name="External order field" >
   <i name="OFIELD_KAPPA">      0.00000000</i>
   <v name="OFIELD_K">      0.00000000      0.00000000      0.00000000</v>
   <i name="OFIELD_Q6_NEAR">      0.00000000</i>
   <i name="OFIELD_Q6_FAR">      0.00000000</i>
   <i name="OFIELD_A">      0.00000000</i>
  </separator>
 </parameters>
 <atominfo>
  <atoms>       1 </atoms>
  <types>       1 </types>
  <array name="atoms" >
   <dimension dim="1">ion</dimension>
   <field type="string">element</field>
   <field type="int">atomtype</field>
   <set>
    <rc><c>Si</c><c>   1</c></rc>
   </set>
  </array>
  <array name="atomtypes" >
   <dimension dim="1">type</dimension>
   <field type="int">atomspertype</field>
   <field type="string">element</field>
   <field>mass</field>
   <field>valence</field>
   <field type="string">pseudopotential</field>
   <set>
    <rc><c>   1</c><c>Si</c><c>     28.08500000</c><c>      4.00000000</c><c>  PAW_PBE Si 05Jan2001                  </c></rc>
   </set>
  </array>
 </atominfo>
 <structure name="initialpos" >
  <crystal>
   <varray name="basis" >
    <v>       1.51332563       1.51332563       1.51332563 </v>
    <v>       1.51332563      -1.51332563      -1.51332563 </v>
    <v>      -1.51332563       1.51332563      -1.51332563 </v>
   </varray>
   <i name="volume">     13.86299778 </i>
   <varray name="rec_basis" >
    <v>       0.33039816       0.33039816       0.00000000 </v>
    <v>       0.33039816       0.00000000      -0.33039816 </v>
    <v>       0.00000000       0.33039816      -0.33039816 </v>
   </varray>
  </crystal>
  <varray name="positions" >
   <v>       0.00000000       0.00000000       0.00000000 </v>
  </varray>
 </structure>
 <calculation>
  <scstep>
   <time name="dav">    0.35    0.35</time>
   <time name="total">    0.53    0.53</time>
   <energy>
    <i name="alphaZ">      2.42827211 </i>
    <i name="ewald">   -138.51397499 </i>
    <i name="hartreedc">     -0.48179554 </i>
    <i name="XCdc">     -8.69332224 </i>
    <i name="pawpsdc">     88.12379961 </i>
    <i name="pawaedc">    -70.53051779 </i>
    <i name="eentropy">     -0.00098011 </i>
    <i name="bandstr">     21.33467795 </i>
    <i name="atom">    103.06562707 </i>
    <i name="e_fr_energy">     -3.26821393 </i>
    <i name="e_wo_entrp">     -3.26723382 </i>
    <i name="e_0_energy">     -3.26772388 </i>
   </energy>
  </scstep>
  <scstep>
   <time name="dav">    0.51    0.53</time>
   <time name="total">    0.52    0.53</time>
   <energy>
    <i name="e_fr_energy">     -4.90485714 </i>
    <i name="e_wo_entrp">     -4.90427654 </i>
    <i name="e_0_energy">     -4.90456684 </i>
   </energy>
  </scstep>
  <scstep>
   <time name="dav">    0.36    0.37</time>
   <time name="total">    0.36    0.37</time>
   <energy>
    <i name="e_fr_energy">     -4.91188068 </i>
    <i name="e_wo_entrp">     -4.91129483 </i>
    <i name="e_0_energy">     -4.91158776 </i>
   </energy>
  </scstep>
  <scstep>
   <time name="dav">    0.54    0.55</time>
   <time name="total">    0.54    0.55</time>
   <energy>
    <i name="e_fr_energy">     -4.91188578 </i>
    <i name="e_wo_entrp">     -4.91129991 </i>
    <i name="e_0_energy">     -4.91159285 </i>
   </energy>
  </scstep>
  <scstep>
   <time name="dav">    0.36    0.38</time>
   <time name="total">    0.38    0.40</time>
   <energy>
    <i name="e_fr_energy">     -4.91188578 </i>
    <i name="e_wo_entrp">     -4.91129992 </i>
    <i name="e_0_energy">     -4.91159285 </i>
   </energy>
  </scstep>
  <scstep>
   <time name="dav">    0.34    0.34</time>
   <time name="total">    0.53    0.54</time>
   <energy>
    <i name="e_fr_energy">     -4.90036436 </i>
    <i name="e_wo_entrp">     -4.89975740 </i>
    <i name="e_0_energy">     -4.90006088 </i>
   </energy>
  </scstep>
  <scstep>
   <time name="dav">    0.34    0.34</time>
   <time name="total">    0.54    0.55</time>
   <energy>
    <i name="e_fr_energy">     -4.89378032 </i>
    <i name="e_wo_entrp">     -4.89314767 </i>
    <i name="e_0_energy">     -4.89346400 </i>
   </energy>
  </scstep>
  <scstep>
   <time name="dav">    0.47    0.47</time>
   <time name="total">    0.67    0.68</time>
   <energy>
    <i name="e_fr_energy">     -4.89375891 </i>
    <i name="e_wo_entrp">     -4.89312559 </i>
    <i name="e_0_energy">     -4.89344225 </i>
   </energy>
  </scstep>
  <scstep>
   <time name="dav">    0.35    0.36</time>
   <time name="total">    0.53    0.54</time>
   <energy>
    <i name="alphaZ">      2.42827211 </i>
    <i name="ewald">   -138.51397499 </i>
    <i name="hartreedc">     -0.35547807 </i>
    <i name="XCdc">     -8.62313483 </i>
    <i name="pawpsdc">    335.26006276 </i>
    <i name="pawaedc">   -317.69427940 </i>
    <i name="eentropy">     -0.00063348 </i>
    <i name="bandstr">     19.53977936 </i>
    <i name="atom">    103.06562707 </i>
    <i name="e_fr_energy">     -4.89375948 </i>
    <i name="e_wo_entrp">     -4.89312600 </i>
    <i name="e_0_energy">     -4.89344274 </i>
   </energy>
  </scstep>
  <structure>
   <crystal>
    <varray name="basis" >
     <v>       1.51332563       1.51332563       1.51332563 </v>
     <v>       1.51332563      -1.51332563      -1.51332563 </v>
     <v>      -1.51332563       1.51332563      -1.51332563 </v>
    </varray>
    <i name="volume">     13.86299778 </i>
    <varray name="rec_basis" >
     <v>       0.33039816       0.33039816       0.00000000 </v>
     <v>       0.33039816       0.00000000      -0.33039816 </v>
     <v>       0.00000000       0.33039816      -0.33039816 </v>
    </varray>
   </crystal>
   <varray name="positions" >
    <v>       0.00000000       0.00000000       0.00000000 </v>
   </varray>
  </structure>
  <varray name="forces" >
   <v>       0.00000000       0.00000000       0.00000000 </v>
  </varray>
  <varray name="stress" >
   <v>      55.56982722       0.00000000       0.00000000 </v>
   <v>       0.00000000      55.56982722      -0.00000000 </v>
   <v>       0.00000000       0.00000000      55.56982722 </v>
  </varray>
  <energy>
   <i name="e_fr_energy">     -4.89375948 </i>
   <i name="e_wo_entrp">     -4.89312600 </i>
   <i name="e_0_energy">     -4.89344274 </i>
  </energy>
  <time name="totalsc">    5.41    5.72</time>
 </calculation>
 <calculation>
  <scstep>
   <time name="dav">    0.32    0.33</time>
   <time name="total">    0.51    0.52</time>
   <energy>
    <i name="alphaZ">      2.26683859 </i>
    <i name="ewald">   -135.37381710 </i>
    <i name="hartreedc">     -0.34739764 </i>
    <i name="XCdc">     -8.80327053 </i>
    <i name="pawpsdc">    335.33428631 </i>
    <i name="pawaedc">   -317.76815419 </i>
    <i name="eentropy">     -0.00047202 </i>
    <i name="bandstr">     16.71263947 </i>
    <i name="atom">    103.06562707 </i>
    <i name="e_fr_energy">     -4.91372004 </i>
    <i name="e_wo_entrp">     -4.91324802 </i>
    <i name="e_0_energy">     -4.91348403 </i>
   </energy>
  </scstep>
  <scstep>
   <time name="dav">    0.36    0.37</time>
   <time name="total">    0.56    0.57</time>
   <energy>
    <i name="e_fr_energy">     -4.90844673 </i>
    <i name="e_wo_entrp">     -4.90797769 </i>
    <i name="e_0_energy">     -4.90821221 </i>
   </energy>
  </scstep>
  <scstep>
   <time name="dav">    0.34    0.34</time>
   <time name="total">    0.53    0.55</time>
   <energy>
    <i name="e_fr_energy">     -4.90534420 </i>
    <i name="e_wo_entrp">     -4.90487781 </i>
    <i name="e_0_energy">     -4.90511101 </i>
   </energy>
  </scstep>
  <scstep>
   <time name="dav">    0.42    0.42</time>
   <time name="total">    0.61    0.63</time>
   <energy>
    <i name="e_fr_energy">     -4.90534114 </i>
    <i name="e_wo_entrp">     -4.90487470 </i>
    <i name="e_0_energy">     -4.90510792 </i>
   </energy>
  </scstep>
  <scstep>
   <time name="dav">    0.40    0.40</time>
   <time name="total">    0.59    0.61</time>
   <energy>
    <i name="e_fr_energy">     -4.90532919 </i>
    <i name="e_wo_entrp">     -4.90486258 </i>
    <i name="e_0_energy">     -4.90509588 </i>
   </energy>
  </scstep>
  <scstep>
   <time name="dav">    0.28    0.28</time>
   <time name="total">    0.46    0.47</time>
   <energy>
    <i name="alphaZ">      2.26683859 </i>
    <i name="ewald">   -135.37381710 </i>
    <i name="hartreedc">     -0.45561850 </i>
    <i name="XCdc">     -8.82482719 </i>
    <i name="pawpsdc">    289.42814749 </i>
    <i name="pawaedc">   -271.84716732 </i>
    <i name="eentropy">     -0.00046659 </i>
    <i name="bandstr">     16.83595395 </i>
    <i name="atom">    103.06562707 </i>
    <i name="e_fr_energy">     -4.90532960 </i>
    <i name="e_wo_entrp">     -4.90486301 </i>
    <i name="e_0_energy">     -4.90509631 </i>
   </energy>
  </scstep>
  <structure>
   <crystal>
    <varray name="basis" >
     <v>       1.54842903       1.54842903       1.54842903 </v>
     <v>       1.54842903      -1.54842903      -1.54842903 </v>
     <v>      -1.54842903       1.54842903      -1.54842903 </v>
    </varray>
    <i name="volume">     14.85025486 </i>
    <varray name="rec_basis" >
     <v>       0.32290792       0.32290792       0.00000000 </v>
     <v>       0.32290792       0.00000000      -0.32290792 </v>
     <v>       0.00000000       0.32290792      -0.32290792 </v>
    </varray>
   </crystal>
   <varray name="positions" >
    <v>       0.00000000      -0.00000000      -0.00000000 </v>
   </varray>
  </structure>
  <varray name="forces" >
   <v>       0.00000000      -0.00000000      -0.00000000 </v>
  </varray>
  <varray name="stress" >
   <v>     -14.28979602       0.00000000       0.00000000 </v>
   <v>      -0.00000000     -14.28979602      -0.00000000 </v>
   <v>       0.00000000      -0.00000000     -14.28979602 </v>
  </varray>
  <energy>
   <i name="e_fr_energy">     -4.90532960 </i>
   <i name="e_wo_entrp">     -4.90486301 </i>
   <i name="e_0_energy">     -4.90509631 </i>
  </energy>
  <time name="totalsc">    4.22    4.42</time>
 </calculation>
 <calculation>
  <scstep>
   <time name="dav">    0.32    0.32</time>
   <time name="total">    0.51    0.52</time>
   <energy>
    <i name="alphaZ">      2.30262111 </i>
    <i name="ewald">   -136.08240299 </i>
    <i name="hartreedc">     -0.45799096 </i>
    <i name="XCdc">     -8.78487854 </i>
    <i name="pawpsdc">    289.17899984 </i>
    <i name="pawaedc">   -271.59803389 </i>
    <i name="eentropy">     -0.00049724 </i>
    <i name="bandstr">     17.46974418 </i>
    <i name="atom">    103.06562707 </i>
    <i name="e_fr_energy">     -4.90681143 </i>
    <i name="e_wo_entrp">     -4.90631419 </i>
    <i name="e_0_energy">     -4.90656281 </i>
   </energy>
  </scstep>
  <scstep>
   <time name="dav">    0.36    0.36</time>
   <time name="total">    0.55    0.56</time>
   <energy>
    <i name="e_fr_energy">     -4.90652850 </i>
    <i name="e_wo_entrp">     -4.90603284 </i>
    <i name="e_0_energy">     -4.90628067 </i>
   </energy>
  </scstep>
  <scstep>
   <time name="dav">    0.34    0.34</time>
   <time name="total">    0.53    0.55</time>
   <energy>
    <i name="e_fr_energy">     -4.90636497 </i>
    <i name="e_wo_entrp">     -4.90587151 </i>
    <i name="e_0_energy">     -4.90611824 </i>
   </energy>
  </scstep>
  <scstep>
   <time name="dav">    0.40    0.40</time>
   <time name="total">    0.59    0.60</time>
   <energy>
    <i name="e_fr_energy">     -4.90636503 </i>
    <i name="e_wo_entrp">     -4.90587157 </i>
    <i name="e_0_energy">     -4.90611830 </i>
   </energy>
  </scstep>
  <scstep>
   <time name="dav">    0.21    0.21</time>
   <time name="total">    0.40    0.42</time>
   <energy>
    <i name="e_fr_energy">     -4.90636576 </i>
    <i name="e_wo_entrp">     -4.90587234 </i>
    <i name="e_0_energy">     -4.90611905 </i>
   </energy>
  </scstep>
  <scstep>
   <time name="dav">    0.19    0.19</time>
   <time name="total">    0.36    0.37</time>
   <energy>
    <i name="alphaZ">      2.30262111 </i>
    <i name="ewald">   -136.08240299 </i>
    <i name="hartreedc">     -0.43036465 </i>
    <i name="XCdc">     -8.77971316 </i>
    <i name="pawpsdc">    298.62963540 </i>
    <i name="pawaedc">   -281.05189436 </i>
    <i name="eentropy">     -0.00049343 </i>
    <i name="bandstr">     17.44061940 </i>
    <i name="atom">    103.06562707 </i>
    <i name="e_fr_energy">     -4.90636561 </i>
    <i name="e_wo_entrp">     -4.90587218 </i>
    <i name="e_0_energy">     -4.90611890 </i>
   </energy>
  </scstep>
  <structure>
   <crystal>
    <varray name="basis" >
     <v>       1.54036631       1.54036631       1.54036631 </v>
     <v>       1.54036631      -1.54036631      -1.54036631 </v>
     <v>      -1.54036631       1.54036631      -1.54036631 </v>
    </varray>
    <i name="volume">     14.61948327 </i>
    <varray name="rec_basis" >
     <v>       0.32459812       0.32459812       0.00000000 </v>
     <v>       0.32459812       0.00000000      -0.32459812 </v>
     <v>       0.00000000       0.32459812      -0.32459812 </v>
    </varray>
   </crystal>
   <varray name="positions" >
    <v>       0.00000000      -0.00000000      -0.00000000 </v>
   </varray>
  </structure>
  <varray name="forces" >
   <v>      -0.00000000       0.00000000       0.00000000 </v>
  </varray>
  <varray name="stress" >
   <v>       0.15181834       0.00000000      -0.00000000 </v>
   <v>       0.00000000       0.15181834       0.00000000 </v>
   <v>       0.00000000       0.00000000       0.15181834 </v>
  </varray>
  <energy>
   <i name="e_fr_energy">     -4.90636561 </i>
   <i name="e_wo_entrp">     -4.90587218 </i>
   <i name="e_0_energy">     -4.90611890 </i>
  </energy>
  <time name="totalsc">    3.71    3.91</time>
  <eigenvalues>
   <array>
    <dimension dim="1">band</dimension>
    <dimension dim="2">kpoint</dimension>
    <dimension dim="3">spin</dimension>
    <field>eigene</field>
    <field>occ</field>
    <set>
     <set comment="spin 1">
      <set comment="kpoint 1">
       <r>   -4.3135    1.0000 </r>
       <r>   21.3065    0.0000 </r>
       <r>   21.3065    0.0000 </r>
       <r>   21.3065    0.0000 </r>
       <r>   22.4793    0.0000 </r>
       <r>   22.4793    0.0000 </r>
       <r>   22.4793    0.0000 </r>
       <r>   26.1587    0.0000 </r>
      </set>
      <set comment="kpoint 2">
       <r>   -4.1774    1.0000 </r>
       <r>   19.7011    0.0000 </r>
       <r>   20.1785    0.0000 </r>
       <r>   21.1146    0.0000 </r>
       <r>   22.0308    0.0000 </r>
       <r>   23.2345    0.0000 </r>
       <r>   23.8342    0.0000 </r>
       <r>   25.2505    0.0000 </r>
      </set>
      <set comment="kpoint 3">
       <r>   -3.7695    1.0000 </r>
       <r>   17.0868    0.0000 </r>
       <r>   18.8380    0.0000 </r>
       <r>   20.5953    0.0000 </r>
       <r>   21.0504    0.0000 </r>
       <r>   22.9970    0.0000 </r>
       <r>   25.1776    0.0000 </r>
       <r>   25.8486    0.0000 </r>
      </set>
      <set comment="kpoint 4">
       <r>   -3.0915    1.0000 </r>
       <r>   14.2645    0.0000 </r>
       <r>   17.7014    0.0000 </r>
       <r>   19.9093    0.0000 </r>
       <r>   19.9940    0.0000 </r>
       <r>   22.0476    0.0000 </r>
       <r>   26.0476    0.0000 </r>
       <r>   26.2242    0.0000 </r>
      </set>
      <set comment="kpoint 5">
       <r>   -2.1461    1.0000 </r>
       <r>   11.4885    0.0000 </r>
       <r>   16.7880    0.0000 </r>
       <r>   19.0591    0.0000 </r>
       <r>   19.2267    0.0000 </r>
       <r>   21.1871    0.0000 </r>
       <r>   26.8497    0.0000 </r>
       <r>   27.1244    0.0000 </r>
      </set>
      <set comment="kpoint 6">
       <r>   -0.9372    1.0000 </r>
       <r>    8.8652    1.0000 </r>
       <r>   16.1031    0.0000 </r>
       <r>   18.3270    0.0000 </r>
       <r>   18.6569    0.0000 </r>
       <r>   20.5137    0.0000 </r>
       <r>   27.7624    0.0000 </r>
       <r>   28.3453    0.0000 </r>
      </set>
      <set comment="kpoint 7">
       <r>    0.5294    1.0000 </r>
       <r>    6.4399    1.0000 </r>
       <r>   15.6463    0.0000 </r>
       <r>   17.8265    0.0000 </r>
       <r>   18.2555    0.0000 </r>
       <r>   20.0467    0.0000 </r>
       <r>   28.8733    0.0000 </r>
       <r>   29.6151    0.0000 </r>
      </set>
      <set comment="kpoint 8">
       <r>    2.2388    1.0000 </r>
       <r>    4.2482    1.0000 </r>
       <r>   15.4181    0.0000 </r>
       <r>   17.5736    0.0000 </r>
       <r>   18.0494    0.0000 </r>
       <r>   19.8103    0.0000 </r>
       <r>   29.9594    0.0000 </r>
       <r>   30.6427    0.0000 </r>
      </set>
      <set comment="kpoint 9">
       <r>   -3.9054    1.0000 </r>
       <r>   18.2040    0.0000 </r>
       <r>   18.7519    0.0000 </r>
       <r>   20.1014    0.0000 </r>
       <r>   22.1811    0.0000 </r>
       <r>   23.5315    0.0000 </r>
       <r>   24.4900    0.0000 </r>
       <r>   25.0363    0.0000 </r>
      </set>
      <set comment="kpoint 10">
       <r>   -3.3625    1.0000 </r>
       <r>   15.7312    0.0000 </r>
       <r>   17.2947    0.0000 </r>
       <r>   19.1322    0.0000 </r>
       <r>   21.7001    0.0000 </r>
       <r>   23.0851    0.0000 </r>
       <r>   24.8045    0.0000 </r>
       <r>   26.4276    0.0000 </r>
      </set>
      <set comment="kpoint 11">
       <r>   -2.5508    1.0000 </r>
       <r>   12.9456    0.0000 </r>
       <r>   16.2289    0.0000 </r>
       <r>   18.2171    0.0000 </r>
       <r>   20.9668    0.0000 </r>
       <r>   22.4234    0.0000 </r>
       <r>   25.3610    0.0000 </r>
       <r>   27.6936    0.0000 </r>
      </set>
      <set comment="kpoint 12">
       <r>   -1.4736    1.0000 </r>
       <r>   10.2459    0.0000 </r>
       <r>   15.4027    0.0000 </r>
       <r>   17.4474    0.0000 </r>
       <r>   20.2625    0.0000 </r>
       <r>   21.8355    0.0000 </r>
       <r>   26.1577    0.0000 </r>
       <r>   28.8467    0.0000 </r>
      </set>
      <set comment="kpoint 13">
       <r>   -0.1355    1.0000 </r>
       <r>    7.7205    1.0000 </r>
       <r>   14.8110    0.0000 </r>
       <r>   16.8766    0.0000 </r>
       <r>   19.7171    0.0000 </r>
       <r>   21.3678    0.0000 </r>
       <r>   27.2266    0.0000 </r>
       <r>   29.9673    0.0000 </r>
      </set>
      <set comment="kpoint 14">
       <r>    1.4556    1.0000 </r>
       <r>    5.4088    1.0000 </r>
       <r>   14.4552    0.0000 </r>
       <r>   16.5278    0.0000 </r>
       <r>   19.3777    0.0000 </r>
       <r>   21.0696    0.0000 </r>
       <r>   28.4945    0.0000 </r>
       <r>   30.5884    0.0000 </r>
      </set>
      <set comment="kpoint 15">
       <r>    3.1124    1.0000 </r>
       <r>    3.5108    1.0000 </r>
       <r>   14.3362    0.0000 </r>
       <r>   16.4102    0.0000 </r>
       <r>   19.2626    0.0000 </r>
       <r>   20.9670    0.0000 </r>
       <r>   29.6518    0.0000 </r>
       <r>   30.0043    0.0000 </r>
      </set>
      <set comment="kpoint 16">
       <r>   -2.6858    1.0000 </r>
       <r>   14.3673    0.0000 </r>
       <r>   14.8336    0.0000 </r>
       <r>   18.0729    0.0000 </r>
       <r>   21.9096    0.0000 </r>
       <r>   23.0032    0.0000 </r>
       <r>   25.4888    0.0000 </r>
       <r>   26.7939    0.0000 </r>
      </set>
      <set comment="kpoint 17">
       <r>   -1.7422    1.0000 </r>
       <r>   11.8363    0.0000 </r>
       <r>   13.6608    0.0000 </r>
       <r>   17.2087    0.0000 </r>
       <r>   21.5581    0.0000 </r>
       <r>   23.0571    0.0000 </r>
       <r>   25.7950    0.0000 </r>
       <r>   28.2297    0.0000 </r>
      </set>
      <set comment="kpoint 18">
       <r>   -0.5356    1.0000 </r>
       <r>    9.2382    1.0000 </r>
       <r>   12.9176    0.0000 </r>
       <r>   16.5347    0.0000 </r>
       <r>   21.0033    0.0000 </r>
       <r>   23.2923    0.0000 </r>
       <r>   26.0565    0.0000 </r>
       <r>   29.8366    0.0000 </r>
      </set>
      <set comment="kpoint 19">
       <r>    0.9283    1.0000 </r>
       <r>    6.8235    1.0000 </r>
       <r>   12.4238    0.0000 </r>
       <r>   16.0748    0.0000 </r>
       <r>   20.5778    0.0000 </r>
       <r>   23.3366    0.0000 </r>
       <r>   26.8462    0.0000 </r>
       <r>   30.3850    0.0000 </r>
      </set>
      <set comment="kpoint 20">
       <r>    2.6348    1.0000 </r>
       <r>    4.6375    1.0000 </r>
       <r>   12.1766    0.0000 </r>
       <r>   15.8425    0.0000 </r>
       <r>   20.3566    0.0000 </r>
       <r>   23.2975    0.0000 </r>
       <r>   28.0405    0.0000 </r>
       <r>   29.4816    0.0000 </r>
      </set>
      <set comment="kpoint 21">
       <r>   -0.6692    1.0000 </r>
       <r>   10.8142    0.0000 </r>
       <r>   11.1654    0.0000 </r>
       <r>   16.4393    0.0000 </r>
       <r>   22.0769    0.0000 </r>
       <r>   22.9578    0.0000 </r>
       <r>   27.3643    0.0000 </r>
       <r>   28.3017    0.0000 </r>
      </set>
      <set comment="kpoint 22">
       <r>    0.6637    1.0000 </r>
       <r>    8.4721    1.0000 </r>
       <r>   10.3784    0.0000 </r>
       <r>   15.8732    0.0000 </r>
       <r>   21.9292    0.0000 </r>
       <r>   23.6069    0.0000 </r>
       <r>   27.4983    0.0000 </r>
       <r>   29.4519    0.0000 </r>
      </set>
      <set comment="kpoint 23">
       <r>    2.2486    1.0000 </r>
       <r>    6.1801    1.0000 </r>
       <r>    9.9944    0.0011 </r>
       <r>   15.5275    0.0000 </r>
       <r>   21.6658    0.0000 </r>
       <r>   24.5167    0.0000 </r>
       <r>   27.3359    0.0000 </r>
       <r>   29.3931    0.0000 </r>
      </set>
      <set comment="kpoint 24">
       <r>    3.9068    1.0000 </r>
       <r>    4.2839    1.0000 </r>
       <r>    9.8676    0.7024 </r>
       <r>   15.4113    0.0000 </r>
       <r>   21.5680    0.0000 </r>
       <r>   24.9782    0.0000 </r>
       <r>   27.3123    0.0000 </r>
       <r>   28.9560    0.0000 </r>
      </set>
      <set comment="kpoint 25">
       <r>    2.1184    1.0000 </r>
       <r>    7.8230    1.0000 </r>
       <r>    8.1303    1.0000 </r>
       <r>   15.4211    0.0000 </r>
       <r>   22.8009    0.0000 </r>
       <r>   23.6961    0.0000 </r>
       <r>   27.9054    0.0000 </r>
       <r>   29.7527    0.0000 </r>
      </set>
      <set comment="kpoint 26">
       <r>    3.8142    1.0000 </r>
       <r>    5.7943    1.0000 </r>
       <r>    7.7353    1.0000 </r>
       <r>   15.1912    0.0000 </r>
       <r>   22.9231    0.0000 </r>
       <r>   24.7063    0.0000 </r>
       <r>   26.5649    0.0000 </r>
       <r>   30.5753    0.0000 </r>
      </set>
      <set comment="kpoint 27">
       <r>    5.3264    1.0000 </r>
       <r>    5.8269    1.0000 </r>
       <r>    5.8269    1.0000 </r>
       <r>   15.0777    0.0000 </r>
       <r>   23.7380    0.0000 </r>
       <r>   25.1744    0.0000 </r>
       <r>   25.1744    0.0000 </r>
       <r>   32.5738    0.0000 </r>
      </set>
      <set comment="kpoint 28">
       <r>   -3.4981    1.0000 </r>
       <r>   16.7348    0.0000 </r>
       <r>   17.7253    0.0000 </r>
       <r>   17.7253    0.0000 </r>
       <r>   23.3951    0.0000 </r>
       <r>   23.3951    0.0000 </r>
       <r>   25.5317    0.0000 </r>
       <r>   25.5317    0.0000 </r>
      </set>
      <set comment="kpoint 29">
       <r>   -2.8210    1.0000 </r>
       <r>   14.4503    0.0000 </r>
       <r>   16.0084    0.0000 </r>
       <r>   16.6642    0.0000 </r>
       <r>   23.0963    0.0000 </r>
       <r>   23.7583    0.0000 </r>
       <r>   25.8644    0.0000 </r>
       <r>   26.3387    0.0000 </r>
      </set>
      <set comment="kpoint 30">
       <r>   -1.8768    1.0000 </r>
       <r>   11.7295    0.0000 </r>
       <r>   15.0063    0.0000 </r>
       <r>   15.7458    0.0000 </r>
       <r>   22.6515    0.0000 </r>
       <r>   23.1981    0.0000 </r>
       <r>   27.0824    0.0000 </r>
       <r>   27.0871    0.0000 </r>
      </set>
      <set comment="kpoint 31">
       <r>   -0.6694    1.0000 </r>
       <r>    9.1169    1.0000 </r>
       <r>   14.2824    0.0000 </r>
       <r>   15.0314    0.0000 </r>
       <r>   22.1963    0.0000 </r>
       <r>   22.6321    0.0000 </r>
       <r>   27.9965    0.0000 </r>
       <r>   28.4122    0.0000 </r>
      </set>
      <set comment="kpoint 32">
       <r>    0.7955    1.0000 </r>
       <r>    6.6973    1.0000 </r>
       <r>   13.8024    0.0000 </r>
       <r>   14.5464    0.0000 </r>
       <r>   21.8462    0.0000 </r>
       <r>   22.2233    0.0000 </r>
       <r>   29.0873    0.0000 </r>
       <r>   29.7305    0.0000 </r>
      </set>
      <set comment="kpoint 33">
       <r>    2.5031    1.0000 </r>
       <r>    4.5086    1.0000 </r>
       <r>   13.5624    0.0000 </r>
       <r>   14.3011    0.0000 </r>
       <r>   21.6586    0.0000 </r>
       <r>   22.0124    0.0000 </r>
       <r>   30.1237    0.0000 </r>
       <r>   30.7704    0.0000 </r>
      </set>
      <set comment="kpoint 34">
       <r>   -4.0414    1.0000 </r>
       <r>   19.2521    0.0000 </r>
       <r>   19.2521    0.0000 </r>
       <r>   20.2713    0.0000 </r>
       <r>   22.7421    0.0000 </r>
       <r>   23.6697    0.0000 </r>
       <r>   23.8156    0.0000 </r>
       <r>   23.8156    0.0000 </r>
      </set>
      <set comment="kpoint 35">
       <r>   -2.0114    1.0000 </r>
       <r>   13.1796    0.0000 </r>
       <r>   13.6931    0.0000 </r>
       <r>   15.3455    0.0000 </r>
       <r>   23.6906    0.0000 </r>
       <r>   24.5633    0.0000 </r>
       <r>   26.1816    0.0000 </r>
       <r>   27.1539    0.0000 </r>
      </set>
      <set comment="kpoint 36">
       <r>   -0.9369    1.0000 </r>
       <r>   10.7328    0.0000 </r>
       <r>   12.6063    0.0000 </r>
       <r>   14.5012    0.0000 </r>
       <r>   23.6183    0.0000 </r>
       <r>   24.6497    0.0000 </r>
       <r>   26.9911    0.0000 </r>
       <r>   28.3996    0.0000 </r>
      </set>
      <set comment="kpoint 37">
       <r>    0.3978    1.0000 </r>
       <r>    8.2292    1.0000 </r>
       <r>   11.9772    0.0000 </r>
       <r>   13.8966    0.0000 </r>
       <r>   23.3009    0.0000 </r>
       <r>   24.5706    0.0000 </r>
       <r>   27.8873    0.0000 </r>
       <r>   29.8405    0.0000 </r>
      </set>
      <set comment="kpoint 38">
       <r>    1.9851    1.0000 </r>
       <r>    5.9261    1.0000 </r>
       <r>   11.6027    0.0000 </r>
       <r>   13.5311    0.0000 </r>
       <r>   23.0477    0.0000 </r>
       <r>   24.4544    0.0000 </r>
       <r>   29.0060    0.0000 </r>
       <r>   30.7146    0.0000 </r>
      </set>
      <set comment="kpoint 39">
       <r>    3.6427    1.0000 </r>
       <r>    4.0284    1.0000 </r>
       <r>   11.4784    0.0000 </r>
       <r>   13.4088    0.0000 </r>
       <r>   22.9562    0.0000 </r>
       <r>   24.4050    0.0000 </r>
       <r>   29.9611    0.0000 </r>
       <r>   30.4559    0.0000 </r>
      </set>
      <set comment="kpoint 40">
       <r>   -3.6337    1.0000 </r>
       <r>   17.0891    0.0000 </r>
       <r>   17.9518    0.0000 </r>
       <r>   19.7318    0.0000 </r>
       <r>   22.1164    0.0000 </r>
       <r>   22.4006    0.0000 </r>
       <r>   24.2778    0.0000 </r>
       <r>   25.4468    0.0000 </r>
      </set>
      <set comment="kpoint 41">
       <r>    0.2650    1.0000 </r>
       <r>    9.8257    0.9570 </r>
       <r>   10.1839    0.0000 </r>
       <r>   13.7664    0.0000 </r>
       <r>   24.2536    0.0000 </r>
       <r>   25.2547    0.0000 </r>
       <r>   28.1277    0.0000 </r>
       <r>   28.9784    0.0000 </r>
      </set>
      <set comment="kpoint 42">
       <r>    1.7232    1.0000 </r>
       <r>    7.5864    1.0000 </r>
       <r>    9.5157    1.0000 </r>
       <r>   13.2795    0.0000 </r>
       <r>   24.3432    0.0000 </r>
       <r>   25.8467    0.0000 </r>
       <r>   28.6310    0.0000 </r>
       <r>   30.0899    0.0000 </r>
      </set>
      <set comment="kpoint 43">
       <r>    3.4236    1.0000 </r>
       <r>    5.4146    1.0000 </r>
       <r>    9.2564    1.0000 </r>
       <r>   13.0353    0.0000 </r>
       <r>   24.2521    0.0000 </r>
       <r>   26.3709    0.0000 </r>
       <r>   28.9520    0.0000 </r>
       <r>   30.2982    0.0000 </r>
      </set>
      <set comment="kpoint 44">
       <r>   -2.9562    1.0000 </r>
       <r>   14.3512    0.0000 </r>
       <r>   16.8066    0.0000 </r>
       <r>   19.1064    0.0000 </r>
       <r>   21.1116    0.0000 </r>
       <r>   21.8583    0.0000 </r>
       <r>   24.3295    0.0000 </r>
       <r>   27.6839    0.0000 </r>
      </set>
      <set comment="kpoint 45">
       <r>   -3.0915    1.0000 </r>
       <r>   15.6923    0.0000 </r>
       <r>   16.0091    0.0000 </r>
       <r>   19.1378    0.0000 </r>
       <r>   21.3545    0.0000 </r>
       <r>   21.8644    0.0000 </r>
       <r>   25.1646    0.0000 </r>
       <r>   26.0792    0.0000 </r>
      </set>
      <set comment="kpoint 46">
       <r>    3.2988    1.0000 </r>
       <r>    7.0612    1.0000 </r>
       <r>    7.3752    1.0000 </r>
       <r>   12.9136    0.0000 </r>
       <r>   25.2040    0.0000 </r>
       <r>   26.3725    0.0000 </r>
       <r>   28.8978    0.0000 </r>
       <r>   30.6470    0.0000 </r>
      </set>
      <set comment="kpoint 47">
       <r>    4.9433    1.0000 </r>
       <r>    5.3184    1.0000 </r>
       <r>    7.1081    1.0000 </r>
       <r>   12.7917    0.0000 </r>
       <r>   25.4197    0.0000 </r>
       <r>   27.0772    0.0000 </r>
       <r>   28.0637    0.0000 </r>
       <r>   31.4341    0.0000 </r>
      </set>
      <set comment="kpoint 48">
       <r>   -2.0114    1.0000 </r>
       <r>   11.6006    0.0000 </r>
       <r>   15.8752    0.0000 </r>
       <r>   18.3765    0.0000 </r>
       <r>   20.2099    0.0000 </r>
       <r>   21.5634    0.0000 </r>
       <r>   24.5764    0.0000 </r>
       <r>   29.4288    0.0000 </r>
      </set>
      <set comment="kpoint 49">
       <r>   -2.2808    1.0000 </r>
       <r>   13.1410    0.0000 </r>
       <r>   14.8092    0.0000 </r>
       <r>   18.6155    0.0000 </r>
       <r>   20.8101    0.0000 </r>
       <r>   21.4459    0.0000 </r>
       <r>   25.1747    0.0000 </r>
       <r>   27.8484    0.0000 </r>
      </set>
      <set comment="kpoint 50">
       <r>   -0.8033    1.0000 </r>
       <r>    8.9870    1.0000 </r>
       <r>   15.1713    0.0000 </r>
       <r>   17.7472    0.0000 </r>
       <r>   19.4999    0.0000 </r>
       <r>   21.2430    0.0000 </r>
       <r>   25.2846    0.0000 </r>
       <r>   30.3443    0.0000 </r>
      </set>
      <set comment="kpoint 51">
       <r>   -1.2050    1.0000 </r>
       <r>   10.4794    0.0000 </r>
       <r>   13.9620    0.0000 </r>
       <r>   17.9935    0.0000 </r>
       <r>   20.1220    0.0000 </r>
       <r>   21.7467    0.0000 </r>
       <r>   24.9417    0.0000 </r>
       <r>   29.7234    0.0000 </r>
      </set>
      <set comment="kpoint 52">
       <r>   -1.3390    1.0000 </r>
       <r>   12.0157    0.0000 </r>
       <r>   12.3440    0.0000 </r>
       <r>   18.3784    0.0000 </r>
       <r>   20.7113    0.0000 </r>
       <r>   20.8717    0.0000 </r>
       <r>   26.8226    0.0000 </r>
       <r>   27.7235    0.0000 </r>
      </set>
      <set comment="kpoint 53">
       <r>    0.6624    1.0000 </r>
       <r>    6.5665    1.0000 </r>
       <r>   14.7003    0.0000 </r>
       <r>   17.3035    0.0000 </r>
       <r>   19.0169    0.0000 </r>
       <r>   20.9561    0.0000 </r>
       <r>   26.3774    0.0000 </r>
       <r>   30.3973    0.0000 </r>
      </set>
      <set comment="kpoint 54">
       <r>    0.1313    1.0000 </r>
       <r>    7.9688    1.0000 </r>
       <r>   13.3556    0.0000 </r>
       <r>   17.4786    0.0000 </r>
       <r>   19.5561    0.0000 </r>
       <r>   22.1351    0.0000 </r>
       <r>   25.1141    0.0000 </r>
       <r>   29.9769    0.0000 </r>
      </set>
      <set comment="kpoint 55">
       <r>   -0.1349    1.0000 </r>
       <r>    9.5947    1.0000 </r>
       <r>   11.4512    0.0000 </r>
       <r>   17.9647    0.0000 </r>
       <r>   20.1783    0.0000 </r>
       <r>   21.4317    0.0000 </r>
       <r>   26.7114    0.0000 </r>
       <r>   28.9090    0.0000 </r>
      </set>
      <set comment="kpoint 56">
       <r>    2.3708    1.0000 </r>
       <r>    4.3774    1.0000 </r>
       <r>   14.4644    0.0000 </r>
       <r>   17.0764    0.0000 </r>
       <r>   18.7730    0.0000 </r>
       <r>   20.7939    0.0000 </r>
       <r>   27.7347    0.0000 </r>
       <r>   29.2373    0.0000 </r>
      </set>
      <set comment="kpoint 57">
       <r>    1.7202    1.0000 </r>
       <r>    5.6646    1.0000 </r>
       <r>   12.9900    0.0000 </r>
       <r>   17.1531    0.0000 </r>
       <r>   19.2015    0.0000 </r>
       <r>   22.3016    0.0000 </r>
       <r>   25.9081    0.0000 </r>
       <r>   28.7808    0.0000 </r>
      </set>
      <set comment="kpoint 58">
       <r>    1.3259    1.0000 </r>
       <r>    7.2000    1.0000 </r>
       <r>   10.9466    0.0000 </r>
       <r>   17.6012    0.0000 </r>
       <r>   19.7249    0.0000 </r>
       <r>   22.4258    0.0000 </r>
       <r>   26.1984    0.0000 </r>
       <r>   28.6475    0.0000 </r>
      </set>
      <set comment="kpoint 59">
       <r>    1.1941    1.0000 </r>
       <r>    8.8276    1.0000 </r>
       <r>    9.1230    1.0000 </r>
       <r>   17.7112    0.0000 </r>
       <r>   20.8547    0.0000 </r>
       <r>   21.0922    0.0000 </r>
       <r>   27.0990    0.0000 </r>
       <r>   29.0099    0.0000 </r>
      </set>
      <set comment="kpoint 60">
       <r>    3.3787    1.0000 </r>
       <r>    3.7664    1.0000 </r>
       <r>   12.8684    0.0000 </r>
       <r>   17.0427    0.0000 </r>
       <r>   19.0825    0.0000 </r>
       <r>   22.3289    0.0000 </r>
       <r>   26.8995    0.0000 </r>
       <r>   27.5988    0.0000 </r>
      </set>
      <set comment="kpoint 61">
       <r>    3.0291    1.0000 </r>
       <r>    5.0230    1.0000 </r>
       <r>   10.6954    0.0000 </r>
       <r>   17.4037    0.0000 </r>
       <r>   19.4913    0.0000 </r>
       <r>   23.3910    0.0000 </r>
       <r>   25.6462    0.0000 </r>
       <r>   27.9364    0.0000 </r>
      </set>
      <set comment="kpoint 62">
       <r>    2.7741    1.0000 </r>
       <r>    6.6828    1.0000 </r>
       <r>    8.6065    1.0000 </r>
       <r>   17.4711    0.0000 </r>
       <r>   20.6350    0.0000 </r>
       <r>   22.2184    0.0000 </r>
       <r>   25.5313    0.0000 </r>
       <r>   29.7361    0.0000 </r>
      </set>
      <set comment="kpoint 63">
       <r>    4.4315    1.0000 </r>
       <r>    4.7935    1.0000 </r>
       <r>    8.4757    1.0000 </r>
       <r>   17.3817    0.0000 </r>
       <r>   20.5297    0.0000 </r>
       <r>   23.3280    0.0000 </r>
       <r>   24.2760    0.0000 </r>
       <r>   29.8232    0.0000 </r>
      </set>
      <set comment="kpoint 64">
       <r>    4.4581    1.0000 </r>
       <r>    6.3013    1.0000 </r>
       <r>    6.5853    1.0000 </r>
       <r>   17.3369    0.0000 </r>
       <r>   21.7379    0.0000 </r>
       <r>   22.3046    0.0000 </r>
       <r>   23.8306    0.0000 </r>
       <r>   31.7091    0.0000 </r>
      </set>
      <set comment="kpoint 65">
       <r>   -1.0709    1.0000 </r>
       <r>   12.0642    0.0000 </r>
       <r>   12.7329    0.0000 </r>
       <r>   12.7329    0.0000 </r>
       <r>   25.3500    0.0000 </r>
       <r>   25.3500    0.0000 </r>
       <r>   27.3876    0.0000 </r>
       <r>   27.3876    0.0000 </r>
      </set>
      <set comment="kpoint 66">
       <r>    0.1318    1.0000 </r>
       <r>    9.8543    0.8179 </r>
       <r>   11.5955    0.0000 </r>
       <r>   11.9962    0.0000 </r>
       <r>   25.5913    0.0000 </r>
       <r>   25.9230    0.0000 </r>
       <r>   28.4315    0.0000 </r>
       <r>   28.5777    0.0000 </r>
      </set>
      <set comment="kpoint 67">
       <r>    1.5913    1.0000 </r>
       <r>    7.4649    1.0000 </r>
       <r>   11.0776    0.0000 </r>
       <r>   11.4986    0.0000 </r>
       <r>   25.6031    0.0000 </r>
       <r>   25.8299    0.0000 </r>
       <r>   29.6571    0.0000 </r>
       <r>   29.9285    0.0000 </r>
      </set>
      <set comment="kpoint 68">
       <r>    3.2930    1.0000 </r>
       <r>    5.2870    1.0000 </r>
       <r>   10.8249    0.0000 </r>
       <r>   11.2484    0.0000 </r>
       <r>   25.5644    0.0000 </r>
       <r>   25.7152    0.0000 </r>
       <r>   30.5243    0.0000 </r>
       <r>   31.0621    0.0000 </r>
      </set>
      <set comment="kpoint 69">
       <r>   -3.2269    1.0000 </r>
       <r>   16.6486    0.0000 </r>
       <r>   16.6486    0.0000 </r>
       <r>   18.2777    0.0000 </r>
       <r>   20.5338    0.0000 </r>
       <r>   23.5335    0.0000 </r>
       <r>   25.0620    0.0000 </r>
       <r>   25.0620    0.0000 </r>
      </set>
      <set comment="kpoint 70">
       <r>    1.4596    1.0000 </r>
       <r>    9.0659    1.0000 </r>
       <r>    9.4353    1.0000 </r>
       <r>   11.1935    0.0000 </r>
       <r>   26.5043    0.0000 </r>
       <r>   27.2191    0.0000 </r>
       <r>   29.1430    0.0000 </r>
       <r>   29.6328    0.0000 </r>
      </set>
      <set comment="kpoint 71">
       <r>    3.0385    1.0000 </r>
       <r>    6.9485    1.0000 </r>
       <r>    8.8865    1.0000 </r>
       <r>   10.8126    0.0000 </r>
       <r>   26.8163    0.0000 </r>
       <r>   27.7601    0.0000 </r>
       <r>   30.0449    0.0000 </r>
       <r>   30.6979    0.0000 </r>
      </set>
      <set comment="kpoint 72">
       <r>    4.6910    1.0000 </r>
       <r>    5.0634    1.0000 </r>
       <r>    8.7539    1.0000 </r>
       <r>   10.6866    0.0000 </r>
       <r>   26.8599    0.0000 </r>
       <r>   27.9298    0.0000 </r>
       <r>   30.4368    0.0000 </r>
       <r>   31.2092    0.0000 </r>
      </set>
      <set comment="kpoint 73">
       <r>   -2.5506    1.0000 </r>
       <r>   14.5511    0.0000 </r>
       <r>   15.4887    0.0000 </r>
       <r>   17.6831    0.0000 </r>
       <r>   19.6544    0.0000 </r>
       <r>   23.0784    0.0000 </r>
       <r>   25.2520    0.0000 </r>
       <r>   26.8098    0.0000 </r>
      </set>
      <set comment="kpoint 74">
       <r>    4.7210    1.0000 </r>
       <r>    6.5601    1.0000 </r>
       <r>    6.8685    1.0000 </r>
       <r>   10.5561    0.0000 </r>
       <r>   27.6108    0.0000 </r>
       <r>   28.8796    0.0000 </r>
       <r>   29.9640    0.0000 </r>
       <r>   31.5233    0.0000 </r>
      </set>
      <set comment="kpoint 75">
       <r>   -1.6076    1.0000 </r>
       <r>   11.9239    0.0000 </r>
       <r>   14.5426    0.0000 </r>
       <r>   17.0457    0.0000 </r>
       <r>   19.8518    0.0000 </r>
       <r>   22.2537    0.0000 </r>
       <r>   24.9298    0.0000 </r>
       <r>   29.2797    0.0000 </r>
      </set>
      <set comment="kpoint 76">
       <r>   -1.7420    1.0000 </r>
       <r>   13.3653    0.0000 </r>
       <r>   13.5945    0.0000 </r>
       <r>   17.3030    0.0000 </r>
       <r>   18.7846    0.0000 </r>
       <r>   22.9039    0.0000 </r>
       <r>   26.4961    0.0000 </r>
       <r>   27.1898    0.0000 </r>
      </set>
      <set comment="kpoint 77">
       <r>   -0.4019    1.0000 </r>
       <r>    9.3485    1.0000 </r>
       <r>   13.8267    0.0000 </r>
       <r>   16.4030    0.0000 </r>
       <r>   20.5238    0.0000 </r>
       <r>   21.5737    0.0000 </r>
       <r>   24.6136    0.0000 </r>
       <r>   29.5312    0.0000 </r>
      </set>
      <set comment="kpoint 78">
       <r>   -0.6690    1.0000 </r>
       <r>   10.9279    0.0000 </r>
       <r>   12.6409    0.0000 </r>
       <r>   16.9429    0.0000 </r>
       <r>   18.9897    0.0000 </r>
       <r>   22.2843    0.0000 </r>
       <r>   26.2484    0.0000 </r>
       <r>   28.5141    0.0000 </r>
      </set>
      <set comment="kpoint 79">
       <r>    1.0608    1.0000 </r>
       <r>    6.9446    1.0000 </r>
       <r>   13.3471    0.0000 </r>
       <r>   15.9388    0.0000 </r>
       <r>   21.1054    0.0000 </r>
       <r>   21.2363    0.0000 </r>
       <r>   24.6206    0.0000 </r>
       <r>   28.2848    0.0000 </r>
      </set>
      <set comment="kpoint 80">
       <r>    0.6636    1.0000 </r>
       <r>    8.4596    1.0000 </r>
       <r>   12.0241    0.0000 </r>
       <r>   16.4493    0.0000 </r>
       <r>   19.8063    0.0000 </r>
       <r>   21.8479    0.0000 </r>
       <r>   25.5110    0.0000 </r>
       <r>   28.1184    0.0000 </r>
      </set>
      <set comment="kpoint 81">
       <r>    0.5310    1.0000 </r>
       <r>   10.0532    0.0000 </r>
       <r>   10.3241    0.0000 </r>
       <r>   17.3646    0.0000 </r>
       <r>   18.6984    0.0000 </r>
       <r>   21.8246    0.0000 </r>
       <r>   26.5084    0.0000 </r>
       <r>   28.4696    0.0000 </r>
      </set>
      <set comment="kpoint 82">
       <r>    2.7660    1.0000 </r>
       <r>    4.7637    1.0000 </r>
       <r>   13.1067    0.0000 </r>
       <r>   15.7004    0.0000 </r>
       <r>   20.8670    0.0000 </r>
       <r>   21.6598    0.0000 </r>
       <r>   25.1070    0.0000 </r>
       <r>   26.9488    0.0000 </r>
      </set>
      <set comment="kpoint 83">
       <r>    2.2480    1.0000 </r>
       <r>    6.1732    1.0000 </r>
       <r>   11.6542    0.0000 </r>
       <r>   16.1144    0.0000 </r>
       <r>   20.5236    0.0000 </r>
       <r>   21.9395    0.0000 </r>
       <r>   24.5561    0.0000 </r>
       <r>   27.3312    0.0000 </r>
      </set>
      <set comment="kpoint 84">
       <r>    1.9864    1.0000 </r>
       <r>    7.8181    1.0000 </r>
       <r>    9.6965    1.0000 </r>
       <r>   17.2834    0.0000 </r>
       <r>   19.3779    0.0000 </r>
       <r>   21.5339    0.0000 </r>
       <r>   24.8193    0.0000 </r>
       <r>   29.0816    0.0000 </r>
      </set>
      <set comment="kpoint 85">
       <r>    3.9086    1.0000 </r>
       <r>    4.2765    1.0000 </r>
       <r>   11.5311    0.0000 </r>
       <r>   15.9992    0.0000 </r>
       <r>   20.6856    0.0000 </r>
       <r>   22.4644    0.0000 </r>
       <r>   23.8072    0.0000 </r>
       <r>   27.0415    0.0000 </r>
      </set>
      <set comment="kpoint 86">
       <r>    3.6831    1.0000 </r>
       <r>    5.6613    1.0000 </r>
       <r>    9.4403    1.0000 </r>
       <r>   17.1214    0.0000 </r>
       <r>   20.1294    0.0000 </r>
       <r>   21.8556    0.0000 </r>
       <r>   23.1359    0.0000 </r>
       <r>   29.1078    0.0000 </r>
      </set>
      <set comment="kpoint 87">
       <r>    3.5579    1.0000 </r>
       <r>    7.3082    1.0000 </r>
       <r>    7.5847    1.0000 </r>
       <r>   17.9441    0.0000 </r>
       <r>   19.6031    0.0000 </r>
       <r>   21.2819    0.0000 </r>
       <r>   23.0842    0.0000 </r>
       <r>   30.9887    0.0000 </r>
      </set>
      <set comment="kpoint 88">
       <r>    5.2072    1.0000 </r>
       <r>    5.5538    1.0000 </r>
       <r>    7.3332    1.0000 </r>
       <r>   18.0732    0.0000 </r>
       <r>   20.1911    0.0000 </r>
       <r>   21.3310    0.0000 </r>
       <r>   21.9103    0.0000 </r>
       <r>   31.5887    0.0000 </r>
      </set>
      <set comment="kpoint 89">
       <r>    2.9087    1.0000 </r>
       <r>    8.4279    1.0000 </r>
       <r>    8.9316    1.0000 </r>
       <r>    8.9316    1.0000 </r>
       <r>   28.4421    0.0000 </r>
       <r>   28.4421    0.0000 </r>
       <r>   30.2447    0.0000 </r>
       <r>   30.2447    0.0000 </r>
      </set>
      <set comment="kpoint 90">
       <r>    4.5969    1.0000 </r>
       <r>    6.5661    1.0000 </r>
       <r>    8.3744    1.0000 </r>
       <r>    8.6793    1.0000 </r>
       <r>   28.9791    0.0000 </r>
       <r>   29.3200    0.0000 </r>
       <r>   30.9448    0.0000 </r>
       <r>   31.2110    0.0000 </r>
      </set>
      <set comment="kpoint 91">
       <r>   -1.8764    1.0000 </r>
       <r>   14.3164    0.0000 </r>
       <r>   14.3164    0.0000 </r>
       <r>   16.2308    0.0000 </r>
       <r>   17.8333    0.0000 </r>
       <r>   24.8529    0.0000 </r>
       <r>   26.3881    0.0000 </r>
       <r>   26.3881    0.0000 </r>
      </set>
      <set comment="kpoint 92">
       <r>    6.0799    1.0000 </r>
       <r>    6.6142    1.0000 </r>
       <r>    6.6142    1.0000 </r>
       <r>    8.4142    1.0000 </r>
       <r>   29.7611    0.0000 </r>
       <r>   30.7418    0.0000 </r>
       <r>   30.7418    0.0000 </r>
       <r>   31.8355    0.0000 </r>
      </set>
      <set comment="kpoint 93">
       <r>   -0.9365    1.0000 </r>
       <r>   12.3798    0.0000 </r>
       <r>   13.3606    0.0000 </r>
       <r>   15.7155    0.0000 </r>
       <r>   17.3111    0.0000 </r>
       <r>   24.5809    0.0000 </r>
       <r>   26.4125    0.0000 </r>
       <r>   28.2925    0.0000 </r>
      </set>
      <set comment="kpoint 94">
       <r>    0.2651    1.0000 </r>
       <r>    9.9301    0.1084 </r>
       <r>   12.6383    0.0000 </r>
       <r>   15.1673    0.0000 </r>
       <r>   17.9676    0.0000 </r>
       <r>   23.9635    0.0000 </r>
       <r>   25.4125    0.0000 </r>
       <r>   27.8815    0.0000 </r>
      </set>
      <set comment="kpoint 95">
       <r>    0.1321    1.0000 </r>
       <r>   11.4313    0.0000 </r>
       <r>   11.6203    0.0000 </r>
       <r>   15.5697    0.0000 </r>
       <r>   16.6729    0.0000 </r>
       <r>   24.4834    0.0000 </r>
       <r>   26.1671    0.0000 </r>
       <r>   28.1399    0.0000 </r>
      </set>
      <set comment="kpoint 96">
       <r>    1.7225    1.0000 </r>
       <r>    7.5672    1.0000 </r>
       <r>   12.1543    0.0000 </r>
       <r>   14.7069    0.0000 </r>
       <r>   19.0924    0.0000 </r>
       <r>   23.5137    0.0000 </r>
       <r>   24.0011    0.0000 </r>
       <r>   27.3700    0.0000 </r>
      </set>
      <set comment="kpoint 97">
       <r>    1.4589    1.0000 </r>
       <r>    9.1716    1.0000 </r>
       <r>   10.9166    0.0000 </r>
       <r>   15.3487    0.0000 </r>
       <r>   17.2784    0.0000 </r>
       <r>   23.6085    0.0000 </r>
       <r>   24.7250    0.0000 </r>
       <r>   28.6712    0.0000 </r>
      </set>
      <set comment="kpoint 98">
       <r>    3.4216    1.0000 </r>
       <r>    5.4039    1.0000 </r>
       <r>   11.9126    0.0000 </r>
       <r>   14.4661    0.0000 </r>
       <r>   20.3255    0.0000 </r>
       <r>   22.5784    0.0000 </r>
       <r>   23.2857    0.0000 </r>
       <r>   27.0807    0.0000 </r>
      </set>
      <set comment="kpoint 99">
       <r>    3.0359    1.0000 </r>
       <r>    6.9270    1.0000 </r>
       <r>   10.5420    0.0000 </r>
       <r>   15.0388    0.0000 </r>
       <r>   18.5253    0.0000 </r>
       <r>   22.0600    0.0000 </r>
       <r>   24.0875    0.0000 </r>
       <r>   28.6670    0.0000 </r>
      </set>
      <set comment="kpoint 100">
       <r>    2.9060    1.0000 </r>
       <r>    8.5501    1.0000 </r>
       <r>    8.7980    1.0000 </r>
       <r>   16.1329    0.0000 </r>
       <r>   17.1485    0.0000 </r>
       <r>   21.9065    0.0000 </r>
       <r>   24.2084    0.0000 </r>
       <r>   30.4513    0.0000 </r>
      </set>
      <set comment="kpoint 101">
       <r>    4.6969    1.0000 </r>
       <r>    5.0377    1.0000 </r>
       <r>   10.4172    0.0000 </r>
       <r>   14.9252    0.0000 </r>
       <r>   19.5957    0.0000 </r>
       <r>   20.8340    0.0000 </r>
       <r>   23.9300    0.0000 </r>
       <r>   28.6338    0.0000 </r>
      </set>
      <set comment="kpoint 102">
       <r>    4.5912    1.0000 </r>
       <r>    6.5429    1.0000 </r>
       <r>    8.4314    1.0000 </r>
       <r>   16.2228    0.0000 </r>
       <r>   18.2236    0.0000 </r>
       <r>   20.1376    0.0000 </r>
       <r>   23.9582    0.0000 </r>
       <r>   31.0612    0.0000 </r>
      </set>
      <set comment="kpoint 103">
       <r>    6.1159    1.0000 </r>
       <r>    6.5566    1.0000 </r>
       <r>    6.5566    1.0000 </r>
       <r>   17.0703    0.0000 </r>
       <r>   18.5867    0.0000 </r>
       <r>   18.5867    0.0000 </r>
       <r>   23.8778    0.0000 </r>
       <r>   33.1821    0.0000 </r>
      </set>
      <set comment="kpoint 104">
       <r>   -0.0010    1.0000 </r>
       <r>   12.3989    0.0000 </r>
       <r>   12.3989    0.0000 </r>
       <r>   14.4247    0.0000 </r>
       <r>   15.6493    0.0000 </r>
       <r>   25.9592    0.0000 </r>
       <r>   26.6799    0.0000 </r>
       <r>   28.0305    0.0000 </r>
      </set>
      <set comment="kpoint 105">
       <r>    1.1946    1.0000 </r>
       <r>   10.6552    0.0000 </r>
       <r>   11.6723    0.0000 </r>
       <r>   14.0572    0.0000 </r>
       <r>   15.4719    0.0000 </r>
       <r>   23.8565    0.0000 </r>
       <r>   26.5706    0.0000 </r>
       <r>   28.7066    0.0000 </r>
      </set>
      <set comment="kpoint 106">
       <r>    2.6440    1.0000 </r>
       <r>    8.4151    1.0000 </r>
       <r>   11.1860    0.0000 </r>
       <r>   13.6758    0.0000 </r>
       <r>   16.4895    0.0000 </r>
       <r>   21.7767    0.0000 </r>
       <r>   26.1644    0.0000 </r>
       <r>   28.9043    0.0000 </r>
      </set>
      <set comment="kpoint 107">
       <r>    2.5130    1.0000 </r>
       <r>    9.9522    0.0314 </r>
       <r>   10.1234    0.0000 </r>
       <r>   14.1763    0.0000 </r>
       <r>   15.0728    0.0000 </r>
       <r>   21.6651    0.0000 </r>
       <r>   26.8465    0.0000 </r>
       <r>   30.1268    0.0000 </r>
      </set>
      <set comment="kpoint 108">
       <r>    4.3325    1.0000 </r>
       <r>    6.2900    1.0000 </r>
       <r>   10.9425    0.0000 </r>
       <r>   13.4424    0.0000 </r>
       <r>   17.8960    0.0000 </r>
       <r>   19.9031    0.0000 </r>
       <r>   25.9438    0.0000 </r>
       <r>   28.9127    0.0000 </r>
      </set>
      <set comment="kpoint 109">
       <r>    4.0779    1.0000 </r>
       <r>    7.9047    1.0000 </r>
       <r>    9.6717    1.0000 </r>
       <r>   14.1340    0.0000 </r>
       <r>   16.0179    0.0000 </r>
       <r>   19.6016    0.0000 </r>
       <r>   26.6444    0.0000 </r>
       <r>   30.6896    0.0000 </r>
      </set>
      <set comment="kpoint 110">
       <r>    5.7334    1.0000 </r>
       <r>    6.0422    1.0000 </r>
       <r>    9.5452    1.0000 </r>
       <r>   14.0399    0.0000 </r>
       <r>   17.2686    0.0000 </r>
       <r>   18.0735    0.0000 </r>
       <r>   26.5542    0.0000 </r>
       <r>   30.7738    0.0000 </r>
      </set>
      <set comment="kpoint 111">
       <r>    5.7413    1.0000 </r>
       <r>    7.5456    1.0000 </r>
       <r>    7.7777    1.0000 </r>
       <r>   15.1787    0.0000 </r>
       <r>   16.1047    0.0000 </r>
       <r>   17.6452    0.0000 </r>
       <r>   26.5966    0.0000 </r>
       <r>   32.6655    0.0000 </r>
      </set>
      <set comment="kpoint 112">
       <r>    2.3818    1.0000 </r>
       <r>   10.9427    0.0000 </r>
       <r>   10.9427    0.0000 </r>
       <r>   12.9881    0.0000 </r>
       <r>   14.0017    0.0000 </r>
       <r>   21.5607    0.0000 </r>
       <r>   28.9747    0.0000 </r>
       <r>   30.0137    0.0000 </r>
      </set>
      <set comment="kpoint 113">
       <r>    3.8189    1.0000 </r>
       <r>    9.4097    1.0000 </r>
       <r>   10.4552    0.0000 </r>
       <r>   12.8138    0.0000 </r>
       <r>   14.1506    0.0000 </r>
       <r>   19.3477    0.0000 </r>
       <r>   28.9872    0.0000 </r>
       <r>   30.7727    0.0000 </r>
      </set>
      <set comment="kpoint 114">
       <r>    5.4891    1.0000 </r>
       <r>    7.4014    1.0000 </r>
       <r>   10.2111    0.0000 </r>
       <r>   12.6445    0.0000 </r>
       <r>   15.4592    0.0000 </r>
       <r>   17.3635    0.0000 </r>
       <r>   28.7919    0.0000 </r>
       <r>   31.0427    0.0000 </r>
      </set>
      <set comment="kpoint 115">
       <r>    5.3640    1.0000 </r>
       <r>    8.9563    1.0000 </r>
       <r>    9.1203    1.0000 </r>
       <r>   13.1985    0.0000 </r>
       <r>   14.0009    0.0000 </r>
       <r>   17.2103    0.0000 </r>
       <r>   29.3979    0.0000 </r>
       <r>   32.3524    0.0000 </r>
      </set>
      <set comment="kpoint 116">
       <r>    6.9964    1.0000 </r>
       <r>    7.2669    1.0000 </r>
       <r>    8.9217    1.0000 </r>
       <r>   13.3398    0.0000 </r>
       <r>   15.0244    0.0000 </r>
       <r>   15.5814    0.0000 </r>
       <r>   29.3742    0.0000 </r>
       <r>   32.8553    0.0000 </r>
      </set>
      <set comment="kpoint 117">
       <r>    5.2364    1.0000 </r>
       <r>    9.9670    0.0114 </r>
       <r>    9.9670    0.0114 </r>
       <r>   11.9865    0.0000 </r>
       <r>   12.9012    0.0000 </r>
       <r>   17.0744    0.0000 </r>
       <r>   31.6212    0.0000 </r>
       <r>   32.2489    0.0000 </r>
      </set>
      <set comment="kpoint 118">
       <r>    6.8695    1.0000 </r>
       <r>    8.6603    1.0000 </r>
       <r>    9.7224    1.0000 </r>
       <r>   12.0240    0.0000 </r>
       <r>   13.3429    0.0000 </r>
       <r>   15.0643    0.0000 </r>
       <r>   31.7000    0.0000 </r>
       <r>   32.9779    0.0000 </r>
      </set>
      <set comment="kpoint 119">
       <r>    8.3536    1.0000 </r>
       <r>    8.6176    1.0000 </r>
       <r>    8.6176    1.0000 </r>
       <r>   12.4390    0.0000 </r>
       <r>   13.4648    0.0000 </r>
       <r>   13.4648    0.0000 </r>
       <r>   32.1236    0.0000 </r>
       <r>   34.3060    0.0000 </r>
      </set>
      <set comment="kpoint 120">
       <r>    8.3952    1.0000 </r>
       <r>    9.4775    1.0000 </r>
       <r>    9.4775    1.0000 </r>
       <r>   11.3734    0.0000 </r>
       <r>   12.3456    0.0000 </r>
       <r>   13.1556    0.0000 </r>
       <r>   34.0599    0.0000 </r>
       <r>   34.1987    0.0000 </r>
      </set>
     </set>
    </set>
   </array>
  </eigenvalues>
  <separator name="orbital magnetization" >
   <v name="MAGDIPOLOUT">      0.00000000      0.00000000      0.00000000</v>
  </separator>
  <dos>
   <i name="efermi">      9.88640872 </i>
   <total>
    <array>
     <dimension dim="1">gridpoints</dimension>
     <dimension dim="2">spin</dimension>
     <field>energy</field>
     <field>total</field>
     <field>integrated</field>
     <set>
      <set comment="spin 1">
       <r>    -6.2445     0.0000     0.0000 </r>
       <r>    -6.1029     0.0000     0.0000 </r>
       <r>    -5.9613     0.0000     0.0000 </r>
       <r>    -5.8197     0.0000     0.0000 </r>
       <r>    -5.6781     0.0000     0.0000 </r>
       <r>    -5.5365     0.0000     0.0000 </r>
       <r>    -5.3949     0.0000     0.0000 </r>
       <r>    -5.2533     0.0000     0.0000 </r>
       <r>    -5.1117     0.0000     0.0000 </r>
       <r>    -4.9701     0.0000     0.0000 </r>
       <r>    -4.8285     0.0000     0.0000 </r>
       <r>    -4.6869     0.0000     0.0000 </r>
       <r>    -4.5453     0.0000     0.0000 </r>
       <r>    -4.4036     0.0000     0.0000 </r>
       <r>    -4.2620     0.0043     0.0006 </r>
       <r>    -4.1204     0.0477     0.0074 </r>
       <r>    -3.9788     0.0284     0.0114 </r>
       <r>    -3.8372     0.0982     0.0253 </r>
       <r>    -3.6956     0.0546     0.0330 </r>
       <r>    -3.5540     0.0980     0.0469 </r>
       <r>    -3.4124     0.0484     0.0538 </r>
       <r>    -3.2708     0.1870     0.0802 </r>
       <r>    -3.1292     0.0449     0.0866 </r>
       <r>    -2.9876     0.1477     0.1075 </r>
       <r>    -2.8460     0.1059     0.1225 </r>
       <r>    -2.7044     0.1065     0.1376 </r>
       <r>    -2.5628     0.1808     0.1632 </r>
       <r>    -2.4212     0.1909     0.1902 </r>
       <r>    -2.2796     0.1033     0.2048 </r>
       <r>    -2.1380     0.1273     0.2229 </r>
       <r>    -1.9964     0.1540     0.2447 </r>
       <r>    -1.8548     0.1595     0.2673 </r>
       <r>    -1.7132     0.2727     0.3059 </r>
       <r>    -1.5715     0.1475     0.3268 </r>
       <r>    -1.4299     0.1945     0.3543 </r>
       <r>    -1.2883     0.1160     0.3707 </r>
       <r>    -1.1467     0.1972     0.3987 </r>
       <r>    -1.0051     0.0513     0.4059 </r>
       <r>    -0.8635     0.3409     0.4542 </r>
       <r>    -0.7219     0.1288     0.4724 </r>
       <r>    -0.5803     0.3939     0.5282 </r>
       <r>    -0.4387     0.1969     0.5561 </r>
       <r>    -0.2971     0.0860     0.5683 </r>
       <r>    -0.1555     0.1138     0.5844 </r>
       <r>    -0.0139     0.2970     0.6264 </r>
       <r>     0.1277     0.1994     0.6547 </r>
       <r>     0.2693     0.3287     0.7012 </r>
       <r>     0.4109     0.2204     0.7324 </r>
       <r>     0.5525     0.1822     0.7582 </r>
       <r>     0.6941     0.4455     0.8213 </r>
       <r>     0.8357     0.1849     0.8475 </r>
       <r>     0.9773     0.1971     0.8754 </r>
       <r>     1.1189     0.1144     0.8916 </r>
       <r>     1.2606     0.2029     0.9203 </r>
       <r>     1.4022     0.2267     0.9524 </r>
       <r>     1.5438     0.4813     1.0206 </r>
       <r>     1.6854     0.1706     1.0448 </r>
       <r>     1.8270     0.4260     1.1051 </r>
       <r>     1.9686     0.1268     1.1230 </r>
       <r>     2.1102     0.3166     1.1679 </r>
       <r>     2.2518     0.3083     1.2115 </r>
       <r>     2.3934     0.2932     1.2531 </r>
       <r>     2.5350     0.1917     1.2802 </r>
       <r>     2.6766     0.3054     1.3234 </r>
       <r>     2.8182     0.3144     1.3680 </r>
       <r>     2.9598     0.1633     1.3911 </r>
       <r>     3.1014     0.6206     1.4790 </r>
       <r>     3.2430     0.0942     1.4923 </r>
       <r>     3.3846     0.2849     1.5326 </r>
       <r>     3.5262     0.3895     1.5878 </r>
       <r>     3.6678     0.2591     1.6245 </r>
       <r>     3.8094     0.3769     1.6778 </r>
       <r>     3.9510     0.3628     1.7292 </r>
       <r>     4.0927     0.2505     1.7647 </r>
       <r>     4.2343     0.1089     1.7801 </r>
       <r>     4.3759     0.3577     1.8308 </r>
       <r>     4.5175     0.3176     1.8757 </r>
       <r>     4.6591     0.5158     1.9488 </r>
       <r>     4.8007     0.4707     2.0154 </r>
       <r>     4.9423     0.1101     2.0310 </r>
       <r>     5.0839     0.4042     2.0883 </r>
       <r>     5.2255     0.1305     2.1067 </r>
       <r>     5.3671     0.3725     2.1595 </r>
       <r>     5.5087     0.5859     2.2424 </r>
       <r>     5.6503     0.2667     2.2802 </r>
       <r>     5.7919     0.5499     2.3581 </r>
       <r>     5.9335     0.2918     2.3994 </r>
       <r>     6.0751     0.1864     2.4258 </r>
       <r>     6.2167     0.4171     2.4849 </r>
       <r>     6.3583     0.2427     2.5192 </r>
       <r>     6.4999     0.0930     2.5324 </r>
       <r>     6.6415     0.7055     2.6323 </r>
       <r>     6.7831     0.3227     2.6780 </r>
       <r>     6.9248     0.5406     2.7546 </r>
       <r>     7.0664     0.5035     2.8259 </r>
       <r>     7.2080     0.2584     2.8625 </r>
       <r>     7.3496     0.3645     2.9141 </r>
       <r>     7.4912     0.3012     2.9567 </r>
       <r>     7.6328     0.4870     3.0257 </r>
       <r>     7.7744     0.4686     3.0920 </r>
       <r>     7.9160     0.5031     3.1633 </r>
       <r>     8.0576     0.2643     3.2007 </r>
       <r>     8.1992     0.1369     3.2201 </r>
       <r>     8.3408     0.1980     3.2481 </r>
       <r>     8.4824     0.8047     3.3621 </r>
       <r>     8.6240     0.4871     3.4310 </r>
       <r>     8.7656     0.3571     3.4816 </r>
       <r>     8.9072     0.4646     3.5474 </r>
       <r>     9.0488     0.4052     3.6048 </r>
       <r>     9.1904     0.5260     3.6793 </r>
       <r>     9.3320     0.4745     3.7465 </r>
       <r>     9.4736     0.4686     3.8128 </r>
       <r>     9.6152     0.5100     3.8851 </r>
       <r>     9.7569     0.5241     3.9593 </r>
       <r>     9.8985     0.3205     4.0047 </r>
       <r>    10.0401     0.4719     4.0715 </r>
       <r>    10.1817     0.2557     4.1077 </r>
       <r>    10.3233     0.3904     4.1630 </r>
       <r>    10.4649     0.4655     4.2289 </r>
       <r>    10.6065     0.4764     4.2964 </r>
       <r>    10.7481     0.5326     4.3718 </r>
       <r>    10.8897     0.5614     4.4513 </r>
       <r>    11.0313     0.6739     4.5467 </r>
       <r>    11.1729     0.2177     4.5775 </r>
       <r>    11.3145     0.2761     4.6166 </r>
       <r>    11.4561     0.2634     4.6539 </r>
       <r>    11.5977     0.6409     4.7447 </r>
       <r>    11.7393     0.6361     4.8348 </r>
       <r>    11.8809     0.2540     4.8707 </r>
       <r>    12.0225     0.6775     4.9667 </r>
       <r>    12.1641     0.4090     5.0246 </r>
       <r>    12.3057     0.1868     5.0510 </r>
       <r>    12.4473     0.4195     5.1104 </r>
       <r>    12.5890     0.1627     5.1335 </r>
       <r>    12.7306     0.5461     5.2108 </r>
       <r>    12.8722     0.3227     5.2565 </r>
       <r>    13.0138     0.7565     5.3636 </r>
       <r>    13.1554     0.4811     5.4318 </r>
       <r>    13.2970     0.4380     5.4938 </r>
       <r>    13.4386     0.8570     5.6151 </r>
       <r>    13.5802     0.4225     5.6750 </r>
       <r>    13.7218     0.4851     5.7437 </r>
       <r>    13.8634     0.3446     5.7925 </r>
       <r>    14.0050     0.4548     5.8569 </r>
       <r>    14.1466     0.4511     5.9208 </r>
       <r>    14.2882     0.3628     5.9721 </r>
       <r>    14.4298     0.5684     6.0526 </r>
       <r>    14.5714     0.8306     6.1702 </r>
       <r>    14.7130     0.2011     6.1987 </r>
       <r>    14.8546     0.5131     6.2714 </r>
       <r>    14.9962     0.2693     6.3095 </r>
       <r>    15.1378     0.6907     6.4073 </r>
       <r>    15.2794     0.4529     6.4714 </r>
       <r>    15.4211     0.5921     6.5553 </r>
       <r>    15.5627     0.6950     6.6537 </r>
       <r>    15.7043     0.4466     6.7170 </r>
       <r>    15.8459     0.5665     6.7972 </r>
       <r>    15.9875     0.5541     6.8756 </r>
       <r>    16.1291     0.8605     6.9975 </r>
       <r>    16.2707     0.5526     7.0757 </r>
       <r>    16.4123     0.2116     7.1057 </r>
       <r>    16.5539     0.7288     7.2089 </r>
       <r>    16.6955     0.3149     7.2535 </r>
       <r>    16.8371     0.2322     7.2864 </r>
       <r>    16.9787     0.3742     7.3393 </r>
       <r>    17.1203     0.6450     7.4307 </r>
       <r>    17.2619     0.9047     7.5588 </r>
       <r>    17.4035     1.2677     7.7383 </r>
       <r>    17.5451     0.7425     7.8435 </r>
       <r>    17.6867     0.4355     7.9051 </r>
       <r>    17.8283     0.3615     7.9563 </r>
       <r>    17.9699     0.4992     8.0270 </r>
       <r>    18.1115     0.6491     8.1189 </r>
       <r>    18.2532     0.4965     8.1892 </r>
       <r>    18.3948     0.3111     8.2333 </r>
       <r>    18.5364     0.1970     8.2612 </r>
       <r>    18.6780     0.3947     8.3171 </r>
       <r>    18.8196     0.3797     8.3709 </r>
       <r>    18.9612     0.1117     8.3867 </r>
       <r>    19.1028     0.5346     8.4624 </r>
       <r>    19.2444     0.6355     8.5524 </r>
       <r>    19.3860     0.4622     8.6178 </r>
       <r>    19.5276     0.4768     8.6853 </r>
       <r>    19.6692     0.7028     8.7848 </r>
       <r>    19.8108     0.7002     8.8840 </r>
       <r>    19.9524     0.3490     8.9334 </r>
       <r>    20.0940     0.2447     8.9681 </r>
       <r>    20.2356     1.0201     9.1125 </r>
       <r>    20.3772     0.4623     9.1780 </r>
       <r>    20.5188     0.2828     9.2180 </r>
       <r>    20.6604     0.6902     9.3157 </r>
       <r>    20.8020     0.3926     9.3713 </r>
       <r>    20.9436     0.6493     9.4633 </r>
       <r>    21.0852     0.7631     9.5713 </r>
       <r>    21.2269     0.4458     9.6345 </r>
       <r>    21.3685     0.5046     9.7059 </r>
       <r>    21.5101     0.6162     9.7932 </r>
       <r>    21.6517     0.8556     9.9143 </r>
       <r>    21.7933     0.9192    10.0445 </r>
       <r>    21.9349     1.4151    10.2449 </r>
       <r>    22.0765     0.6666    10.3393 </r>
       <r>    22.2181     0.7378    10.4437 </r>
       <r>    22.3597     0.8668    10.5665 </r>
       <r>    22.5013     0.6049    10.6521 </r>
       <r>    22.6429     0.2230    10.6837 </r>
       <r>    22.7845     0.1558    10.7058 </r>
       <r>    22.9261     0.2932    10.7473 </r>
       <r>    23.0677     0.8531    10.8681 </r>
       <r>    23.2093     0.7589    10.9756 </r>
       <r>    23.3509     0.9747    11.1136 </r>
       <r>    23.4925     0.4156    11.1724 </r>
       <r>    23.6341     0.6410    11.2632 </r>
       <r>    23.7757     0.5005    11.3341 </r>
       <r>    23.9173     0.4998    11.4049 </r>
       <r>    24.0590     0.4768    11.4724 </r>
       <r>    24.2006     0.2303    11.5050 </r>
       <r>    24.3422     0.6951    11.6034 </r>
       <r>    24.4838     0.5390    11.6797 </r>
       <r>    24.6254     1.1412    11.8413 </r>
       <r>    24.7670     0.6835    11.9381 </r>
       <r>    24.9086     0.4780    12.0058 </r>
       <r>    25.0502     0.4341    12.0673 </r>
       <r>    25.1918     0.6968    12.1660 </r>
       <r>    25.3334     0.5871    12.2491 </r>
       <r>    25.4750     0.5635    12.3289 </r>
       <r>    25.6166     0.7923    12.4411 </r>
       <r>    25.7582     0.3516    12.4909 </r>
       <r>    25.8998     0.7142    12.5920 </r>
       <r>    26.0414     0.4459    12.6551 </r>
       <r>    26.1830     0.6741    12.7506 </r>
       <r>    26.3246     0.6020    12.8359 </r>
       <r>    26.4662     0.7954    12.9485 </r>
       <r>    26.6078     0.7420    13.0536 </r>
       <r>    26.7494     0.4722    13.1204 </r>
       <r>    26.8911     0.9423    13.2539 </r>
       <r>    27.0327     0.4710    13.3206 </r>
       <r>    27.1743     0.7227    13.4229 </r>
       <r>    27.3159     0.5734    13.5041 </r>
       <r>    27.4575     0.5991    13.5889 </r>
       <r>    27.5991     0.2676    13.6268 </r>
       <r>    27.7407     0.5877    13.7100 </r>
       <r>    27.8823     0.6320    13.7995 </r>
       <r>    28.0239     0.7150    13.9008 </r>
       <r>    28.1655     0.6137    13.9877 </r>
       <r>    28.3071     0.4521    14.0517 </r>
       <r>    28.4487     0.5806    14.1339 </r>
       <r>    28.5903     0.6524    14.2263 </r>
       <r>    28.7319     0.9724    14.3640 </r>
       <r>    28.8735     0.6372    14.4542 </r>
       <r>    29.0151     1.2838    14.6360 </r>
       <r>    29.1567     0.7294    14.7393 </r>
       <r>    29.2983     0.2528    14.7751 </r>
       <r>    29.4399     0.6343    14.8649 </r>
       <r>    29.5815     0.4868    14.9338 </r>
       <r>    29.7232     0.5731    15.0150 </r>
       <r>    29.8648     0.8055    15.1290 </r>
       <r>    30.0064     0.8501    15.2494 </r>
       <r>    30.1480     0.6683    15.3440 </r>
       <r>    30.2896     0.2106    15.3738 </r>
       <r>    30.4312     0.5818    15.4562 </r>
       <r>    30.5728     0.4968    15.5266 </r>
       <r>    30.7144     0.8120    15.6416 </r>
       <r>    30.8560     0.5538    15.7200 </r>
       <r>    30.9976     0.1768    15.7450 </r>
       <r>    31.1392     0.4279    15.8056 </r>
       <r>    31.2808     0.1963    15.8334 </r>
       <r>    31.4224     0.0420    15.8394 </r>
       <r>    31.5640     0.1765    15.8644 </r>
       <r>    31.7056     0.2151    15.8948 </r>
       <r>    31.8472     0.1193    15.9117 </r>
       <r>    31.9888     0.0124    15.9135 </r>
       <r>    32.1304     0.0193    15.9162 </r>
       <r>    32.2720     0.0340    15.9210 </r>
       <r>    32.4136     0.1015    15.9354 </r>
       <r>    32.5553     0.0143    15.9374 </r>
       <r>    32.6969     0.1050    15.9523 </r>
       <r>    32.8385     0.0506    15.9595 </r>
       <r>    32.9801     0.1213    15.9766 </r>
       <r>    33.1217     0.0492    15.9836 </r>
       <r>    33.2633     0.0317    15.9881 </r>
       <r>    33.4049     0.0004    15.9881 </r>
       <r>    33.5465     0.0000    15.9881 </r>
       <r>    33.6881     0.0000    15.9881 </r>
       <r>    33.8297     0.0000    15.9881 </r>
       <r>    33.9713     0.0002    15.9882 </r>
       <r>    34.1129     0.0235    15.9915 </r>
       <r>    34.2545     0.0276    15.9954 </r>
       <r>    34.3961     0.0323    16.0000 </r>
       <r>    34.5377     0.0002    16.0000 </r>
       <r>    34.6793     0.0000    16.0000 </r>
       <r>    34.8209     0.0000    16.0000 </r>
       <r>    34.9625     0.0000    16.0000 </r>
       <r>    35.1041     0.0000    16.0000 </r>
       <r>    35.2457     0.0000    16.0000 </r>
       <r>    35.3874     0.0000    16.0000 </r>
       <r>    35.5290     0.0000    16.0000 </r>
       <r>    35.6706     0.0000    16.0000 </r>
       <r>    35.8122     0.0000    16.0000 </r>
       <r>    35.9538     0.0000    16.0000 </r>
       <r>    36.0954     0.0000    16.0000 </r>
       <r>    36.2370     0.0000    16.0000 </r>
      </set>
     </set>
    </array>
   </total>
  </dos>
 </calculation>
 <structure name="finalpos" >
  <crystal>
   <varray name="basis" >
    <v>       1.54036631       1.54036631       1.54036631 </v>
    <v>       1.54036631      -1.54036631      -1.54036631 </v>
    <v>      -1.54036631       1.54036631      -1.54036631 </v>
   </varray>
   <i name="volume">     14.61948327 </i>
   <varray name="rec_basis" >
    <v>       0.32459812       0.32459812       0.00000000 </v>
    <v>       0.32459812       0.00000000      -0.32459812 </v>
    <v>       0.00000000       0.32459812      -0.32459812 </v>
   </varray>
  </crystal>
  <varray name="positions" >
   <v>       0.00000000      -0.00000000      -0.00000000 </v>
  </varray>
 </structure>
</modeling>
