unknown system                          
           1
     1.513326    1.513326    1.513326
     1.513326   -1.513326   -1.513326
    -1.513326    1.513326   -1.513326
   Si
     1
Direct configuration=     1
   0.00000000  0.00000000  0.00000000
unknown system                          
           1
     1.548429    1.548429    1.548429
     1.548429   -1.548429   -1.548429
    -1.548429    1.548429   -1.548429
   Si
     1
Direct configuration=     2
   0.00000000 -0.00000000 -0.00000000
unknown system                          
           1
     1.540366    1.540366    1.540366
     1.540366   -1.540366   -1.540366
    -1.540366    1.540366   -1.540366
   Si
     1
Direct configuration=     3
   0.00000000 -0.00000000 -0.00000000
