   1   1   0   0
  0.1408159E+02  0.2710538E-09  0.2710538E-09  0.2710538E-09  0.5000000E-15
  1.000000000000000E-004
  CAR 
 unknown system                          
     38.43000978     -6.30551942  301     10.23276094      1.00000000
     -6.306  0.0000E+00  0.0000E+00
     -6.156  0.0000E+00  0.0000E+00
     -6.007  0.0000E+00  0.0000E+00
     -5.858  0.0000E+00  0.0000E+00
     -5.709  0.0000E+00  0.0000E+00
     -5.560  0.0000E+00  0.0000E+00
     -5.411  0.0000E+00  0.0000E+00
     -5.262  0.0000E+00  0.0000E+00
     -5.113  0.0000E+00  0.0000E+00
     -4.963  0.0000E+00  0.0000E+00
     -4.814  0.0000E+00  0.0000E+00
     -4.665  0.0000E+00  0.0000E+00
     -4.516  0.3721E-16  0.5548E-17
     -4.367  0.5299E-07  0.7902E-08
     -4.218  0.7075E-04  0.1056E-04
     -4.069  0.3324E-03  0.6013E-04
     -3.920  0.5059E-03  0.1356E-03
     -3.771  0.7871E-03  0.2529E-03
     -3.621  0.7355E-03  0.3626E-03
     -3.472  0.9945E-03  0.5109E-03
     -3.323  0.9453E-03  0.6519E-03
     -3.174  0.7273E-03  0.7603E-03
     -3.025  0.1394E-02  0.9682E-03
     -2.876  0.1234E-02  0.1152E-02
     -2.727  0.1109E-02  0.1318E-02
     -2.578  0.1514E-02  0.1543E-02
     -2.428  0.1578E-02  0.1779E-02
     -2.279  0.1292E-02  0.1971E-02
     -2.130  0.9262E-03  0.2109E-02
     -1.981  0.1991E-02  0.2406E-02
     -1.832  0.1858E-02  0.2683E-02
     -1.683  0.1704E-02  0.2938E-02
     -1.534  0.1353E-02  0.3139E-02
     -1.385  0.1755E-02  0.3401E-02
     -1.235  0.2164E-02  0.3724E-02
     -1.086  0.1723E-02  0.3981E-02
     -0.937  0.1763E-02  0.4244E-02
     -0.788  0.1848E-02  0.4519E-02
     -0.639  0.1928E-02  0.4807E-02
     -0.490  0.2566E-02  0.5189E-02
     -0.341  0.2363E-02  0.5542E-02
     -0.192  0.2015E-02  0.5842E-02
     -0.043  0.8779E-03  0.5973E-02
      0.107  0.2735E-02  0.6381E-02
      0.256  0.2527E-02  0.6758E-02
      0.405  0.2454E-02  0.7124E-02
      0.554  0.2561E-02  0.7505E-02
      0.703  0.2565E-02  0.7888E-02
      0.852  0.1687E-02  0.8140E-02
      1.001  0.1693E-02  0.8392E-02
      1.150  0.3308E-02  0.8885E-02
      1.300  0.2500E-02  0.9258E-02
      1.449  0.3174E-02  0.9731E-02
      1.598  0.2089E-02  0.1004E-01
      1.747  0.3276E-02  0.1053E-01
      1.896  0.2000E-02  0.1083E-01
      2.045  0.1705E-02  0.1108E-01
      2.194  0.3864E-02  0.1166E-01
      2.343  0.3267E-02  0.1215E-01
      2.492  0.2660E-02  0.1254E-01
      2.642  0.2687E-02  0.1294E-01
      2.791  0.3053E-02  0.1340E-01
      2.940  0.2840E-02  0.1382E-01
      3.089  0.2496E-02  0.1420E-01
      3.238  0.3153E-02  0.1467E-01
      3.387  0.2765E-02  0.1508E-01
      3.536  0.3385E-02  0.1558E-01
      3.685  0.2952E-02  0.1602E-01
      3.835  0.3037E-02  0.1648E-01
      3.984  0.2104E-02  0.1679E-01
      4.133  0.2295E-02  0.1713E-01
      4.282  0.4619E-02  0.1782E-01
      4.431  0.4207E-02  0.1845E-01
      4.580  0.2514E-02  0.1882E-01
      4.729  0.3051E-02  0.1928E-01
      4.878  0.3810E-02  0.1985E-01
      5.027  0.3669E-02  0.2039E-01
      5.177  0.2530E-02  0.2077E-01
      5.326  0.3589E-02  0.2131E-01
      5.475  0.2881E-02  0.2173E-01
      5.624  0.2667E-02  0.2213E-01
      5.773  0.4639E-02  0.2282E-01
      5.922  0.3562E-02  0.2336E-01
      6.071  0.3324E-02  0.2385E-01
      6.220  0.2668E-02  0.2425E-01
      6.370  0.4666E-02  0.2494E-01
      6.519  0.2897E-02  0.2538E-01
      6.668  0.4312E-02  0.2602E-01
      6.817  0.3158E-02  0.2649E-01
      6.966  0.2952E-02  0.2693E-01
      7.115  0.4273E-02  0.2757E-01
      7.264  0.4105E-02  0.2818E-01
      7.413  0.4007E-02  0.2878E-01
      7.562  0.2853E-02  0.2920E-01
      7.712  0.4436E-02  0.2986E-01
      7.861  0.4127E-02  0.3048E-01
      8.010  0.2399E-02  0.3084E-01
      8.159  0.3587E-02  0.3137E-01
      8.308  0.3117E-02  0.3184E-01
      8.457  0.6353E-02  0.3278E-01
      8.606  0.4080E-02  0.3339E-01
      8.755  0.4375E-02  0.3405E-01
      8.905  0.3729E-02  0.3460E-01
      9.054  0.3136E-02  0.3507E-01
      9.203  0.3558E-02  0.3560E-01
      9.352  0.3733E-02  0.3616E-01
      9.501  0.3616E-02  0.3670E-01
      9.650  0.4685E-02  0.3739E-01
      9.799  0.5634E-02  0.3823E-01
      9.948  0.4864E-02  0.3896E-01
     10.098  0.3977E-02  0.3955E-01
     10.247  0.3451E-02  0.4007E-01
     10.396  0.3625E-02  0.4061E-01
     10.545  0.4796E-02  0.4132E-01
     10.694  0.3867E-02  0.4190E-01
     10.843  0.4468E-02  0.4257E-01
     10.992  0.5965E-02  0.4346E-01
     11.141  0.3753E-02  0.4401E-01
     11.290  0.4194E-02  0.4464E-01
     11.440  0.4957E-02  0.4538E-01
     11.589  0.2307E-02  0.4572E-01
     11.738  0.7122E-02  0.4679E-01
     11.887  0.5285E-02  0.4757E-01
     12.036  0.4729E-02  0.4828E-01
     12.185  0.2022E-02  0.4858E-01
     12.334  0.6184E-02  0.4950E-01
     12.483  0.5680E-02  0.5035E-01
     12.633  0.4488E-02  0.5102E-01
     12.782  0.4894E-02  0.5175E-01
     12.931  0.3657E-02  0.5229E-01
     13.080  0.5473E-02  0.5311E-01
     13.229  0.6922E-02  0.5414E-01
     13.378  0.5997E-02  0.5504E-01
     13.527  0.6322E-02  0.5598E-01
     13.676  0.3044E-02  0.5643E-01
     13.825  0.4536E-02  0.5711E-01
     13.975  0.5825E-02  0.5798E-01
     14.124  0.7003E-02  0.5902E-01
     14.273  0.6107E-02  0.5993E-01
     14.422  0.4636E-02  0.6062E-01
     14.571  0.4477E-02  0.6129E-01
     14.720  0.5111E-02  0.6205E-01
     14.869  0.3985E-02  0.6265E-01
     15.018  0.5477E-02  0.6347E-01
     15.168  0.5055E-02  0.6422E-01
     15.317  0.4784E-02  0.6493E-01
     15.466  0.5065E-02  0.6569E-01
     15.615  0.3779E-02  0.6625E-01
     15.764  0.3713E-02  0.6680E-01
     15.913  0.6547E-02  0.6778E-01
     16.062  0.5435E-02  0.6859E-01
     16.211  0.3813E-02  0.6916E-01
     16.360  0.3249E-02  0.6964E-01
     16.510  0.5122E-02  0.7041E-01
     16.659  0.4458E-02  0.7107E-01
     16.808  0.6127E-02  0.7199E-01
     16.957  0.4529E-02  0.7266E-01
     17.106  0.4412E-02  0.7332E-01
     17.255  0.5046E-02  0.7407E-01
     17.404  0.5175E-02  0.7484E-01
     17.553  0.4597E-02  0.7553E-01
     17.703  0.5692E-02  0.7638E-01
     17.852  0.3990E-02  0.7697E-01
     18.001  0.6531E-02  0.7795E-01
     18.150  0.4587E-02  0.7863E-01
     18.299  0.5658E-02  0.7948E-01
     18.448  0.3927E-02  0.8006E-01
     18.597  0.4751E-02  0.8077E-01
     18.746  0.5644E-02  0.8161E-01
     18.895  0.6599E-02  0.8259E-01
     19.045  0.6529E-02  0.8357E-01
     19.194  0.3996E-02  0.8416E-01
     19.343  0.4079E-02  0.8477E-01
     19.492  0.7534E-02  0.8590E-01
     19.641  0.5612E-02  0.8673E-01
     19.790  0.5352E-02  0.8753E-01
     19.939  0.4235E-02  0.8816E-01
     20.088  0.5430E-02  0.8897E-01
     20.238  0.4057E-02  0.8958E-01
     20.387  0.6635E-02  0.9057E-01
     20.536  0.5939E-02  0.9145E-01
     20.685  0.4929E-02  0.9219E-01
     20.834  0.6359E-02  0.9314E-01
     20.983  0.8649E-02  0.9443E-01
     21.132  0.5710E-02  0.9528E-01
     21.281  0.6407E-02  0.9623E-01
     21.431  0.5407E-02  0.9704E-01
     21.580  0.6852E-02  0.9806E-01
     21.729  0.4452E-02  0.9872E-01
     21.878  0.4864E-02  0.9945E-01
     22.027  0.4807E-02  0.1002E+00
     22.176  0.4689E-02  0.1009E+00
     22.325  0.7376E-02  0.1020E+00
     22.474  0.7495E-02  0.1031E+00
     22.623  0.5969E-02  0.1040E+00
     22.773  0.4939E-02  0.1047E+00
     22.922  0.5322E-02  0.1055E+00
     23.071  0.5074E-02  0.1063E+00
     23.220  0.6952E-02  0.1073E+00
     23.369  0.4573E-02  0.1080E+00
     23.518  0.8688E-02  0.1093E+00
     23.667  0.6960E-02  0.1103E+00
     23.816  0.4556E-02  0.1110E+00
     23.966  0.5005E-02  0.1117E+00
     24.115  0.7856E-02  0.1129E+00
     24.264  0.6806E-02  0.1139E+00
     24.413  0.8506E-02  0.1152E+00
     24.562  0.6303E-02  0.1161E+00
     24.711  0.6253E-02  0.1171E+00
     24.860  0.7079E-02  0.1181E+00
     25.009  0.6533E-02  0.1191E+00
     25.158  0.6373E-02  0.1200E+00
     25.308  0.4983E-02  0.1208E+00
     25.457  0.4122E-02  0.1214E+00
     25.606  0.3318E-02  0.1219E+00
     25.755  0.7617E-02  0.1230E+00
     25.904  0.9579E-02  0.1245E+00
     26.053  0.9445E-02  0.1259E+00
     26.202  0.7458E-02  0.1270E+00
     26.351  0.6553E-02  0.1280E+00
     26.501  0.5963E-02  0.1288E+00
     26.650  0.3676E-02  0.1294E+00
     26.799  0.5187E-02  0.1302E+00
     26.948  0.8048E-02  0.1314E+00
     27.097  0.4873E-02  0.1321E+00
     27.246  0.6056E-02  0.1330E+00
     27.395  0.7226E-02  0.1341E+00
     27.544  0.8238E-02  0.1353E+00
     27.693  0.2818E-02  0.1357E+00
     27.843  0.5652E-02  0.1366E+00
     27.992  0.4861E-02  0.1373E+00
     28.141  0.6841E-02  0.1383E+00
     28.290  0.5196E-02  0.1391E+00
     28.439  0.6789E-02  0.1401E+00
     28.588  0.6658E-02  0.1411E+00
     28.737  0.4703E-02  0.1418E+00
     28.886  0.3708E-02  0.1423E+00
     29.036  0.3511E-02  0.1429E+00
     29.185  0.6225E-02  0.1438E+00
     29.334  0.2771E-02  0.1442E+00
     29.483  0.5599E-02  0.1450E+00
     29.632  0.5167E-02  0.1458E+00
     29.781  0.6647E-02  0.1468E+00
     29.930  0.6547E-02  0.1478E+00
     30.079  0.4389E-02  0.1484E+00
     30.228  0.5843E-02  0.1493E+00
     30.378  0.5939E-02  0.1502E+00
     30.527  0.5033E-02  0.1509E+00
     30.676  0.2223E-02  0.1513E+00
     30.825  0.3381E-02  0.1518E+00
     30.974  0.4075E-02  0.1524E+00
     31.123  0.4715E-02  0.1531E+00
     31.272  0.2632E-02  0.1535E+00
     31.421  0.2683E-02  0.1539E+00
     31.571  0.1988E-02  0.1542E+00
     31.720  0.3508E-02  0.1547E+00
     31.869  0.2819E-02  0.1551E+00
     32.018  0.2144E-02  0.1554E+00
     32.167  0.2793E-02  0.1559E+00
     32.316  0.1312E-02  0.1561E+00
     32.465  0.2444E-02  0.1564E+00
     32.614  0.2111E-02  0.1567E+00
     32.764  0.9130E-03  0.1569E+00
     32.913  0.1935E-02  0.1572E+00
     33.062  0.2323E-02  0.1575E+00
     33.211  0.1307E-02  0.1577E+00
     33.360  0.1623E-02  0.1579E+00
     33.509  0.1875E-02  0.1582E+00
     33.658  0.6761E-03  0.1583E+00
     33.807  0.1838E-02  0.1586E+00
     33.956  0.1141E-02  0.1588E+00
     34.106  0.8548E-03  0.1589E+00
     34.255  0.8504E-03  0.1590E+00
     34.404  0.6816E-03  0.1591E+00
     34.553  0.5612E-03  0.1592E+00
     34.702  0.1986E-02  0.1595E+00
     34.851  0.3101E-03  0.1596E+00
     35.000  0.9309E-03  0.1597E+00
     35.149  0.3329E-03  0.1597E+00
     35.299  0.1634E-08  0.1597E+00
     35.448  0.6754E-05  0.1597E+00
     35.597  0.7965E-03  0.1599E+00
     35.746  0.3059E-03  0.1599E+00
     35.895  0.2086E-03  0.1599E+00
     36.044  0.1595E-03  0.1600E+00
     36.193  0.2093E-04  0.1600E+00
     36.342  0.1581E-03  0.1600E+00
     36.491  0.8135E-04  0.1600E+00
     36.641  0.3161E-06  0.1600E+00
     36.790  0.2232E-15  0.1600E+00
     36.939  0.0000E+00  0.1600E+00
     37.088  0.0000E+00  0.1600E+00
     37.237  0.0000E+00  0.1600E+00
     37.386  0.0000E+00  0.1600E+00
     37.535  0.0000E+00  0.1600E+00
     37.684  0.0000E+00  0.1600E+00
     37.834  0.0000E+00  0.1600E+00
     37.983  0.0000E+00  0.1600E+00
     38.132  0.0000E+00  0.1600E+00
     38.281  0.0000E+00  0.1600E+00
     38.430  0.0000E+00  0.1600E+00
