    1    1  100    1
  0.1408159E+02  0.2710538E-09  0.2710538E-09  0.2710538E-09  0.5000000E-15
  1.000000000000000E-004
  CAR 
 unknown system                          
      4    286      8
 
  0.0000000E+00  0.0000000E+00  0.0000000E+00  0.1079797E-03
    1       -4.272086   1.000000
    2       21.385601   0.000000
    3       21.385608   0.000000
    4       21.385617   0.000000
    5       22.182096   0.000000
    6       22.182105   0.000000
    7       22.182114   0.000000
    8       27.499656   0.000000
 
  0.4761905E-01  0.0000000E+00  0.0000000E+00  0.8638376E-03
    1       -4.205903   1.000000
    2       19.997608   0.000000
    3       20.956767   0.000000
    4       20.956779   0.000000
    5       22.693445   0.000000
    6       22.693459   0.000000
    7       22.980785   0.000000
    8       28.053297   0.000000
 
  0.9523810E-01  0.6938894E-17  0.0000000E+00  0.8638376E-03
    1       -4.007438   1.000000
    2       18.031060   0.000000
    3       20.369199   0.000000
    4       20.369211   0.000000
    5       23.424915   0.000000
    6       23.498999   0.000000
    7       23.499013   0.000000
    8       27.956366   0.000000
 
  0.1428571E+00  0.0000000E+00  0.0000000E+00  0.8638376E-03
    1       -3.677097   1.000000
    2       15.987867   0.000000
    3       19.858340   0.000000
    4       19.858351   0.000000
    5       23.507009   0.000000
    6       24.223419   0.000000
    7       24.223433   0.000000
    8       27.274813   0.000000
 
  0.1904762E+00  0.1387779E-16  0.0000000E+00  0.8638376E-03
    1       -3.215624   1.000000
    2       13.962334   0.000000
    3       19.443173   0.000000
    4       19.443183   0.000000
    5       23.450864   0.000000
    6       24.386693   0.000000
    7       24.386704   0.000000
    8       27.238284   0.000000
 
  0.2380952E+00 -0.1387779E-16  0.0000000E+00  0.8638376E-03
    1       -2.623947   1.000000
    2       11.998048   0.000000
    3       19.131753   0.000000
    4       19.131762   0.000000
    5       23.373433   0.000000
    6       23.863630   0.000000
    7       23.863639   0.000000
    8       28.063165   0.000000
 
  0.2857143E+00  0.1387779E-16  0.0000000E+00  0.8638376E-03
    1       -1.903375   1.000000
    2       10.116739   0.999484
    3       18.919743   0.000000
    4       18.919751   0.000000
    5       23.129655   0.000000
    6       23.129664   0.000000
    7       23.324821   0.000000
    8       28.377244   0.000000
 
  0.3333333E+00  0.0000000E+00  0.0000000E+00  0.8638376E-03
    1       -1.055719   1.000000
    2        8.331633   1.000000
    3       18.800035   0.000000
    4       18.800042   0.000000
    5       22.419551   0.000000
    6       22.419561   0.000000
    7       23.327415   0.000000
    8       27.563456   0.000000
 
  0.3809524E+00  0.2775558E-16  0.0000000E+00  0.8638376E-03
    1       -0.083561   1.000000
    2        6.652152   1.000000
    3       18.758433   0.000000
    4       18.758439   0.000000
    5       21.814834   0.000000
    6       21.814845   0.000000
    7       23.383778   0.000000
    8       26.873325   0.000000
 
  0.4285714E+00  0.0000000E+00  0.0000000E+00  0.8638376E-03
    1        1.007281   1.000000
    2        5.087327   1.000000
    3       18.769167   0.000000
    4       18.769171   0.000000
    5       21.362461   0.000000
    6       21.362473   0.000000
    7       23.467543   0.000000
    8       26.351782   0.000000
 
  0.4761905E+00  0.0000000E+00  0.0000000E+00  0.8638376E-03
    1        2.182732   1.000000
    2        3.674736   1.000000
    3       18.792973   0.000000
    4       18.792977   0.000000
    5       21.117921   0.000000
    6       21.117934   0.000000
    7       23.537946   0.000000
    8       26.061846   0.000000
 
  0.4761905E-01  0.4761905E-01  0.0000000E+00  0.6478782E-03
    1       -4.183836   1.000000
    2       20.253248   0.000000
    3       20.253249   0.000000
    4       21.175644   0.000000
    5       21.664233   0.000000
    6       23.421541   0.000000
    7       23.421542   0.000000
    8       28.066877   0.000000
 
  0.9523810E-01  0.4761905E-01  0.0000000E+00  0.2591513E-02
    1       -4.029471   1.000000
    2       18.705161   0.000000
    3       19.609542   0.000000
    4       20.882277   0.000000
    5       21.912663   0.000000
    6       24.059684   0.000000
    7       24.243399   0.000000
    8       27.097807   0.000000
 
  0.1428571E+00  0.4761905E-01  0.0000000E+00  0.2591513E-02
    1       -3.743103   1.000000
    2       16.705290   0.000000
    3       19.061676   0.000000
    4       20.389353   0.000000
    5       22.620438   0.000000
    6       24.313911   0.000000
    7       25.023697   0.000000
    8       26.163703   0.000000
 
  0.1904762E+00  0.4761905E-01  0.0000000E+00  0.2591513E-02
    1       -3.325368   1.000000
    2       14.677588   0.000000
    3       18.619809   0.000000
    4       19.945372   0.000000
    5       23.033968   0.000000
    6       24.287292   0.000000
    7       25.407868   0.000000
    8       25.787435   0.000000
 
  0.2380952E+00  0.4761905E-01  0.0000000E+00  0.2591513E-02
    1       -2.777100   1.000000
    2       12.694278   0.000000
    3       18.286616   0.000000
    4       19.578163   0.000000
    5       22.790064   0.000000
    6       24.064280   0.000000
    7       25.055866   0.000000
    8       26.400096   0.000000
 
  0.2857143E+00  0.4761905E-01  0.0000000E+00  0.2591513E-02
    1       -2.099507   1.000000
    2       10.785922   0.000000
    3       18.062466   0.000000
    4       19.283182   0.000000
    5       22.153894   0.000000
    6       23.947244   0.000000
    7       24.351586   0.000000
    8       27.492559   0.000000
 
  0.3333333E+00  0.4761905E-01  0.0000000E+00  0.2591513E-02
    1       -1.294200   1.000000
    2        8.969067   1.000000
    3       17.946063   0.000000
    4       19.039120   0.000000
    5       21.512330   0.000000
    6       23.602036   0.000000
    7       23.909233   0.000000
    8       28.143366   0.000000
 
  0.3809524E+00  0.4761905E-01  0.0000000E+00  0.2591513E-02
    1       -0.363408   1.000000
    2        7.254431   1.000000
    3       17.934883   0.000000
    4       18.805953   0.000000
    5       21.025835   0.000000
    6       22.913370   0.000000
    7       23.925531   0.000000
    8       27.592106   0.000000
 
  0.4285714E+00  0.4761905E-01  0.0000000E+00  0.2591513E-02
    1        0.688758   1.000000
    2        5.650863   1.000000
    3       18.023548   0.000000
    4       18.542447   0.000000
    5       20.774890   0.000000
    6       22.322790   0.000000
    7       23.973446   0.000000
    8       27.066377   0.000000
 
  0.4761905E+00  0.4761905E-01  0.0000000E+00  0.2591513E-02
    1        1.846868   1.000000
    2        4.176500   1.000000
    3       18.202002   0.000000
    4       18.246904   0.000000
    5       20.774631   0.000000
    6       21.852322   0.000000
    7       24.010206   0.000000
    8       26.738987   0.000000
 
 -0.4761905E+00  0.4761905E-01  0.0000000E+00  0.2591513E-02
    1        2.579253   1.000000
    2        3.365092   1.000000
    3       17.960623   0.000000
    4       18.455269   0.000000
    5       20.988263   0.000000
    6       21.531523   0.000000
    7       23.996722   0.000000
    8       26.674237   0.000000
 
 -0.4285714E+00  0.4761905E-01  0.0000000E+00  0.2591513E-02
    1        1.451787   1.000000
    2        4.650549   1.000000
    3       17.726177   0.000000
    4       18.754728   0.000000
    5       21.374571   0.000000
    6       21.384990   0.000000
    7       23.921131   0.000000
    8       26.882986   0.000000
 
 -0.3809524E+00  0.4761905E-01  0.0000000E+00  0.2591513E-02
    1        0.324999   1.000000
    2        6.172363   1.000000
    3       17.571432   0.000000
    4       19.062156   0.000000
    5       21.451404   0.000000
    6       21.904615   0.000000
    7       23.827007   0.000000
    8       27.319885   0.000000
 
 -0.3333333E+00  0.4761905E-01  0.0000000E+00  0.2591513E-02
    1       -0.687422   1.000000
    2        7.813903   1.000000
    3       17.511378   0.000000
    4       19.347306   0.000000
    5       21.755957   0.000000
    6       22.554248   0.000000
    7       23.751824   0.000000
    8       27.916702   0.000000
 
 -0.2857143E+00  0.4761905E-01  0.0000000E+00  0.2591513E-02
    1       -1.576720   1.000000
    2        9.563519   1.000000
    3       17.554217   0.000000
    4       19.616097   0.000000
    5       22.273352   0.000000
    6       23.299148   0.000000
    7       23.724392   0.000000
    8       28.573664   0.000000
 
 -0.2380952E+00  0.4761905E-01  0.0000000E+00  0.2591513E-02
    1       -2.339671   1.000000
    2       11.412115   0.000000
    3       17.705509   0.000000
    4       19.903400   0.000000
    5       22.922942   0.000000
    6       23.740565   0.000000
    7       24.099593   0.000000
    8       27.455909   0.000000
 
 -0.1904762E+00  0.4761905E-01  0.0000000E+00  0.2591513E-02
    1       -2.974286   1.000000
    2       13.347447   0.000000
    3       17.964491   0.000000
    4       20.242637   0.000000
    5       23.514182   0.000000
    6       23.782564   0.000000
    7       24.827671   0.000000
    8       26.451197   0.000000
 
 -0.1428571E+00  0.4761905E-01  0.0000000E+00  0.2591513E-02
    1       -3.479174   1.000000
    2       15.349700   0.000000
    3       18.332467   0.000000
    4       20.651630   0.000000
    5       23.552969   0.000000
    6       23.794129   0.000000
    7       25.094148   0.000000
    8       26.229395   0.000000
 
 -0.9523810E-01  0.4761905E-01  0.0000000E+00  0.2591513E-02
    1       -3.853206   1.000000
    2       17.380167   0.000000
    3       18.807165   0.000000
    4       21.116655   0.000000
    5       22.922178   0.000000
    6       23.666983   0.000000
    7       24.633482   0.000000
    8       26.889875   0.000000
 
 -0.4761905E-01  0.4761905E-01  0.0000000E+00  0.1295756E-02
    1       -4.095608   1.000000
    2       19.300621   0.000000
    3       19.432852   0.000000
    4       21.435386   0.000000
    5       22.351920   0.000000
    6       23.294171   0.000000
    7       23.863199   0.000000
    8       27.837609   0.000000
 
  0.9523810E-01  0.9523810E-01  0.0000000E+00  0.6478782E-03
    1       -3.919268   1.000000
    2       18.926207   0.000000
    3       18.926208   0.000000
    4       20.565616   0.000000
    5       20.593672   0.000000
    6       25.070812   0.000000
    7       25.070813   0.000000
    8       25.926911   0.000000
 
  0.1428571E+00  0.9523810E-01  0.0000000E+00  0.2591513E-02
    1       -3.677028   1.000000
    2       17.444073   0.000000
    3       18.341970   0.000000
    4       20.092835   0.000000
    5       20.880473   0.000000
    6       24.797267   0.000000
    7       25.663056   0.000000
    8       25.897909   0.000000
 
  0.1904762E+00  0.9523810E-01  0.0000000E+00  0.2591513E-02
    1       -3.303311   1.000000
    2       15.475993   0.000000
    3       17.865206   0.000000
    4       19.620953   0.000000
    5       21.476890   0.000000
    6       23.998726   0.000000
    7       25.880514   0.000000
    8       26.468235   0.000000
 
  0.2380952E+00  0.9523810E-01  0.0000000E+00  0.2591513E-02
    1       -2.798836   1.000000
    2       13.493121   0.000000
    3       17.498675   0.000000
    4       19.190562   0.000000
    5       21.441572   0.000000
    6       24.050410   0.000000
    7       26.007398   0.000000
    8       26.347122   0.000000
 
  0.2857143E+00  0.9523810E-01  0.0000000E+00  0.2591513E-02
    1       -2.164711   1.000000
    2       11.566830   0.000000
    3       17.244137   0.000000
    4       18.786475   0.000000
    5       20.876731   0.000000
    6       24.662021   0.000000
    7       25.723089   0.000000
    8       26.342786   0.000000
 
  0.3333333E+00  0.9523810E-01  0.0000000E+00  0.2591513E-02
    1       -1.402377   1.000000
    2        9.723545   1.000000
    3       17.101422   0.000000
    4       18.364547   0.000000
    5       20.335159   0.000000
    6       24.984458   0.000000
    7       25.047086   0.000000
    8       27.203022   0.000000
 
  0.3809524E+00  0.9523810E-01  0.0000000E+00  0.2591513E-02
    1       -0.513786   1.000000
    2        7.977323   1.000000
    3       17.069777   0.000000
    4       17.887965   0.000000
    5       20.009867   0.000000
    6       24.271040   0.000000
    7       25.174857   0.000000
    8       28.334492   0.000000
 
  0.4285714E+00  0.9523810E-01  0.0000000E+00  0.2591513E-02
    1        0.497872   1.000000
    2        6.338171   1.000000
    3       17.147746   0.000000
    4       17.379514   0.000000
    5       19.925081   0.000000
    6       23.634242   0.000000
    7       25.209940   0.000000
    8       28.510609   0.000000
 
  0.4761905E+00  0.9523810E-01  0.0000000E+00  0.2591513E-02
    1        1.623992   1.000000
    2        4.817896   1.000000
    3       16.893931   0.000000
    4       17.332537   0.000000
    5       20.038994   0.000000
    6       23.096551   0.000000
    7       25.181606   0.000000
    8       28.267867   0.000000
 
 -0.4761905E+00  0.9523810E-01  0.0000000E+00  0.2591513E-02
    1        2.752712   1.000000
    2        3.531278   1.000000
    3       16.474197   0.000000
    4       17.619787   0.000000
    5       20.315837   0.000000
    6       22.673969   0.000000
    7       25.094247   0.000000
    8       28.221045   0.000000
 
 -0.4285714E+00  0.9523810E-01  0.0000000E+00  0.2591513E-02
    1        2.018998   1.000000
    2        4.343825   1.000000
    3       16.143730   0.000000
    4       18.002203   0.000000
    5       20.734585   0.000000
    6       22.375487   0.000000
    7       24.958679   0.000000
    8       28.401652   0.000000
 
 -0.3809524E+00  0.9523810E-01  0.0000000E+00  0.2591513E-02
    1        0.861332   1.000000
    2        5.816812   1.000000
    3       15.914756   0.000000
    4       18.467623   0.000000
    5       21.280302   0.000000
    6       22.216131   0.000000
    7       24.816528   0.000000
    8       28.765270   0.000000
 
 -0.3333333E+00  0.9523810E-01  0.0000000E+00  0.2591513E-02
    1       -0.190109   1.000000
    2        7.417607   1.000000
    3       15.794079   0.000000
    4       18.996890   0.000000
    5       21.940040   0.000000
    6       22.211116   0.000000
    7       24.695164   0.000000
    8       29.229688   0.000000
 
 -0.2857143E+00  0.9523810E-01  0.0000000E+00  0.2591513E-02
    1       -1.120176   1.000000
    2        9.128255   1.000000
    3       15.784588   0.000000
    4       19.560732   0.000000
    5       22.379548   0.000000
    6       22.702774   0.000000
    7       24.613605   0.000000
    8       28.356921   0.000000
 
 -0.2380952E+00  0.9523810E-01  0.0000000E+00  0.2591513E-02
    1       -1.924837   1.000000
    2       10.938786   0.000000
    3       15.890768   0.000000
    4       20.123561   0.000000
    5       22.725029   0.000000
    6       23.549081   0.000000
    7       24.565763   0.000000
    8       26.961940   0.000000
 
 -0.1904762E+00  0.9523810E-01  0.0000000E+00  0.2591513E-02
    1       -2.601891   1.000000
    2       12.835718   0.000000
    3       16.113258   0.000000
    4       20.659400   0.000000
    5       23.166642   0.000000
    6       24.402804   0.000000
    7       24.532322   0.000000
    8       25.813258   0.000000
 
 -0.1428571E+00  0.9523810E-01  0.0000000E+00  0.2591513E-02
    1       -3.149696   1.000000
    2       14.792505   0.000000
    3       16.458612   0.000000
    4       21.148069   0.000000
    5       23.283384   0.000000
    6       24.389894   0.000000
    7       25.141633   0.000000
    8       25.347176   0.000000
 
 -0.9523810E-01  0.9523810E-01  0.0000000E+00  0.1295756E-02
    1       -3.567094   1.000000
    2       16.624780   0.000000
    3       17.071244   0.000000
    4       21.457849   0.000000
    5       22.858716   0.000000
    6       24.101464   0.000000
    7       25.237202   0.000000
    8       25.902294   0.000000
 
  0.1428571E+00  0.1428571E+00  0.0000000E+00  0.6478782E-03
    1       -3.479034   1.000000
    2       17.720423   0.000000
    3       17.720424   0.000000
    4       19.361785   0.000000
    5       19.710183   0.000000
    6       23.525240   0.000000
    7       26.791056   0.000000
    8       26.791056   0.000000
 
  0.1904762E+00  0.1428571E+00  0.0000000E+00  0.2591513E-02
    1       -3.149496   1.000000
    2       16.294353   0.000000
    3       17.207001   0.000000
    4       19.023971   0.000000
    5       19.727589   0.000000
    6       22.530096   0.000000
    7       27.391618   0.000000
    8       27.535289   0.000000
 
  0.2380952E+00  0.1428571E+00  0.0000000E+00  0.2591513E-02
    1       -2.689119   1.000000
    2       14.375927   0.000000
    3       16.804384   0.000000
    4       18.507790   0.000000
    5       19.966675   0.000000
    6       22.289475   0.000000
    7       27.623979   0.000000
    8       27.680795   0.000000
 
  0.2857143E+00  0.1428571E+00  0.0000000E+00  0.2591513E-02
    1       -2.098857   1.000000
    2       12.451017   0.000000
    3       16.514613   0.000000
    4       17.933147   0.000000
    5       19.628549   0.000000
    6       23.041582   0.000000
    7       27.189615   0.000000
    8       27.708079   0.000000
 
  0.3333333E+00  0.1428571E+00  0.0000000E+00  0.2591513E-02
    1       -1.380052   1.000000
    2       10.590112   0.000000
    3       16.337775   0.000000
    4       17.283771   0.000000
    5       19.253529   0.000000
    6       24.174735   0.000000
    7       26.483825   0.000000
    8       27.792148   0.000000
 
  0.3809524E+00  0.1428571E+00  0.0000000E+00  0.2591513E-02
    1       -0.534412   1.000000
    2        8.817531   1.000000
    3       16.274136   0.000000
    4       16.596653   0.000000
    5       19.059449   0.000000
    6       25.310829   0.000000
    7       25.768540   0.000000
    8       28.029878   0.000000
 
  0.4285714E+00  0.1428571E+00  0.0000000E+00  0.2591513E-02
    1        0.435482   1.000000
    2        7.146470   1.000000
    3       15.935060   0.000000
    4       16.323623   0.000000
    5       19.045065   0.000000
    6       25.111708   0.000000
    7       26.099656   0.000000
    8       28.687022   0.000000
 
  0.4761905E+00  0.1428571E+00  0.0000000E+00  0.2591513E-02
    1        1.523954   1.000000
    2        5.587645   1.000000
    3       15.342333   0.000000
    4       16.483526   0.000000
    5       19.182065   0.000000
    6       24.537584   0.000000
    7       26.373838   0.000000
    8       29.820958   0.000000
 
 -0.4761905E+00  0.1428571E+00  0.0000000E+00  0.2591513E-02
    1        2.698995   1.000000
    2        4.176441   1.000000
    3       14.842079   0.000000
    4       16.753417   0.000000
    5       19.461888   0.000000
    6       24.067082   0.000000
    7       26.348183   0.000000
    8       30.224856   0.000000
 
 -0.4285714E+00  0.1428571E+00  0.0000000E+00  0.2591513E-02
    1        2.699139   1.000000
    2        4.175803   1.000000
    3       14.445439   0.000000
    4       17.129819   0.000000
    5       19.871305   0.000000
    6       23.707031   0.000000
    7       26.203750   0.000000
    8       30.374022   0.000000
 
 -0.3809524E+00  0.1428571E+00  0.0000000E+00  0.2591513E-02
    1        1.523897   1.000000
    2        5.585951   1.000000
    3       14.161223   0.000000
    4       17.608192   0.000000
    5       20.405098   0.000000
    6       23.467415   0.000000
    7       26.025636   0.000000
    8       30.639984   0.000000
 
 -0.3333333E+00  0.1428571E+00  0.0000000E+00  0.2591513E-02
    1        0.435221   1.000000
    2        7.143156   1.000000
    3       13.992664   0.000000
    4       18.180567   0.000000
    5       21.055701   0.000000
    6       23.353071   0.000000
    7       25.854754   0.000000
    8       29.627490   0.000000
 
 -0.2857143E+00  0.1428571E+00  0.0000000E+00  0.2591513E-02
    1       -0.534691   1.000000
    2        8.810811   1.000000
    3       13.942762   0.000000
    4       18.834952   0.000000
    5       21.813451   0.000000
    6       23.371504   0.000000
    7       25.698714   0.000000
    8       28.055106   0.000000
 
 -0.2380952E+00  0.1428571E+00  0.0000000E+00  0.2591513E-02
    1       -1.380348   1.000000
    2       10.575211   0.000000
    3       14.015897   0.000000
    4       19.548219   0.000000
    5       22.663064   0.000000
    6       23.525750   0.000000
    7       25.540962   0.000000
    8       26.589274   0.000000
 
 -0.1904762E+00  0.1428571E+00  0.0000000E+00  0.2591513E-02
    1       -2.099141   1.000000
    2       12.408894   0.000000
    3       14.227758   0.000000
    4       20.276440   0.000000
    5       23.575167   0.000000
    6       23.781297   0.000000
    7       25.321818   0.000000
    8       25.326136   0.000000
 
 -0.1428571E+00  0.1428571E+00  0.0000000E+00  0.1295756E-02
    1       -2.689369   1.000000
    2       14.090431   0.000000
    3       14.779510   0.000000
    4       20.916069   0.000000
    5       23.705706   0.000000
    6       24.474558   0.000000
    7       24.799983   0.000000
    8       24.949775   0.000000
 
  0.1904762E+00  0.1904762E+00  0.0000000E+00  0.6478782E-03
    1       -2.864249   1.000000
    2       16.656139   0.000000
    3       16.656140   0.000000
    4       18.230256   0.000000
    5       18.468633   0.000000
    6       21.359832   0.000000
    7       28.523587   0.000000
    8       28.523587   0.000000
 
  0.2380952E+00  0.1904762E+00  0.0000000E+00  0.2591513E-02
    1       -2.448173   1.000000
    2       15.279136   0.000000
    3       16.216024   0.000000
    4       17.691266   0.000000
    5       18.417439   0.000000
    6       20.760333   0.000000
    7       29.020477   0.000000
    8       29.133105   0.000000
 
  0.2857143E+00  0.1904762E+00  0.0000000E+00  0.2591513E-02
    1       -1.902102   1.000000
    2       13.418048   0.000000
    3       15.888952   0.000000
    4       16.885960   0.000000
    5       18.510598   0.000000
    6       21.141024   0.000000
    7       28.706012   0.000000
    8       29.378703   0.000000
 
  0.3333333E+00  0.1904762E+00  0.0000000E+00  0.2591513E-02
    1       -1.227282   1.000000
    2       11.559020   0.000000
    3       15.675656   0.000000
    4       16.036433   0.000000
    5       18.345739   0.000000
    6       22.220078   0.000000
    7       28.066971   0.000000
    8       29.435337   0.000000
 
  0.3809524E+00  0.1904762E+00  0.0000000E+00  0.2591513E-02
    1       -0.425246   1.000000
    2        9.769135   1.000000
    3       15.208632   0.000000
    4       15.576055   0.000000
    5       18.226927   0.000000
    6       23.554523   0.000000
    7       27.366040   0.000000
    8       29.406895   0.000000
 
  0.4285714E+00  0.1904762E+00  0.0000000E+00  0.2591513E-02
    1        0.501774   1.000000
    2        8.071547   1.000000
    3       14.447627   0.000000
    4       15.590590   0.000000
    5       18.230866   0.000000
    6       24.966255   0.000000
    7       26.699416   0.000000
    8       29.358344   0.000000
 
  0.4761905E+00  0.1904762E+00  0.0000000E+00  0.2591513E-02
    1        1.549806   1.000000
    2        6.479558   1.000000
    3       13.780071   0.000000
    4       15.718422   0.000000
    5       18.364438   0.000000
    6       26.104663   0.000000
    7       26.283850   0.000000
    8       29.404507   0.000000
 
 -0.4761905E+00  0.1904762E+00  0.0000000E+00  0.2591513E-02
    1        2.704688   1.000000
    2        5.011680   1.000000
    3       13.217385   0.000000
    4       15.958381   0.000000
    5       18.625327   0.000000
    6       25.600797   0.000000
    7       27.158223   0.000000
    8       29.845030   0.000000
 
 -0.4285714E+00  0.1904762E+00  0.0000000E+00  0.2591513E-02
    1        3.444216   1.000000
    2        4.192789   1.000000
    3       12.767671   0.000000
    4       16.309623   0.000000
    5       19.012902   0.000000
    6       25.204034   0.000000
    7       27.389395   0.000000
    8       30.784993   0.000000
 
 -0.3809524E+00  0.1904762E+00  0.0000000E+00  0.2591513E-02
    1        2.310388   1.000000
    2        5.480769   1.000000
    3       12.435555   0.000000
    4       16.768330   0.000000
    5       19.522702   0.000000
    6       24.914848   0.000000
    7       27.293548   0.000000
    8       31.176968   0.000000
 
 -0.3333333E+00  0.1904762E+00  0.0000000E+00  0.2591513E-02
    1        1.186990   1.000000
    2        6.989200   1.000000
    3       12.224779   0.000000
    4       17.330714   0.000000
    5       20.149403   0.000000
    6       24.742801   0.000000
    7       27.093415   0.000000
    8       29.498209   0.000000
 
 -0.2857143E+00  0.1904762E+00  0.0000000E+00  0.2591513E-02
    1        0.178411   1.000000
    2        8.605993   1.000000
    3       12.141735   0.000000
    4       17.990183   0.000000
    5       20.886759   0.000000
    6       24.692406   0.000000
    7       26.839871   0.000000
    8       27.873143   0.000000
 
 -0.2380952E+00  0.1904762E+00  0.0000000E+00  0.2591513E-02
    1       -0.707303   1.000000
    2       10.296818   0.035008
    3       12.208596   0.000000
    4       18.731649   0.000000
    5       21.722044   0.000000
    6       24.766425   0.000000
    7       26.343192   0.000000
    8       26.506191   0.000000
 
 -0.1904762E+00  0.1904762E+00  0.0000000E+00  0.1295756E-02
    1       -1.467157   1.000000
    2       11.816915   0.000000
    3       12.658212   0.000000
    4       19.524793   0.000000
    5       22.634457   0.000000
    6       24.884273   0.000000
    7       25.040233   0.000000
    8       26.013745   0.000000
 
  0.2380952E+00  0.2380952E+00  0.0000000E+00  0.6478782E-03
    1       -2.076485   1.000000
    2       15.738483   0.000000
    3       15.738484   0.000000
    4       16.694817   0.000000
    5       17.226671   0.000000
    6       19.798952   0.000000
    7       30.213136   0.000000
    8       30.213136   0.000000
 
  0.2857143E+00  0.2380952E+00  0.0000000E+00  0.2591513E-02
    1       -1.574876   1.000000
    2       14.399974   0.000000
    3       15.372977   0.000000
    4       15.737505   0.000000
    5       17.386470   0.000000
    6       19.599645   0.000000
    7       30.246950   0.000000
    8       30.802926   0.000000
 
  0.3333333E+00  0.2380952E+00  0.0000000E+00  0.2591513E-02
    1       -0.944394   1.000000
    2       12.605028   0.000000
    3       14.763149   0.000000
    4       15.122206   0.000000
    5       17.528748   0.000000
    6       20.311984   0.000000
    7       29.697643   0.000000
    8       31.023429   0.000000
 
  0.3809524E+00  0.2380952E+00  0.0000000E+00  0.2591513E-02
    1       -0.186521   1.000000
    2       10.819757   0.000000
    3       13.840962   0.000000
    4       14.985855   0.000000
    5       17.500771   0.000000
    6       21.556082   0.000000
    7       29.038153   0.000000
    8       31.003356   0.000000
 
  0.4285714E+00  0.2380952E+00  0.0000000E+00  0.2591513E-02
    1        0.696802   1.000000
    2        9.106159   1.000000
    3       13.006861   0.000000
    4       14.963927   0.000000
    5       17.514959   0.000000
    6       23.017376   0.000000
    7       28.378565   0.000000
    8       30.828195   0.000000
 
  0.4761905E+00  0.2380952E+00  0.0000000E+00  0.2591513E-02
    1        1.702376   1.000000
    2        7.487704   1.000000
    3       12.276976   0.000000
    4       15.056307   0.000000
    5       17.632541   0.000000
    6       24.580800   0.000000
    7       27.770555   0.000000
    8       30.562716   0.000000
 
 -0.4761905E+00  0.2380952E+00  0.0000000E+00  0.2591513E-02
    1        2.822239   1.000000
    2        5.980969   1.000000
    3       11.659908   0.000000
    4       15.262169   0.000000
    5       17.868882   0.000000
    6       26.152455   0.000000
    7       27.244685   0.000000
    8       30.280040   0.000000
 
 -0.4285714E+00  0.2380952E+00  0.0000000E+00  0.2591513E-02
    1        3.958427   1.000000
    2        4.687114   1.000000
    3       11.160941   0.000000
    4       15.580558   0.000000
    5       18.226791   0.000000
    6       26.812986   0.000000
    7       27.550585   0.000000
    8       30.116759   0.000000
 
 -0.3809524E+00  0.2380952E+00  0.0000000E+00  0.2591513E-02
    1        3.216954   1.000000
    2        5.500793   1.000000
    3       10.785069   0.000000
    4       16.010084   0.000000
    5       18.706054   0.000000
    6       26.486562   0.000000
    7       28.329884   0.000000
    8       30.367139   0.000000
 
 -0.3333333E+00  0.2380952E+00  0.0000000E+00  0.2591513E-02
    1        2.063326   1.000000
    2        6.949888   1.000000
    3       10.539504   0.000000
    4       16.547726   0.000000
    5       19.303042   0.000000
    6       26.268172   0.000000
    7       28.319265   0.000000
    8       29.492598   0.000000
 
 -0.2857143E+00  0.2380952E+00  0.0000000E+00  0.2591513E-02
    1        1.017442   1.000000
    2        8.487515   1.000000
    3       10.450450   0.000000
    4       17.188874   0.000000
    5       20.013085   0.000000
    6       26.157360   0.000000
    7       27.825699   0.000000
    8       27.944926   0.000000
 
 -0.2380952E+00  0.2380952E+00  0.0000000E+00  0.1295756E-02
    1        0.092670   1.000000
    2        9.846346   1.000000
    3       10.767950   0.000000
    4       17.924332   0.000000
    5       20.825823   0.000000
    6       26.043491   0.000000
    7       26.381550   0.000000
    8       27.335094   0.000000
 