unknown system                          
           1
     2.347395    0.000000    1.355268
     0.782465    2.213145    1.355268
     0.000000    0.000000    2.710538
   Si
     1
Direct configuration=     1
   0.00000000  0.00000000  0.00000000
unknown system                          
           1
     2.369678   -0.000000    1.368133
     0.789893    2.234153    1.368133
    -0.000000   -0.000000    2.736268
   Si
     1
Direct configuration=     2
  -0.00000000  0.00000000 -0.00000000
unknown system                          
           1
     2.366402   -0.000000    1.366242
     0.788801    2.231065    1.366242
    -0.000000   -0.000000    2.732486
   Si
     1
Direct configuration=     3
  -0.00000000  0.00000000 -0.00000000
