    2    2  100    2
  0.1173411E+02  0.2863035E-09  0.2863035E-09  0.2863035E-09  0.5000000E-15
  1.000000000000000E-004
  CAR 
 unknown system                          
     16     20     20
 
  0.0000000E+00  0.0000000E+00  0.0000000E+00  0.4629630E-02
    1       -2.532593     -2.407099   1.000000   1.000000
    2        1.068037      2.824166   1.000000   1.000000
    3        1.068037      2.824324   1.000000   1.000000
    4        3.679403      5.496105   1.000000   1.000948
    5        3.679403      5.496252   1.000000   1.000952
    6        3.679403      5.496264   1.000000   1.000952
    7        4.906509      7.586955   1.000000  -0.000000
    8        4.906510      7.587137   1.000000  -0.000000
    9        6.148944      8.235188   0.033336  -0.000000
   10        6.148945      8.235323   0.033334  -0.000000
   11        6.148945      8.235337   0.033334  -0.000000
   12       16.005995     16.227292   0.000000   0.000000
   13       16.005995     16.227292   0.000000   0.000000
   14       16.005995     16.227296   0.000000   0.000000
   15       21.765344     22.779539   0.000000   0.000000
   16       21.765345     22.779552   0.000000   0.000000
   17       27.024277     28.084288   0.000000   0.000000
   18       31.122410     30.832852   0.000000   0.000000
   19       31.122410     30.832852   0.000000   0.000000
   20       31.122410     30.832852   0.000000   0.000000
 
  0.1666667E+00  0.0000000E+00  0.0000000E+00  0.2777778E-01
    1       -1.959596     -1.829910   1.000000   1.000000
    2        1.309346      3.005143   1.000000   1.000000
    3        1.315228      3.117249   1.000000   1.000000
    4        3.681143      5.478415   1.000000   1.000627
    5        3.681143      5.478573   1.000000   1.000630
    6        3.837941      5.670451   1.000000   1.019763
    7        4.646915      7.250864   1.000000  -0.000000
    8        5.008218      7.664748   1.000000  -0.000000
    9        5.700491      7.664893   1.026649  -0.000000
   10        5.700492      7.711376   1.026649  -0.000000
   11        5.977123      8.042983   0.616462  -0.000000
   12       13.015594     13.659347   0.000000   0.000000
   13       17.063500     17.410962   0.000000   0.000000
   14       17.063500     17.410965   0.000000   0.000000
   15       21.934470     22.898182   0.000000   0.000000
   16       23.523001     24.262048   0.000000   0.000000
   17       28.553921     28.535671   0.000000   0.000000
   18       29.130183     30.077189   0.000000   0.000000
   19       30.358118     30.354264   0.000000   0.000000
   20       30.358119     30.354269   0.000000   0.000000
 
  0.3333333E+00  0.0000000E+00  0.0000000E+00  0.2777778E-01
    1       -0.416311     -0.234942   1.000000   1.000000
    2        1.714962      3.051484   1.000000   1.000000
    3        2.000915      3.939189   1.000000   1.000000
    4        3.774652      5.535752   1.000000   1.002241
    5        3.774652      5.535905   1.000000   1.002248
    6        3.932890      6.153130   1.000000   0.026642
    7        4.276199      6.335350   1.000000  -0.020681
    8        4.832686      6.645826   1.000000  -0.000028
    9        4.832687      6.645971   1.000000  -0.000028
   10        5.311871      7.523040   1.000005  -0.000000
   11        5.511497      8.006981   1.001339  -0.000000
   12        8.939935     10.252768  -0.000000  -0.000000
   13       19.717557     20.224960   0.000000   0.000000
   14       19.717558     20.224963   0.000000   0.000000
   15       22.502719     23.316236   0.000000   0.000000
   16       24.615550     25.180366   0.000000   0.000000
   17       25.616375     25.896441   0.000000   0.000000
   18       27.137413     27.598984   0.000000   0.000000
   19       27.137414     27.598991   0.000000   0.000000
   20       28.931030     29.307841   0.000000   0.000000
 
  0.5000000E+00 -0.1232595E-31  0.0000000E+00  0.1388889E-01
    1        1.281718      1.825683   1.000000   1.000000
    2        1.281718      1.825683   1.000000   1.000000
    3        2.959356      5.112577   1.000000   1.000000
    4        2.959356      5.112577   1.000000   1.000000
    5        4.131557      5.884453   1.000000   0.921111
    6        4.131557      5.884453   1.000000   0.921111
    7        4.131558      5.884601   1.000000   0.920780
    8        4.131558      5.884601   1.000000   0.920780
    9        4.887159      6.829009   1.000000  -0.000000
   10        4.887159      6.829009   1.000000  -0.000000
   11        6.233833      8.527774  -0.034352  -0.000000
   12        6.233833      8.527774  -0.034352  -0.000000
   13       23.246135     23.809364   0.000000   0.000000
   14       23.246135     23.809364   0.000000   0.000000
   15       23.246136     23.809366   0.000000   0.000000
   16       23.246136     23.809366   0.000000   0.000000
   17       23.648257     24.221664   0.000000   0.000000
   18       23.648257     24.221664   0.000000   0.000000
   19       26.098583     26.510187   0.000000   0.000000
   20       26.098583     26.510187   0.000000   0.000000
 
  0.1666667E+00  0.1666667E+00  0.0000000E+00  0.5555556E-01
    1       -1.419737     -1.279523   1.000000   1.000000
    2        1.486782      3.251089   1.000000   1.000000
    3        1.592261      3.303191   1.000000   1.000000
    4        3.387095      5.147483   1.000000   1.000000
    5        3.601636      5.376795   1.000000   1.000042
    6        4.280504      6.150378   1.000000   0.030995
    7        4.719416      6.861251   1.000000  -0.000000
    8        4.935875      7.163144   1.000000  -0.000000
    9        4.998060      7.299826   1.000000  -0.000000
   10        5.283459      7.621440   1.000002  -0.000000
   11        6.217593      8.311600  -0.030507  -0.000000
   12       13.174367     13.913552   0.000000   0.000000
   13       14.609396     15.346871   0.000000   0.000000
   14       17.967452     18.372870   0.000000   0.000000
   15       22.797376     23.589084   0.000000   0.000000
   16       25.667683     26.178573   0.000000   0.000000
   17       25.858865     26.180368   0.000000   0.000000
   18       29.191512     29.180586   0.000000   0.000000
   19       30.441221     30.552672   0.000000   0.000000
   20       30.543255     31.377971   0.000000   0.000000
 
  0.3333333E+00  0.1666667E+00  0.0000000E+00  0.1111111E+00
    1       -0.022344      0.213705   1.000000   1.000000
    2        1.780328      3.218149   1.000000   1.000000
    3        2.242451      4.007957   1.000000   1.000000
    4        3.261783      4.980110   1.000000   1.000000
    5        3.476397      5.216024   1.000000   1.000000
    6        4.107552      5.860799   1.000000   0.966898
    7        4.490190      6.563809   1.000000  -0.000282
    8        4.650913      6.819852   1.000000  -0.000000
    9        4.891410      6.845864   1.000000  -0.000000
   10        5.212694      7.899771   1.000000  -0.000000
   11        6.040345      8.105089   0.352770  -0.000000
   12        9.443268     10.706017  -0.000000  -0.000000
   13       16.209878     17.043298   0.000000   0.000000
   14       20.372013     20.875674   0.000000   0.000000
   15       22.138102     22.721986   0.000000   0.000000
   16       23.424581     24.036650   0.000000   0.000000
   17       26.800690     26.974877   0.000000   0.000000
   18       27.646930     28.129536   0.000000   0.000000
   19       27.929219     28.325817   0.000000   0.000000
   20       32.849513     33.242485   0.000000   0.000000
 
  0.5000000E+00  0.1666667E+00  0.0000000E+00  0.5555556E-01
    1        1.374174      2.065425   1.000000   1.000000
    2        1.374174      2.065425   1.000000   1.000000
    3        2.985569      4.819892   1.000000   1.000000
    4        2.985569      4.819892   1.000000   1.000000
    5        3.485951      5.193911   1.000000   1.000000
    6        3.485951      5.193911   1.000000   1.000000
    7        4.479886      6.517604   1.000000  -0.000869
    8        4.479886      6.517604   1.000000  -0.000869
    9        5.527881      7.525710   1.001903  -0.000000
   10        5.527881      7.525710   1.001903  -0.000000
   11        6.388313      8.559296  -0.010361  -0.000000
   12        6.388313      8.559296  -0.010361  -0.000000
   13       18.903548     19.667980   0.000000   0.000000
   14       18.903548     19.667980   0.000000   0.000000
   15       23.743468     24.296431   0.000000   0.000000
   16       23.743468     24.296431   0.000000   0.000000
   17       24.648357     25.027632   0.000000   0.000000
   18       24.648357     25.027632   0.000000   0.000000
   19       30.052137     30.410010   0.000000   0.000000
   20       30.052137     30.410010   0.000000   0.000000
 
  0.3333333E+00  0.3333333E+00  0.0000000E+00  0.5555556E-01
    1        0.707435      1.273770   1.000000   1.000000
    2        1.532868      2.934633   1.000000   1.000000
    3        2.834798      4.497563   1.000000   1.000000
    4        3.141092      4.733067   1.000000   1.000000
    5        3.277853      4.952508   1.000000   1.000000
    6        4.007376      5.223555   1.000000   1.000000
    7        4.602290      6.770690   1.000000  -0.000000
    8        4.901113      7.313233   1.000000  -0.000000
    9        5.033192      7.651517   1.000000  -0.000000
   10        5.638337      7.750967   1.013194  -0.000000
   11        6.355770      8.465398  -0.016255  -0.000000
   12        9.283227     10.428053  -0.000000  -0.000000
   13       13.642200     14.828102   0.000000   0.000000
   14       18.156214     18.969233   0.000000   0.000000
   15       22.251970     22.760489   0.000000   0.000000
   16       23.779438     24.170278   0.000000   0.000000
   17       25.802700     25.855129   0.000000   0.000000
   18       28.308465     28.930498   0.000000   0.000000
   19       29.887615     30.217198   0.000000   0.000000
   20       32.971894     33.131305   0.000000   0.000000
 
  0.5000000E+00  0.3333333E+00  0.0000000E+00  0.5555556E-01
    1        1.162835      2.252177   1.000000   1.000000
    2        1.162835      2.252177   1.000000   1.000000
    3        2.820665      4.464641   1.000000   1.000000
    4        2.820665      4.464641   1.000000   1.000000
    5        4.033241      5.442615   1.000000   1.000257
    6        4.033241      5.442615   1.000000   1.000257
    7        4.864695      7.199096   1.000000  -0.000000
    8        4.864695      7.199096   1.000000  -0.000000
    9        6.182972      8.266236  -0.009654  -0.000000
   10        6.182972      8.266236  -0.009654  -0.000000
   11        6.622951      8.425921  -0.000056  -0.000000
   12        6.622951      8.425921  -0.000056  -0.000000
   13       15.088358     16.146267   0.000000   0.000000
   14       15.088358     16.146267   0.000000   0.000000
   15       24.540755     24.688565   0.000000   0.000000
   16       24.540755     24.688565   0.000000   0.000000
   17       25.121032     25.651495   0.000000   0.000000
   18       25.121032     25.651495   0.000000   0.000000
   19       31.764518     32.187220   0.000000   0.000000
   20       31.764518     32.187220   0.000000   0.000000
 
  0.5000000E+00  0.5000000E+00  0.0000000E+00  0.1388889E-01
    1        1.002322      2.213322   1.000000   1.000000
    2        1.002322      2.213322   1.000000   1.000000
    3        2.572785      4.192946   1.000000   1.000000
    4        2.572785      4.192946   1.000000   1.000000
    5        4.980203      6.559829   1.000000  -0.000312
    6        4.980203      6.559829   1.000000  -0.000312
    7        5.102350      7.438526   1.000000  -0.000000
    8        5.102350      7.438526   1.000000  -0.000000
    9        6.425450      7.849201  -0.005661  -0.000000
   10        6.425450      7.849201  -0.005661  -0.000000
   11        6.492467      8.542946  -0.001523  -0.000000
   12        6.492467      8.542946  -0.001523  -0.000000
   13       13.463181     14.764195   0.000000   0.000000
   14       13.463181     14.764195   0.000000   0.000000
   15       24.446175     24.460493   0.000000   0.000000
   16       24.446175     24.460493   0.000000   0.000000
   17       26.405131     26.926052   0.000000   0.000000
   18       26.405131     26.926052   0.000000   0.000000
   19       29.671747     30.105396   0.000000   0.000000
   20       29.671747     30.105396   0.000000   0.000000
 
  0.1666667E+00  0.1666667E+00  0.1666667E+00  0.3703704E-01
    1       -0.898058     -0.746783   1.000000   1.000000
    2        1.761883      3.493652   1.000000   1.000000
    3        1.761884      3.493796   1.000000   1.000000
    4        3.292645      5.035056   1.000000   1.000000
    5        3.292645      5.035159   1.000000   1.000000
    6        4.170438      5.863011   1.000000   0.963200
    7        4.763582      6.645895   1.000000  -0.000028
    8        4.843405      7.471597   1.000000  -0.000000
    9        4.843406      7.471775   1.000000  -0.000000
   10        5.775176      7.791167   1.034475  -0.000000
   11        5.775176      7.791265   1.034475  -0.000000
   12       14.076390     14.905181   0.000000   0.000000
   13       14.076390     14.905208   0.000000   0.000000
   14       15.777553     16.439444   0.000000   0.000000
   15       25.693053     25.991154   0.000000   0.000000
   16       25.693053     25.991157   0.000000   0.000000
   17       26.040945     26.514198   0.000000   0.000000
   18       26.040945     26.514203   0.000000   0.000000
   19       29.153011     29.919373   0.000000   0.000000
   20       31.245323     32.147473   0.000000   0.000000
 
  0.3333333E+00  0.1666667E+00  0.1666667E+00  0.1111111E+00
    1        0.408291      0.674226   1.000000   1.000000
    2        2.135775      3.520278   1.000000   1.000000
    3        2.199717      3.968692   1.000000   1.000000
    4        3.061633      4.783795   1.000000   1.000000
    5        3.177851      4.818632   1.000000   1.000000
    6        3.485607      5.168673   1.000000   1.000000
    7        4.633655      7.022561   1.000000  -0.000000
    8        5.017146      7.087427   1.000000  -0.000000
    9        5.112081      7.422149   1.000000  -0.000000
   10        5.582586      7.849753   1.005480  -0.000000
   11        5.815683      7.910090   1.018619  -0.000000
   12       10.135846     11.391464  -0.000000  -0.000000
   13       16.195530     17.072941   0.000000   0.000000
   14       17.143340     17.829430   0.000000   0.000000
   15       22.017242     22.570323   0.000000   0.000000
   16       23.051410     23.555186   0.000000   0.000000
   17       27.214732     27.593192   0.000000   0.000000
   18       28.271136     28.810811   0.000000   0.000000
   19       28.557149     28.918877   0.000000   0.000000
   20       31.805701     31.827653   0.000000   0.000000
 
  0.5000000E+00  0.1666667E+00  0.1666667E+00  0.5555556E-01
    1        1.627025      2.374995   1.000000   1.000000
    2        1.627025      2.374995   1.000000   1.000000
    3        2.700995      4.455572   1.000000   1.000000
    4        2.700995      4.455572   1.000000   1.000000
    5        3.440672      5.019243   1.000000   1.000000
    6        3.440672      5.019243   1.000000   1.000000
    7        4.590507      6.779371   1.000000  -0.000000
    8        4.590507      6.779371   1.000000  -0.000000
    9        5.450578      7.766557   1.000316  -0.000000
   10        5.450578      7.766557   1.000316  -0.000000
   11        7.073390      8.938289  -0.000000  -0.000000
   12        7.073390      8.938289  -0.000000  -0.000000
   13       18.885292     19.657183   0.000000   0.000000
   14       18.885292     19.657183   0.000000   0.000000
   15       19.686067     20.306591   0.000000   0.000000
   16       19.686067     20.306591   0.000000   0.000000
   17       29.000313     29.390735   0.000000   0.000000
   18       29.000313     29.390735   0.000000   0.000000
   19       29.247205     29.501143   0.000000   0.000000
   20       29.247205     29.501143   0.000000   0.000000
 
  0.3333333E+00  0.3333333E+00  0.1666667E+00  0.1111111E+00
    1        1.186028      1.750280   1.000000   1.000000
    2        1.887547      3.298662   1.000000   1.000000
    3        2.749199      4.372656   1.000000   1.000000
    4        2.912236      4.534301   1.000000   1.000000
    5        3.069520      4.591249   1.000000   1.000000
    6        3.331847      4.702303   1.000000   1.000000
    7        4.906085      7.146105   1.000000  -0.000000
    8        4.913944      7.426006   1.000000  -0.000000
    9        5.040795      7.746909   1.000000  -0.000000
   10        5.788897      7.975862   1.031575  -0.000000
   11        6.601870      8.421774  -0.000102  -0.000000
   12       10.466741     11.609105  -0.000000   0.000000
   13       13.727130     14.853596   0.000000   0.000000
   14       18.148574     18.810562   0.000000   0.000000
   15       18.465269     19.217232   0.000000   0.000000
   16       22.959748     23.318385   0.000000   0.000000
   17       24.779889     25.412122   0.000000   0.000000
   18       27.674101     27.993053   0.000000   0.000000
   19       31.026911     31.429323   0.000000   0.000000
   20       33.204181     33.203151   0.000000   0.000000
 
  0.5000000E+00  0.3333333E+00  0.1666667E+00  0.1111111E+00
    1        1.544898      2.662687   1.000000   1.000000
    2        1.544898      2.662687   1.000000   1.000000
    3        2.686767      4.281649   1.000000   1.000000
    4        2.686767      4.281649   1.000000   1.000000
    5        3.738245      4.992431   1.000000   1.000000
    6        3.738245      4.992431   1.000000   1.000000
    7        4.911292      7.321385   1.000000  -0.000000
    8        4.911292      7.321385   1.000000  -0.000000
    9        5.400580      7.894635   1.000083  -0.000000
   10        5.400580      7.894635   1.000083  -0.000000
   11        8.152246      9.680392  -0.000000  -0.000000
   12        8.152246      9.680392  -0.000000  -0.000000
   13       15.330263     16.310321   0.000000   0.000000
   14       15.330263     16.310321   0.000000   0.000000
   15       20.431711     20.969477   0.000000   0.000000
   16       20.431711     20.969477   0.000000   0.000000
   17       25.770660     26.193001   0.000000   0.000000
   18       25.770660     26.193001   0.000000   0.000000
   19       31.902987     32.116665   0.000000   0.000000
   20       31.902987     32.116665   0.000000   0.000000
 
  0.5000000E+00  0.5000000E+00  0.1666667E+00  0.2777778E-01
    1        1.385639      2.621428   1.000000   1.000000
    2        1.385639      2.621428   1.000000   1.000000
    3        2.526499      4.097853   1.000000   1.000000
    4        2.526499      4.097853   1.000000   1.000000
    5        4.656263      5.604529   1.000000   1.007941
    6        4.656263      5.604529   1.000000   1.007941
    7        5.027389      7.537027   1.000000  -0.000000
    8        5.027389      7.537027   1.000000  -0.000000
    9        5.111552      7.861346   1.000000  -0.000000
   10        5.111552      7.861346   1.000000  -0.000000
   11        8.776294     10.008153  -0.000000  -0.000000
   12        8.776294     10.008153  -0.000000  -0.000000
   13       13.552402     14.780605   0.000000   0.000000
   14       13.552402     14.780605   0.000000   0.000000
   15       21.908788     22.244149   0.000000   0.000000
   16       21.908788     22.244149   0.000000   0.000000
   17       23.320410     23.890371   0.000000   0.000000
   18       23.320410     23.890371   0.000000   0.000000
   19       32.856101     32.989800   0.000000   0.000000
   20       32.856101     32.989800   0.000000   0.000000
 
  0.3333333E+00  0.3333333E+00  0.3333333E+00  0.3703704E-01
    1        2.269517      2.853494   1.000000   1.000000
    2        2.272589      3.708928   1.000000   1.000000
    3        2.612039      4.144142   1.000000   1.000000
    4        2.612039      4.144238   1.000000   1.000000
    5        2.847087      4.275855   1.000000   1.000000
    6        2.847087      4.275946   1.000000   1.000000
    7        5.042808      7.636100   1.000000  -0.000000
    8        5.042809      7.636252   1.000000  -0.000000
    9        5.220813      7.707459   1.000000  -0.000000
   10        5.220813      7.707637   1.000000  -0.000000
   11        8.113780      9.735686  -0.000000  -0.000000
   12       12.860602     13.875360   0.000000   0.000000
   13       12.860603     13.875393   0.000000   0.000000
   14       15.573069     16.417529   0.000000   0.000000
   15       19.208485     19.825992   0.000000   0.000000
   16       19.208485     19.825997   0.000000   0.000000
   17       20.782804     21.436652   0.000000   0.000000
   18       25.251302     25.735165   0.000000   0.000000
   19       34.622970     34.712234   0.000000   0.000000
   20       34.622970     34.712239   0.000000   0.000000
 
  0.5000000E+00  0.3333333E+00  0.3333333E+00  0.5555556E-01
    1        2.162864      3.423102   1.000000   1.000000
    2        2.162864      3.423102   1.000000   1.000000
    3        2.629041      4.074537   1.000000   1.000000
    4        2.629041      4.074537   1.000000   1.000000
    5        3.196977      4.401417   1.000000   1.000000
    6        3.196977      4.401417   1.000000   1.000000
    7        5.053019      7.630434   1.000000  -0.000000
    8        5.053019      7.630434   1.000000  -0.000000
    9        5.180610      7.846750   1.000000  -0.000000
   10        5.180610      7.846750   1.000000  -0.000000
   11       10.096299     11.381421  -0.000000  -0.000000
   12       10.096299     11.381421  -0.000000  -0.000000
   13       15.812222     16.643932   0.000000   0.000000
   14       15.812222     16.643932   0.000000   0.000000
   15       16.967372     17.689378   0.000000   0.000000
   16       16.967372     17.689378   0.000000   0.000000
   17       22.030269     22.561945   0.000000   0.000000
   18       22.030269     22.561945   0.000000   0.000000
   19       36.519124     36.491062   0.000000   0.000000
   20       36.519124     36.491062   0.000000   0.000000
 
  0.5000000E+00  0.5000000E+00  0.3333333E+00  0.2777778E-01
    1        2.239660      3.526706   1.000000   1.000000
    2        2.239660      3.526706   1.000000   1.000000
    3        2.499044      3.951163   1.000000   1.000000
    4        2.499044      3.951163   1.000000   1.000000
    5        3.414660      4.571605   1.000000   1.000000
    6        3.414660      4.571605   1.000000   1.000000
    7        5.110316      7.762068   1.000000  -0.000000
    8        5.110316      7.762068   1.000000  -0.000000
    9        5.129813      7.885531   1.000000  -0.000000
   10        5.129813      7.885531   1.000000  -0.000000
   11       11.546428     12.555119   0.000000   0.000000
   12       11.546428     12.555119   0.000000   0.000000
   13       13.991355     15.012826   0.000000   0.000000
   14       13.991355     15.012826   0.000000   0.000000
   15       18.214038     18.833407   0.000000   0.000000
   16       18.214038     18.833407   0.000000   0.000000
   17       19.200305     19.814226   0.000000   0.000000
   18       19.200305     19.814226   0.000000   0.000000
   19       38.534969     38.448833   0.000000   0.000000
   20       38.534969     38.448833   0.000000   0.000000
 
  0.5000000E+00  0.5000000E+00  0.5000000E+00  0.4629630E-02
    1        2.727365      4.035798   1.000000   1.000000
    2        2.727365      4.035798   1.000000   1.000000
    3        2.727365      4.035910   1.000000   1.000000
    4        2.727365      4.035910   1.000000   1.000000
    5        2.727365      4.035918   1.000000   1.000000
    6        2.727365      4.035918   1.000000   1.000000
    7        5.138839      7.897219   1.000000  -0.000000
    8        5.138839      7.897219   1.000000  -0.000000
    9        5.138840      7.897403   1.000000  -0.000000
   10        5.138840      7.897403   1.000000  -0.000000
   11       14.712427     15.540820   0.000000   0.000000
   12       14.712427     15.540820   0.000000   0.000000
   13       14.712428     15.540843   0.000000   0.000000
   14       14.712428     15.540843   0.000000   0.000000
   15       14.712428     15.540846   0.000000   0.000000
   16       14.712428     15.540846   0.000000   0.000000
   17       16.985338     17.672787   0.000000   0.000000
   18       16.985338     17.672787   0.000000   0.000000
   19       45.223205     44.958628   0.000000   0.000000
   20       45.223205     44.958628   0.000000   0.000000
