       N       E                     dE             d eps       ncg     rms          rms(c)
DAV:   1     0.640390006253E+02    0.64039E+02   -0.61900E+03  1784   0.821E+02
DAV:   2    -0.135907022933E+02   -0.77630E+02   -0.69680E+02  1624   0.167E+02
DAV:   3    -0.160830162157E+02   -0.24923E+01   -0.24610E+01  1808   0.388E+01
DAV:   4    -0.161010954962E+02   -0.18079E-01   -0.18076E-01  1764   0.310E+00
DAV:   5    -0.161013206069E+02   -0.22511E-03   -0.22510E-03  1796   0.329E-01    0.193E+01
DAV:   6    -0.165633292750E+02   -0.46201E+00   -0.50270E+00  1764   0.432E+01    0.573E+00
DAV:   7    -0.165065305210E+02    0.56799E-01   -0.33306E-01  1896   0.890E+00    0.419E+00
DAV:   8    -0.164932637988E+02    0.13267E-01   -0.91240E-03  1964   0.917E-01    0.157E+00
DAV:   9    -0.164832489146E+02    0.10015E-01   -0.27445E-03  2340   0.927E-01    0.323E-01
DAV:  10    -0.164829159823E+02    0.33293E-03   -0.87045E-04  1820   0.356E-01    0.951E-02
DAV:  11    -0.164829610075E+02   -0.45025E-04   -0.77955E-05  1900   0.743E-02    0.548E-02
DAV:  12    -0.164829440232E+02    0.16984E-04   -0.49552E-06  1956   0.256E-02    0.143E-02
DAV:  13    -0.164829447754E+02   -0.75219E-06   -0.15977E-06  1640   0.114E-02
   1 F= -.16482945E+02 E0= -.16482092E+02  d E =-.164829E+02  mag=     4.3878
       N       E                     dE             d eps       ncg     rms          rms(c)
DAV:   1    -0.174104502744E+02   -0.92751E+00   -0.86236E+00  1728   0.486E+01    0.927E+00
DAV:   2    -0.165548286301E+02    0.85562E+00   -0.15522E+00  1716   0.282E+01    0.732E+00
DAV:   3    -0.165094040876E+02    0.45425E-01   -0.11135E-01  1848   0.610E+00    0.261E+00
DAV:   4    -0.165004548789E+02    0.89492E-02   -0.70170E-03  2016   0.101E+00    0.605E-01
DAV:   5    -0.164933274658E+02    0.71274E-02   -0.51686E-03  1828   0.629E-01    0.114E-01
DAV:   6    -0.164934704435E+02   -0.14298E-03   -0.29099E-04  1700   0.137E-01    0.575E-02
DAV:   7    -0.164934845142E+02   -0.14071E-04   -0.22650E-05  1636   0.499E-02    0.299E-02
DAV:   8    -0.164934812417E+02    0.32725E-05   -0.11536E-06  1352   0.150E-02    0.115E-02
DAV:   9    -0.164934791499E+02    0.20918E-05   -0.44607E-07   848   0.110E-02    0.378E-03
DAV:  10    -0.164934793403E+02   -0.19043E-06   -0.13020E-07   824   0.361E-03
   2 F= -.16493479E+02 E0= -.16495372E+02  d E =-.105346E-01  mag=     4.1146
       N       E                     dE             d eps       ncg     rms          rms(c)
DAV:   1    -0.166546464760E+02   -0.16117E+00   -0.14850E+00  1716   0.213E+01    0.361E+00
DAV:   2    -0.165200695503E+02    0.13458E+00   -0.30198E-01  1744   0.116E+01    0.310E+00
DAV:   3    -0.165111525750E+02    0.89170E-02   -0.16233E-02  1860   0.246E+00    0.108E+00
DAV:   4    -0.165094588762E+02    0.16937E-02   -0.14188E-03  2004   0.466E-01    0.303E-01
DAV:   5    -0.165081365952E+02    0.13223E-02   -0.99887E-04  1776   0.286E-01    0.488E-02
DAV:   6    -0.165081580774E+02   -0.21482E-04   -0.42525E-05  1720   0.606E-02    0.210E-02
DAV:   7    -0.165081629950E+02   -0.49176E-05   -0.18233E-06  1604   0.145E-02    0.121E-02
DAV:   8    -0.165081656796E+02   -0.26846E-05   -0.57451E-07   972   0.940E-03    0.308E-03
DAV:   9    -0.165081658560E+02   -0.17636E-06   -0.10540E-07   800   0.336E-03
   3 F= -.16508166E+02 E0= -.16509659E+02  d E =-.252211E-01  mag=     4.1797
