   1   1   0   0
  0.1408159E+02  0.2710538E-09  0.2710538E-09  0.2710538E-09  0.5000000E-15
  1.000000000000000E-004
  CAR 
 unknown system                          
     38.27422260     -6.30146991  301     10.17363274      1.00000000
     -6.301  0.0000E+00  0.0000E+00
     -6.153  0.0000E+00  0.0000E+00
     -6.004  0.0000E+00  0.0000E+00
     -5.856  0.0000E+00  0.0000E+00
     -5.707  0.0000E+00  0.0000E+00
     -5.559  0.0000E+00  0.0000E+00
     -5.410  0.0000E+00  0.0000E+00
     -5.261  0.0000E+00  0.0000E+00
     -5.113  0.0000E+00  0.0000E+00
     -4.964  0.0000E+00  0.0000E+00
     -4.816  0.0000E+00  0.0000E+00
     -4.667  0.0000E+00  0.0000E+00
     -4.518  0.1219E-15  0.1811E-16
     -4.370  0.1493E-06  0.2218E-07
     -4.221  0.4249E-04  0.6335E-05
     -4.073  0.5016E-03  0.8086E-04
     -3.924  0.3241E-03  0.1290E-03
     -3.776  0.1031E-02  0.2822E-03
     -3.627  0.4814E-03  0.3538E-03
     -3.478  0.4904E-03  0.4266E-03
     -3.330  0.1632E-02  0.6691E-03
     -3.181  0.9472E-03  0.8098E-03
     -3.033  0.1274E-02  0.9990E-03
     -2.884  0.3239E-03  0.1047E-02
     -2.735  0.2204E-02  0.1375E-02
     -2.587  0.1242E-02  0.1559E-02
     -2.438  0.1188E-02  0.1736E-02
     -2.290  0.1520E-02  0.1961E-02
     -2.141  0.4067E-03  0.2022E-02
     -1.992  0.2688E-02  0.2421E-02
     -1.844  0.1562E-02  0.2653E-02
     -1.695  0.3037E-02  0.3105E-02
     -1.547  0.3511E-03  0.3157E-02
     -1.398  0.9059E-03  0.3291E-02
     -1.250  0.2188E-02  0.3617E-02
     -1.101  0.1652E-02  0.3862E-02
     -0.952  0.2890E-02  0.4291E-02
     -0.804  0.9055E-03  0.4426E-02
     -0.655  0.4255E-02  0.5058E-02
     -0.507  0.1125E-02  0.5225E-02
     -0.358  0.1832E-02  0.5498E-02
     -0.209  0.6548E-03  0.5595E-02
     -0.061  0.1751E-02  0.5855E-02
      0.088  0.3169E-02  0.6326E-02
      0.236  0.2900E-02  0.6757E-02
      0.385  0.3960E-02  0.7345E-02
      0.533  0.1442E-03  0.7367E-02
      0.682  0.3473E-02  0.7883E-02
      0.831  0.1965E-02  0.8175E-02
      0.979  0.2464E-02  0.8541E-02
      1.128  0.7410E-03  0.8651E-02
      1.276  0.1482E-02  0.8871E-02
      1.425  0.5659E-02  0.9712E-02
      1.574  0.1954E-02  0.1000E-01
      1.722  0.4483E-02  0.1067E-01
      1.871  0.1240E-02  0.1085E-01
      2.019  0.2703E-02  0.1125E-01
      2.168  0.1855E-02  0.1153E-01
      2.316  0.4560E-02  0.1221E-01
      2.465  0.1059E-02  0.1236E-01
      2.614  0.2032E-02  0.1267E-01
      2.762  0.3635E-02  0.1321E-01
      2.911  0.2762E-02  0.1362E-01
      3.059  0.4889E-02  0.1434E-01
      3.208  0.1117E-02  0.1451E-01
      3.357  0.6013E-02  0.1540E-01
      3.505  0.2281E-02  0.1574E-01
      3.654  0.1843E-02  0.1602E-01
      3.802  0.7999E-03  0.1613E-01
      3.951  0.2985E-02  0.1658E-01
      4.100  0.2441E-02  0.1694E-01
      4.248  0.4732E-02  0.1764E-01
      4.397  0.5644E-02  0.1848E-01
      4.545  0.1130E-02  0.1865E-01
      4.694  0.3144E-02  0.1912E-01
      4.842  0.4191E-02  0.1974E-01
      4.991  0.4527E-02  0.2041E-01
      5.140  0.1818E-02  0.2068E-01
      5.288  0.3701E-02  0.2123E-01
      5.437  0.4897E-02  0.2196E-01
      5.585  0.2795E-02  0.2238E-01
      5.734  0.1378E-02  0.2258E-01
      5.883  0.1457E-02  0.2280E-01
      6.031  0.4690E-02  0.2349E-01
      6.180  0.4625E-02  0.2418E-01
      6.328  0.5434E-02  0.2499E-01
      6.477  0.2539E-02  0.2537E-01
      6.625  0.2038E-02  0.2567E-01
      6.774  0.4930E-02  0.2640E-01
      6.923  0.4976E-02  0.2714E-01
      7.071  0.3069E-02  0.2760E-01
      7.220  0.2335E-02  0.2794E-01
      7.368  0.7172E-02  0.2901E-01
      7.517  0.1385E-02  0.2922E-01
      7.666  0.1411E-02  0.2942E-01
      7.814  0.1507E-02  0.2965E-01
      7.963  0.4238E-02  0.3028E-01
      8.111  0.5137E-02  0.3104E-01
      8.260  0.8848E-02  0.3236E-01
      8.409  0.4791E-02  0.3307E-01
      8.557  0.1790E-02  0.3333E-01
      8.706  0.2406E-02  0.3369E-01
      8.854  0.5878E-02  0.3457E-01
      9.003  0.2302E-02  0.3491E-01
      9.151  0.2100E-02  0.3522E-01
      9.300  0.5425E-02  0.3603E-01
      9.449  0.4773E-02  0.3673E-01
      9.597  0.5058E-02  0.3749E-01
      9.746  0.9504E-03  0.3763E-01
      9.894  0.6078E-02  0.3853E-01
     10.043  0.3861E-02  0.3910E-01
     10.192  0.6850E-02  0.4012E-01
     10.340  0.4318E-02  0.4076E-01
     10.489  0.2796E-02  0.4118E-01
     10.637  0.1070E-02  0.4134E-01
     10.786  0.7297E-02  0.4242E-01
     10.934  0.6371E-02  0.4337E-01
     11.083  0.3055E-02  0.4382E-01
     11.232  0.5295E-02  0.4461E-01
     11.380  0.5590E-02  0.4544E-01
     11.529  0.2928E-02  0.4588E-01
     11.677  0.1547E-02  0.4611E-01
     11.826  0.5557E-02  0.4693E-01
     11.975  0.2780E-02  0.4734E-01
     12.123  0.8467E-02  0.4860E-01
     12.272  0.5422E-02  0.4941E-01
     12.420  0.5909E-02  0.5029E-01
     12.569  0.4774E-02  0.5099E-01
     12.717  0.3086E-02  0.5145E-01
     12.866  0.4758E-02  0.5216E-01
     13.015  0.4625E-02  0.5285E-01
     13.163  0.7625E-02  0.5398E-01
     13.312  0.6187E-02  0.5490E-01
     13.460  0.3612E-02  0.5544E-01
     13.609  0.4688E-02  0.5613E-01
     13.758  0.5191E-02  0.5690E-01
     13.906  0.6261E-02  0.5783E-01
     14.055  0.6344E-02  0.5878E-01
     14.203  0.3654E-02  0.5932E-01
     14.352  0.5983E-02  0.6021E-01
     14.501  0.4690E-02  0.6091E-01
     14.649  0.8070E-02  0.6211E-01
     14.798  0.4252E-02  0.6274E-01
     14.946  0.3885E-02  0.6331E-01
     15.095  0.5771E-02  0.6417E-01
     15.243  0.1116E-02  0.6434E-01
     15.392  0.3495E-02  0.6486E-01
     15.541  0.6548E-02  0.6583E-01
     15.689  0.5170E-02  0.6660E-01
     15.838  0.8375E-02  0.6784E-01
     15.986  0.3741E-02  0.6840E-01
     16.135  0.5361E-02  0.6919E-01
     16.284  0.2254E-02  0.6953E-01
     16.432  0.5549E-02  0.7035E-01
     16.581  0.3363E-02  0.7085E-01
     16.729  0.3837E-02  0.7142E-01
     16.878  0.4926E-02  0.7216E-01
     17.026  0.6797E-02  0.7317E-01
     17.175  0.5043E-02  0.7392E-01
     17.324  0.3120E-02  0.7438E-01
     17.472  0.4071E-02  0.7498E-01
     17.621  0.7133E-02  0.7604E-01
     17.769  0.4420E-02  0.7670E-01
     17.918  0.3235E-02  0.7718E-01
     18.067  0.4787E-02  0.7789E-01
     18.215  0.9588E-02  0.7932E-01
     18.364  0.7225E-02  0.8039E-01
     18.512  0.3531E-02  0.8092E-01
     18.661  0.3275E-02  0.8140E-01
     18.810  0.6781E-02  0.8241E-01
     18.958  0.4190E-02  0.8303E-01
     19.107  0.4074E-02  0.8364E-01
     19.255  0.7502E-02  0.8475E-01
     19.404  0.8023E-02  0.8594E-01
     19.552  0.1555E-02  0.8617E-01
     19.701  0.3396E-02  0.8668E-01
     19.850  0.3092E-02  0.8714E-01
     19.998  0.7356E-02  0.8823E-01
     20.147  0.7408E-02  0.8933E-01
     20.295  0.7835E-02  0.9050E-01
     20.444  0.6231E-02  0.9142E-01
     20.593  0.5294E-02  0.9221E-01
     20.741  0.5122E-02  0.9297E-01
     20.890  0.2592E-02  0.9336E-01
     21.038  0.1097E-01  0.9499E-01
     21.187  0.6508E-02  0.9595E-01
     21.335  0.5755E-02  0.9681E-01
     21.484  0.6374E-02  0.9775E-01
     21.633  0.2913E-02  0.9819E-01
     21.781  0.9137E-02  0.9955E-01
     21.930  0.5963E-02  0.1004E+00
     22.078  0.2752E-02  0.1008E+00
     22.227  0.3397E-02  0.1013E+00
     22.376  0.5611E-02  0.1022E+00
     22.524  0.6381E-02  0.1031E+00
     22.673  0.5880E-02  0.1040E+00
     22.821  0.3901E-02  0.1046E+00
     22.970  0.4701E-02  0.1053E+00
     23.118  0.8889E-02  0.1066E+00
     23.267  0.7433E-02  0.1077E+00
     23.416  0.1083E-01  0.1093E+00
     23.564  0.7061E-02  0.1104E+00
     23.713  0.8831E-02  0.1117E+00
     23.861  0.2260E-02  0.1120E+00
     24.010  0.4888E-02  0.1127E+00
     24.159  0.5884E-02  0.1136E+00
     24.307  0.3502E-02  0.1141E+00
     24.456  0.9491E-02  0.1155E+00
     24.604  0.5801E-02  0.1164E+00
     24.753  0.4340E-02  0.1170E+00
     24.902  0.4949E-02  0.1178E+00
     25.050  0.3200E-02  0.1183E+00
     25.199  0.1183E-01  0.1200E+00
     25.347  0.1237E-01  0.1219E+00
     25.496  0.4747E-02  0.1226E+00
     25.644  0.4360E-02  0.1232E+00
     25.793  0.7402E-02  0.1243E+00
     25.942  0.7708E-02  0.1255E+00
     26.090  0.5153E-02  0.1262E+00
     26.239  0.6130E-02  0.1271E+00
     26.387  0.7069E-02  0.1282E+00
     26.536  0.8264E-02  0.1294E+00
     26.685  0.5478E-02  0.1302E+00
     26.833  0.9867E-03  0.1304E+00
     26.982  0.5584E-02  0.1312E+00
     27.130  0.5169E-02  0.1320E+00
     27.279  0.9056E-02  0.1333E+00
     27.427  0.7713E-02  0.1345E+00
     27.576  0.8174E-02  0.1357E+00
     27.725  0.6791E-02  0.1367E+00
     27.873  0.2063E-02  0.1370E+00
     28.022  0.5833E-02  0.1379E+00
     28.170  0.1003E-01  0.1393E+00
     28.319  0.4991E-02  0.1401E+00
     28.468  0.3258E-02  0.1406E+00
     28.616  0.7525E-03  0.1407E+00
     28.765  0.3404E-02  0.1412E+00
     28.913  0.8960E-02  0.1425E+00
     29.062  0.4590E-02  0.1432E+00
     29.210  0.4461E-02  0.1439E+00
     29.359  0.3679E-02  0.1444E+00
     29.508  0.4456E-02  0.1451E+00
     29.656  0.1077E-01  0.1467E+00
     29.805  0.6907E-02  0.1477E+00
     29.953  0.6143E-02  0.1486E+00
     30.102  0.3965E-02  0.1492E+00
     30.251  0.4333E-02  0.1498E+00
     30.399  0.1704E-02  0.1501E+00
     30.548  0.4300E-02  0.1507E+00
     30.696  0.5523E-02  0.1516E+00
     30.845  0.3805E-02  0.1521E+00
     30.994  0.2538E-02  0.1525E+00
     31.142  0.3785E-02  0.1531E+00
     31.291  0.5728E-02  0.1539E+00
     31.439  0.3542E-02  0.1544E+00
     31.588  0.1521E-02  0.1547E+00
     31.736  0.2409E-04  0.1547E+00
     31.885  0.4225E-02  0.1553E+00
     32.034  0.2913E-02  0.1557E+00
     32.182  0.9511E-03  0.1559E+00
     32.331  0.1462E-02  0.1561E+00
     32.479  0.1381E-02  0.1563E+00
     32.628  0.1848E-02  0.1566E+00
     32.777  0.3667E-02  0.1571E+00
     32.925  0.2267E-02  0.1575E+00
     33.074  0.6143E-03  0.1575E+00
     33.222  0.1266E-02  0.1577E+00
     33.371  0.2748E-02  0.1581E+00
     33.519  0.1227E-02  0.1583E+00
     33.668  0.1731E-02  0.1586E+00
     33.817  0.1669E-02  0.1588E+00
     33.965  0.4821E-03  0.1589E+00
     34.114  0.2477E-04  0.1589E+00
     34.262  0.1844E-02  0.1592E+00
     34.411  0.4812E-03  0.1592E+00
     34.560  0.4272E-04  0.1593E+00
     34.708  0.7982E-03  0.1594E+00
     34.857  0.3983E-03  0.1594E+00
     35.005  0.1194E-02  0.1596E+00
     35.154  0.9595E-03  0.1598E+00
     35.303  0.4528E-03  0.1598E+00
     35.451  0.5044E-03  0.1599E+00
     35.600  0.1699E-07  0.1599E+00
     35.748  0.2045E-12  0.1599E+00
     35.897  0.1277E-04  0.1599E+00
     36.045  0.4603E-03  0.1600E+00
     36.194  0.2067E-04  0.1600E+00
     36.343  0.2233E-03  0.1600E+00
     36.491  0.8957E-06  0.1600E+00
     36.640  0.7311E-15  0.1600E+00
     36.788  0.0000E+00  0.1600E+00
     36.937  0.0000E+00  0.1600E+00
     37.086  0.0000E+00  0.1600E+00
     37.234  0.0000E+00  0.1600E+00
     37.383  0.0000E+00  0.1600E+00
     37.531  0.0000E+00  0.1600E+00
     37.680  0.0000E+00  0.1600E+00
     37.828  0.0000E+00  0.1600E+00
     37.977  0.0000E+00  0.1600E+00
     38.126  0.0000E+00  0.1600E+00
     38.274  0.0000E+00  0.1600E+00
