    1    1  100    1
  0.1408159E+02  0.2710538E-09  0.2710538E-09  0.2710538E-09  0.5000000E-15
  1.000000000000000E-004
  CAR 
 unknown system                          
      4    120      8
 
  0.0000000E+00  0.0000000E+00  0.0000000E+00  0.2962963E-03
    1       -4.275302   1.000000
    2       21.362541   0.000000
    3       21.362548   0.000000
    4       21.362557   0.000000
    5       22.135526   0.000000
    6       22.135535   0.000000
    7       22.135544   0.000000
    8       27.476774   0.000000
 
  0.6666667E-01 -0.6938894E-17  0.0000000E+00  0.2370370E-02
    1       -4.145673   1.000000
    2       19.207508   0.000000
    3       20.689079   0.000000
    4       20.689091   0.000000
    5       22.967566   0.000000
    6       22.967581   0.000000
    7       23.187899   0.000000
    8       28.360667   0.000000
 
  0.1333333E+00  0.0000000E+00  0.0000000E+00  0.2370370E-02
    1       -3.757232   1.000000
    2       16.377738   0.000000
    3       19.926604   0.000000
    4       19.926615   0.000000
    5       23.474481   0.000000
    6       24.061143   0.000000
    7       24.061157   0.000000
    8       27.330006   0.000000
 
  0.2000000E+00  0.0000000E+00  0.0000000E+00  0.2370370E-02
    1       -3.111608   1.000000
    2       13.547657   0.000000
    3       19.349446   0.000000
    4       19.349456   0.000000
    5       23.404511   0.000000
    6       24.283205   0.000000
    7       24.283215   0.000000
    8       27.308651   0.000000
 
  0.2666667E+00  0.0000000E+00  0.0000000E+00  0.2370370E-02
    1       -2.211471   1.000000
    2       10.844626   0.000000
    3       18.970493   0.000000
    4       18.970501   0.000000
    5       23.307785   0.000000
    6       23.391293   0.000000
    7       23.391302   0.000000
    8       28.703976   0.000000
 
  0.3333333E+00  0.0000000E+00  0.0000000E+00  0.2370370E-02
    1       -1.060947   1.000000
    2        8.319904   1.000000
    3       18.778344   0.000000
    4       18.778351   0.000000
    5       22.384813   0.000000
    6       22.384822   0.000000
    7       23.295041   0.000000
    8       27.539818   0.000000
 
  0.4000000E+00 -0.2775558E-16  0.0000000E+00  0.2370370E-02
    1        0.332881   1.000000
    2        6.001830   1.000000
    3       18.737425   0.000000
    4       18.737430   0.000000
    5       21.579606   0.000000
    6       21.579618   0.000000
    7       23.381417   0.000000
    8       26.619144   0.000000
 
  0.4666667E+00  0.0000000E+00  0.0000000E+00  0.2370370E-02
    1        1.940440   1.000000
    2        3.930080   1.000000
    3       18.768936   0.000000
    4       18.768940   0.000000
    5       21.116515   0.000000
    6       21.116528   0.000000
    7       23.493387   0.000000
    8       26.077602   0.000000
 
  0.6666667E-01  0.6666667E-01  0.0000000E+00  0.1777778E-02
    1       -4.102468   1.000000
    2       19.685081   0.000000
    3       19.685082   0.000000
    4       20.959641   0.000000
    5       21.217006   0.000000
    6       24.029377   0.000000
    7       24.029378   0.000000
    8       27.240894   0.000000
 
  0.1333333E+00  0.6666667E-01  0.0000000E+00  0.7111111E-02
    1       -3.800324   1.000000
    2       17.385338   0.000000
    3       18.843799   0.000000
    4       20.398329   0.000000
    5       21.763479   0.000000
    6       24.747643   0.000000
    7       25.178876   0.000000
    8       25.771764   0.000000
 
  0.2000000E+00  0.6666667E-01  0.0000000E+00  0.7111111E-02
    1       -3.240482   1.000000
    2       14.570356   0.000000
    3       18.207610   0.000000
    4       19.766360   0.000000
    5       22.452259   0.000000
    6       24.545417   0.000000
    7       25.300567   0.000000
    8       25.791139   0.000000
 
  0.2666667E+00  0.6666667E-01  0.0000000E+00  0.7111111E-02
    1       -2.425238   1.000000
    2       11.827757   0.000000
    3       17.786075   0.000000
    4       19.255545   0.000000
    5       21.887259   0.000000
    6       24.383441   0.000000
    7       25.136646   0.000000
    8       26.334053   0.000000
 
  0.3333333E+00  0.6666667E-01  0.0000000E+00  0.7111111E-02
    1       -1.358150   1.000000
    2        9.244682   1.000000
    3       17.580354   0.000000
    4       18.821048   0.000000
    5       21.015641   0.000000
    6       24.100705   0.000000
    7       24.359713   0.000000
    8       27.929079   0.000000
 
  0.4000000E+00  0.6666667E-01  0.0000000E+00  0.7111111E-02
    1       -0.044908   1.000000
    2        6.857760   1.000000
    3       17.586684   0.000000
    4       18.348577   0.000000
    5       20.495963   0.000000
    6       23.142892   0.000000
    7       24.378214   0.000000
    8       27.837737   0.000000
 
  0.4666667E+00  0.6666667E-01  0.0000000E+00  0.7111111E-02
    1        1.499819   1.000000
    2        4.695722   1.000000
    3       17.795359   0.000000
    4       17.809684   0.000000
    5       20.456781   0.000000
    6       22.376529   0.000000
    7       24.402059   0.000000
    8       27.298861   0.000000
 
 -0.4666667E+00  0.6666667E-01  0.0000000E+00  0.7111111E-02
    1        2.570391   1.000000
    2        3.470409   1.000000
    3       17.320770   0.000000
    4       18.185433   0.000000
    5       20.806642   0.000000
    6       21.853891   0.000000
    7       24.339814   0.000000
    8       27.210586   0.000000
 
 -0.4000000E+00  0.6666667E-01  0.0000000E+00  0.7111111E-02
    1        0.961493   1.000000
    2        5.388472   1.000000
    3       16.979003   0.000000
    4       18.712507   0.000000
    5       21.452191   0.000000
    6       21.627096   0.000000
    7       24.190156   0.000000
    8       27.605883   0.000000
 
 -0.3333333E+00  0.6666667E-01  0.0000000E+00  0.7111111E-02
    1       -0.509509   1.000000
    2        7.629673   1.000000
    3       16.828676   0.000000
    4       19.294526   0.000000
    5       21.771655   0.000000
    6       22.339747   0.000000
    7       24.056904   0.000000
    8       28.336705   0.000000
 
 -0.2666667E+00  0.6666667E-01  0.0000000E+00  0.7111111E-02
    1       -1.741565   1.000000
    2       10.084522   0.994139
    3       16.888134   0.000000
    4       19.847720   0.000000
    5       22.335486   0.000000
    6       23.417645   0.000000
    7       24.005603   0.000000
    8       27.989892   0.000000
 
 -0.2000000E+00  0.6666667E-01  0.0000000E+00  0.7111111E-02
    1       -2.725201   1.000000
    2       12.725007   0.000000
    3       17.164625   0.000000
    4       20.387071   0.000000
    5       23.141604   0.000000
    6       24.017218   0.000000
    7       24.564804   0.000000
    8       26.313786   0.000000
 
 -0.1333333E+00  0.6666667E-01  0.0000000E+00  0.7111111E-02
    1       -3.455642   1.000000
    2       15.503837   0.000000
    3       17.660217   0.000000
    4       20.980642   0.000000
    5       23.249419   0.000000
    6       23.971092   0.000000
    7       25.185593   0.000000
    8       25.878758   0.000000
 
 -0.6666667E-01  0.6666667E-01  0.0000000E+00  0.3555556E-02
    1       -3.929777   1.000000
    2       18.207109   0.000000
    3       18.466359   0.000000
    4       21.442592   0.000000
    5       22.469625   0.000000
    6       23.608547   0.000000
    7       24.491192   0.000000
    8       26.997285   0.000000
 
  0.1333333E+00  0.1333333E+00  0.0000000E+00  0.1777778E-02
    1       -3.584724   1.000000
    2       17.929840   0.000000
    3       17.929841   0.000000
    4       19.567366   0.000000
    5       19.888224   0.000000
    6       23.966029   0.000000
    7       26.403813   0.000000
    8       26.403813   0.000000
 
  0.2000000E+00  0.1333333E+00  0.0000000E+00  0.7111111E-02
    1       -3.111313   1.000000
    2       15.735608   0.000000
    3       17.222632   0.000000
    4       19.032977   0.000000
    5       20.140485   0.000000
    6       22.656832   0.000000
    7       27.120729   0.000000
    8       27.361856   0.000000
 
  0.2666667E+00  0.1333333E+00  0.0000000E+00  0.7111111E-02
    1       -2.382032   1.000000
    2       13.015877   0.000000
    3       16.732966   0.000000
    4       18.319954   0.000000
    5       20.029006   0.000000
    6       23.012254   0.000000
    7       27.094371   0.000000
    8       27.296990   0.000000
 
  0.3333333E+00  0.1333333E+00  0.0000000E+00  0.7111111E-02
    1       -1.399951   1.000000
    2       10.395025   0.000000
    3       16.464142   0.000000
    4       17.498184   0.000000
    5       19.429032   0.000000
    6       24.491483   0.000000
    7       26.135852   0.000000
    8       27.457798   0.000000
 
  0.4000000E+00  0.1333333E+00  0.0000000E+00  0.7111111E-02
    1       -0.169829   1.000000
    2        7.950044   1.000000
    3       16.416120   0.000000
    4       16.588951   0.000000
    5       19.183338   0.000000
    6       25.150277   0.000000
    7       25.753358   0.000000
    8       28.151828   0.000000
 
  0.4666667E+00  0.1333333E+00  0.0000000E+00  0.7111111E-02
    1        1.298986   1.000000
    2        5.714617   1.000000
    3       15.746389   0.000000
    4       16.586691   0.000000
    5       19.289061   0.000000
    6       24.306244   0.000000
    7       26.132454   0.000000
    8       29.656169   0.000000
 
 -0.4666667E+00  0.1333333E+00  0.0000000E+00  0.7111111E-02
    1        2.909074   1.000000
    2        3.796326   1.000000
    3       15.067180   0.000000
    4       16.970964   0.000000
    5       19.682455   0.000000
    6       23.660344   0.000000
    7       26.042599   0.000000
    8       29.788495   0.000000
 
 -0.4000000E+00  0.1333333E+00  0.0000000E+00  0.7111111E-02
    1        1.836692   1.000000
    2        5.022058   1.000000
    3       14.591164   0.000000
    4       17.559156   0.000000
    5       20.330671   0.000000
    6       23.239667   0.000000
    7       25.810426   0.000000
    8       30.092100   0.000000
 
 -0.3333333E+00  0.1333333E+00  0.0000000E+00  0.7111111E-02
    1        0.293857   1.000000
    2        7.177602   1.000000
    3       14.335755   0.000000
    4       18.332563   0.000000
    5       21.212485   0.000000
    6       23.065231   0.000000
    7       25.579249   0.000000
    8       29.624900   0.000000
 
 -0.2666667E+00  0.1333333E+00  0.0000000E+00  0.7111111E-02
    1       -1.017403   1.000000
    2        9.551546   1.000000
    3       14.310311   0.000000
    4       19.253150   0.000000
    5       22.301505   0.000000
    6       23.156740   0.000000
    7       25.390823   0.000000
    8       27.467689   0.000000
 
 -0.2000000E+00  0.1333333E+00  0.0000000E+00  0.7111111E-02
    1       -2.082793   1.000000
    2       12.102160   0.000000
    3       14.527786   0.000000
    4       20.240316   0.000000
    5       23.501317   0.000000
    6       23.543824   0.000000
    7       25.177738   0.000000
    8       25.593254   0.000000
 
 -0.1333333E+00  0.1333333E+00  0.0000000E+00  0.3555556E-02
    1       -2.896712   1.000000
    2       14.562526   0.000000
    3       15.208910   0.000000
    4       21.080550   0.000000
    5       23.468710   0.000000
    6       24.736134   0.000000
    7       24.759111   0.000000
    8       24.870006   0.000000
 
  0.2000000E+00  0.2000000E+00  0.0000000E+00  0.1777778E-02
    1       -2.724650   1.000000
    2       16.442155   0.000000
    3       16.442156   0.000000
    4       17.989141   0.000000
    5       18.137008   0.000000
    6       20.964346   0.000000
    7       28.821998   0.000000
    8       28.821998   0.000000
 
  0.2666667E+00  0.2000000E+00  0.0000000E+00  0.7111111E-02
    1       -2.082045   1.000000
    2       14.346031   0.000000
    3       15.879441   0.000000
    4       16.987332   0.000000
    5       18.251116   0.000000
    6       20.532807   0.000000
    7       29.144264   0.000000
    8       29.560697   0.000000
 
  0.3333333E+00  0.2000000E+00  0.0000000E+00  0.7111111E-02
    1       -1.186209   1.000000
    2       11.749265   0.000000
    3       15.538889   0.000000
    4       15.761195   0.000000
    5       18.154948   0.000000
    6       21.798221   0.000000
    7       28.343725   0.000000
    8       29.722821   0.000000
 
  0.4000000E+00  0.2000000E+00  0.0000000E+00  0.7111111E-02
    1       -0.041235   1.000000
    2        9.267319   1.000000
    3       14.592313   0.000000
    4       15.421601   0.000000
    5       18.039786   0.000000
    6       23.695530   0.000000
    7       27.380449   0.000000
    8       29.645116   0.000000
 
  0.4666667E+00  0.2000000E+00  0.0000000E+00  0.7111111E-02
    1        1.345967   1.000000
    2        6.972317   1.000000
    3       13.585029   0.000000
    4       15.527196   0.000000
    5       18.151819   0.000000
    6       25.705063   0.000000
    7       26.504102   0.000000
    8       29.523017   0.000000
 
 -0.4666667E+00  0.2000000E+00  0.0000000E+00  0.7111111E-02
    1        2.948470   1.000000
    2        4.911424   1.000000
    3       12.782860   0.000000
    4       15.853579   0.000000
    5       18.510928   0.000000
    6       25.795003   0.000000
    7       27.234042   0.000000
    8       29.828713   0.000000
 
 -0.4000000E+00  0.2000000E+00  0.0000000E+00  0.7111111E-02
    1        2.948965   1.000000
    2        4.908396   1.000000
    3       12.205460   0.000000
    4       16.396686   0.000000
    5       19.113472   0.000000
    6       25.288427   0.000000
    7       27.546462   0.000000
    8       31.015392   0.000000
 
 -0.3333333E+00  0.2000000E+00  0.0000000E+00  0.7111111E-02
    1        1.345537   1.000000
    2        6.962069   1.000000
    3       11.865154   0.000000
    4       17.148415   0.000000
    5       19.949537   0.000000
    6       25.002865   0.000000
    7       27.306449   0.000000
    8       29.444378   0.000000
 
 -0.2666667E+00  0.2000000E+00  0.0000000E+00  0.7111111E-02
    1       -0.042013   1.000000
    2        9.229220   1.000000
    3       11.783571   0.000000
    4       18.091585   0.000000
    5       21.001647   0.000000
    6       24.950816   0.000000
    7       26.897142   0.000000
    8       27.181209   0.000000
 
 -0.2000000E+00  0.2000000E+00  0.0000000E+00  0.3555556E-02
    1       -1.187062   1.000000
    2       11.384744   0.000000
    3       12.244648   0.000000
    4       19.181369   0.000000
    5       22.233349   0.000000
    6       25.116680   0.000000
    7       25.162402   0.000000
    8       26.225098   0.000000
 
  0.2666667E+00  0.2666667E+00  0.0000000E+00  0.1777778E-02
    1       -1.526559   1.000000
    2       15.242610   0.000000
    3       15.242611   0.000000
    4       15.407961   0.000000
    5       16.669268   0.000000
    6       19.116342   0.000000
    7       31.136283   0.000000
    8       31.136283   0.000000
 
  0.3333333E+00  0.2666667E+00  0.0000000E+00  0.7111111E-02
    1       -0.717855   1.000000
    2       13.207474   0.000000
    3       14.029959   0.000000
    4       14.828097   0.000000
    5       16.986213   0.000000
    6       19.305333   0.000000
    7       30.627539   0.000000
    8       31.812733   0.000000
 
  0.4000000E+00  0.2666667E+00  0.0000000E+00  0.7111111E-02
    1        0.340364   1.000000
    2       10.774942   0.000000
    3       12.684224   0.000000
    4       14.637838   0.000000
    5       17.082772   0.000000
    6       20.915799   0.000000
    7       29.748927   0.000000
    8       31.829665   0.000000
 
  0.4666667E+00  0.2666667E+00  0.0000000E+00  0.7111111E-02
    1        1.642299   1.000000
    2        8.449694   1.000000
    3       11.548657   0.000000
    4       14.672030   0.000000
    5       17.189332   0.000000
    6       23.043838   0.000000
    7       28.877762   0.000000
    8       31.468083   0.000000
 
 -0.4666667E+00  0.2666667E+00  0.0000000E+00  0.7111111E-02
    1        3.174058   1.000000
    2        6.318681   1.000000
    3       10.640884   0.000000
    4       14.929785   0.000000
    5       17.498732   0.000000
    6       25.353600   0.000000
    7       28.130863   0.000000
    8       30.921430   0.000000
 
 -0.4000000E+00  0.2666667E+00  0.0000000E+00  0.7111111E-02
    1        4.254348   1.000000
    2        5.080355   1.000000
    3        9.973779   1.000000
    4       15.408967   0.000000
    5       18.041022   0.000000
    6       27.559727   0.000000
    7       27.604356   0.000000
    8       30.328844   0.000000
 
 -0.3333333E+00  0.2666667E+00  0.0000000E+00  0.7111111E-02
    1        2.639803   1.000000
    2        6.963217   1.000000
    3        9.572739   1.000000
    4       16.105004   0.000000
    5       18.816515   0.000000
    6       27.181102   0.000000
    7       28.922466   0.000000
    8       29.513234   0.000000
 
 -0.2666667E+00  0.2666667E+00  0.0000000E+00  0.3555556E-02
    1        1.179969   1.000000
    2        8.805870   1.000000
    3        9.748640   1.000000
    4       17.007985   0.000000
    5       19.813188   0.000000
    6       26.820903   0.000000
    7       27.379357   0.000000
    8       28.216305   0.000000
 
  0.3333333E+00  0.3333333E+00  0.0000000E+00  0.1777778E-02
    1        0.003035   1.000000
    2       12.307632   0.000000
    3       14.339149   0.000000
    4       14.339150   0.000000
    5       15.659923   0.000000
    6       18.045390   0.000000
    7       32.553006   0.000000
    8       33.235563   0.000000
 
  0.4000000E+00  0.3333333E+00  0.0000000E+00  0.7111111E-02
    1        0.973083   1.000000
    2       10.849596   0.000000
    3       12.522298   0.000000
    4       14.074624   0.000000
    5       16.142918   0.000000
    6       18.504695   0.000000
    7       32.112763   0.000000
    8       33.764017   0.000000
 
  0.4666667E+00  0.3333333E+00  0.0000000E+00  0.7111111E-02
    1        2.186549   1.000000
    2        9.543187   1.000000
    3       10.288282   0.000592
    4       14.035262   0.000000
    5       16.406327   0.000000
    6       20.324492   0.000000
    7       31.322813   0.000000
    8       33.547721   0.000000
 
 -0.4666667E+00  0.3333333E+00  0.0000000E+00  0.7111111E-02
    1        3.631766   1.000000
    2        7.882661   1.000000
    3        8.774737   1.000000
    4       14.220787   0.000000
    5       16.690083   0.000000
    6       22.635414   0.000000
    7       30.570956   0.000000
    8       32.878888   0.000000
 
 -0.4000000E+00  0.3333333E+00  0.0000000E+00  0.7111111E-02
    1        5.231285   1.000000
    2        6.008328   1.000000
    3        7.989190   1.000000
    4       14.630018   0.000000
    5       17.173053   0.000000
    6       25.138398   0.000000
    7       29.923640   0.000000
    8       31.918428   0.000000
 
 -0.3333333E+00  0.3333333E+00  0.0000000E+00  0.3555556E-02
    1        4.164257   1.000000
    2        6.861473   1.000000
    3        7.831110   1.000000
    4       15.260123   0.000000
    5       17.882974   0.000000
    6       27.646442   0.000000
    7       29.156208   0.000000
    8       30.176894   0.000000
 
  0.4000000E+00  0.4000000E+00  0.0000000E+00  0.1777778E-02
    1        1.853224   1.000000
    2        9.319009   1.000000
    3       13.735512   0.000000
    4       13.735513   0.000000
    5       14.980785   0.000000
    6       17.381790   0.000000
    7       33.792986   0.000000
    8       35.031768   0.000000
 
  0.4666667E+00  0.4000000E+00  0.0000000E+00  0.7111111E-02
    1        2.973458   1.000000
    2        7.994721   1.000000
    3       12.032243   0.000000
    4       13.621779   0.000000
    5       15.640823   0.000000
    6       18.032136   0.000000
    7       33.558506   0.000000
    8       35.304901   0.000000
 
 -0.4666667E+00  0.4000000E+00  0.0000000E+00  0.7111111E-02
    1        4.310584   1.000000
    2        6.918227   1.000000
    3        9.882369   1.000000
    4       13.733530   0.000000
    5       16.070767   0.000000
    6       20.026515   0.000000
    7       32.875007   0.000000
    8       34.694561   0.000000
 
 -0.4000000E+00  0.4000000E+00  0.0000000E+00  0.3555556E-02
    1        5.562664   1.000000
    2        6.354415   1.000000
    3        7.916684   1.000000
    4       14.070186   0.000000
    5       16.524063   0.000000
    6       22.496925   0.000000
    7       31.900182   0.000000
    8       33.292796   0.000000
 
  0.4666667E+00  0.4666667E+00  0.0000000E+00  0.1777778E-02
    1        3.983008   1.000000
    2        6.604422   1.000000
    3       13.433425   0.000000
    4       13.433426   0.000000
    5       14.639737   0.000000
    6       17.055251   0.000000
    7       34.685777   0.000000
    8       36.248055   0.000000
 
 -0.4666667E+00  0.4666667E+00  0.0000000E+00  0.3555556E-02
    1        4.912852   1.000000
    2        5.763190   1.000000
    3       11.871720   0.000000
    4       13.470738   0.000000
    5       15.473576   0.000000
    6       17.874885   0.000000
    7       34.363383   0.000000
    8       35.965153   0.000000
 
  0.2000000E+00  0.1333333E+00  0.6666667E-01  0.7111111E-02
    1       -3.412531   1.000000
    2       16.406410   0.000000
    3       16.826938   0.000000
    4       20.730581   0.000000
    5       21.338842   0.000000
    6       24.301269   0.000000
    7       25.662529   0.000000
    8       26.025982   0.000000
 
  0.2666667E+00  0.1333333E+00  0.6666667E-01  0.1422222E-01
    1       -2.767924   1.000000
    2       13.816270   0.000000
    3       16.092598   0.000000
    4       20.080844   0.000000
    5       21.770946   0.000000
    6       23.849733   0.000000
    7       25.875662   0.000000
    8       26.110479   0.000000
 
  0.3333333E+00  0.1333333E+00  0.6666667E-01  0.1422222E-01
    1       -1.869202   1.000000
    2       11.146596   0.000000
    3       15.735194   0.000000
    4       19.209232   0.000000
    5       21.332988   0.000000
    6       24.420927   0.000000
    7       25.342935   0.000000
    8       26.497195   0.000000
 
  0.4000000E+00  0.1333333E+00  0.6666667E-01  0.1422222E-01
    1       -0.720464   1.000000
    2        8.636243   1.000000
    3       15.604774   0.000000
    4       18.271793   0.000000
    5       21.006525   0.000000
    6       23.648323   0.000000
    7       25.609531   0.000000
    8       27.880836   0.000000
 
  0.4666667E+00  0.1333333E+00  0.6666667E-01  0.1422222E-01
    1        0.671297   1.000000
    2        6.326007   1.000000
    3       15.688594   0.000000
    4       17.407672   0.000000
    5       20.968210   0.000000
    6       22.772980   0.000000
    7       25.759490   0.000000
    8       29.301950   0.000000
 
 -0.4666667E+00  0.1333333E+00  0.6666667E-01  0.1422222E-01
    1        2.277507   1.000000
    2        4.257936   1.000000
    3       15.932400   0.000000
    4       16.757083   0.000000
    5       21.110502   0.000000
    6       22.165212   0.000000
    7       25.850150   0.000000
    8       29.043711   0.000000
 
  0.2666667E+00  0.2000000E+00  0.6666667E-01  0.7111111E-02
    1       -2.553245   1.000000
    2       14.854201   0.000000
    3       15.357622   0.000000
    4       18.734839   0.000000
    5       19.866120   0.000000
    6       21.743570   0.000000
    7       27.602254   0.000000
    8       28.253874   0.000000
 
  0.3333333E+00  0.2000000E+00  0.6666667E-01  0.1422222E-01
    1       -1.740589   1.000000
    2       12.402585   0.000000
    3       14.732548   0.000000
    4       17.563576   0.000000
    5       20.082827   0.000000
    6       22.433478   0.000000
    7       26.876176   0.000000
    8       28.712141   0.000000
 
  0.4000000E+00  0.2000000E+00  0.6666667E-01  0.1422222E-01
    1       -0.676906   1.000000
    2        9.865695   1.000000
    3       14.507235   0.000000
    4       16.375030   0.000000
    5       19.939712   0.000000
    6       24.068893   0.000000
    7       25.962717   0.000000
    8       28.850780   0.000000
 
  0.4666667E+00  0.2000000E+00  0.6666667E-01  0.1422222E-01
    1        0.632194   1.000000
    2        7.499647   1.000000
    3       14.464426   0.000000
    4       15.385786   0.000000
    5       19.962935   0.000000
    6       24.617863   0.000000
    7       26.329609   0.000000
    8       29.059406   0.000000
 
 -0.4666667E+00  0.2000000E+00  0.6666667E-01  0.1422222E-01
    1        2.172701   1.000000
    2        5.348692   1.000000
    3       14.215074   0.000000
    4       15.030264   0.000000
    5       20.210792   0.000000
    6       23.942270   0.000000
    7       27.483308   0.000000
    8       29.852266   0.000000
 
 -0.4000000E+00  0.2000000E+00  0.6666667E-01  0.1422222E-01
    1        3.246928   1.000000
    2        4.120715   1.000000
    3       13.663739   0.000000
    4       15.421581   0.000000
    5       20.676673   0.000000
    6       23.382689   0.000000
    7       27.684432   0.000000
    8       30.992450   0.000000
 
 -0.3333333E+00  0.2000000E+00  0.6666667E-01  0.1422222E-01
    1        1.635533   1.000000
    2        6.036670   1.000000
    3       13.265212   0.000000
    4       16.109003   0.000000
    5       21.327549   0.000000
    6       23.059213   0.000000
    7       27.429067   0.000000
    8       29.806023   0.000000
 
 -0.2666667E+00  0.2000000E+00  0.6666667E-01  0.1422222E-01
    1        0.168791   1.000000
    2        8.259940   1.000000
    3       13.089182   0.000000
    4       17.017699   0.000000
    5       22.044039   0.000000
    6       23.078219   0.000000
    7       26.632882   0.000000
    8       28.289489   0.000000
 
 -0.2000000E+00  0.2000000E+00  0.6666667E-01  0.1422222E-01
    1       -1.059393   1.000000
    2       10.671326   0.000000
    3       13.160836   0.000000
    4       18.109618   0.000000
    5       22.543707   0.000000
    6       23.548935   0.000000
    7       25.165423   0.000000
    8       27.646569   0.000000
 
 -0.1333333E+00  0.2000000E+00  0.6666667E-01  0.7111111E-02
    1       -2.039856   1.000000
    2       12.981427   0.000000
    3       13.734448   0.000000
    4       19.297190   0.000000
    5       22.580616   0.000000
    6       23.330873   0.000000
    7       25.121246   0.000000
    8       27.058818   0.000000
 
  0.3333333E+00  0.2666667E+00  0.6666667E-01  0.7111111E-02
    1       -1.356280   1.000000
    2       13.595927   0.000000
    3       14.108765   0.000000
    4       15.786610   0.000000
    5       18.618672   0.000000
    6       20.236671   0.000000
    7       28.977568   0.000000
    8       30.788177   0.000000
 
  0.4000000E+00  0.2666667E+00  0.6666667E-01  0.1422222E-01
    1       -0.379026   1.000000
    2       11.284483   0.000000
    3       13.565476   0.000000
    4       14.505458   0.000000
    5       18.938765   0.000000
    6       21.420275   0.000000
    7       28.117670   0.000000
    8       31.230733   0.000000
 
  0.4666667E+00  0.2666667E+00  0.6666667E-01  0.1422222E-01
    1        0.844911   1.000000
    2        8.893986   1.000000
    3       13.011472   0.000000
    4       13.815666   0.000000
    5       18.997194   0.000000
    6       23.390450   0.000000
    7       27.210363   0.000000
    8       31.156307   0.000000
 
 -0.4666667E+00  0.2666667E+00  0.6666667E-01  0.1422222E-01
    1        2.306291   1.000000
    2        6.683592   1.000000
    3       12.137185   0.000000
    4       13.901261   0.000000
    5       19.215633   0.000000
    6       25.349354   0.000000
    7       26.644362   0.000000
    8       30.811269   0.000000
 
 -0.4000000E+00  0.2666667E+00  0.6666667E-01  0.1422222E-01
    1        3.918056   1.000000
    2        4.767479   1.000000
    3       11.413537   0.000000
    4       14.299684   0.000000
    5       19.649529   0.000000
    6       25.478917   0.000000
    7       28.031513   0.000000
    8       30.202768   0.000000
 
 -0.3333333E+00  0.2666667E+00  0.6666667E-01  0.1422222E-01
    1        2.842001   1.000000
    2        5.987939   1.000000
    3       10.916897   0.000000
    4       14.940558   0.000000
    5       20.301220   0.000000
    6       25.083336   0.000000
    7       28.776645   0.000000
    8       29.658798   0.000000
 
 -0.2666667E+00  0.2666667E+00  0.6666667E-01  0.1422222E-01
    1        1.305606   1.000000
    2        8.097386   1.000000
    3       10.679519   0.000000
    4       15.806707   0.000000
    5       21.155122   0.000000
    6       24.837193   0.000000
    7       26.906823   0.000000
    8       29.610727   0.000000
 
 -0.2000000E+00  0.2666667E+00  0.6666667E-01  0.7111111E-02
    1        0.000712   1.000000
    2       10.097894   0.983912
    3       11.001519   0.000000
    4       16.879294   0.000000
    5       22.159759   0.000000
    6       24.471373   0.000000
    7       25.212390   0.000000
    8       28.863766   0.000000
 
  0.4000000E+00  0.3333333E+00  0.6666667E-01  0.7111111E-02
    1        0.171840   1.000000
    2       12.362254   0.000000
    3       12.645561   0.000000
    4       13.449983   0.000000
    5       17.662987   0.000000
    6       19.276392   0.000000
    7       30.411566   0.000000
    8       33.076543   0.000000
 
  0.4666667E+00  0.3333333E+00  0.6666667E-01  0.1422222E-01
    1        1.308459   1.000000
    2       10.427103   0.000000
    3       11.251495   0.000000
    4       12.998933   0.000000
    5       18.140904   0.000000
    6       20.696069   0.000000
    7       29.599086   0.000000
    8       33.309346   0.000000
 
 -0.4666667E+00  0.3333333E+00  0.6666667E-01  0.1422222E-01
    1        2.684366   1.000000
    2        8.225746   1.000000
    3       10.169666   0.544661
    4       13.070606   0.000000
    5       18.370934   0.000000
    6       22.874242   0.000000
    7       28.787837   0.000000
    8       32.726241   0.000000
 