<?xml version="1.0" encoding="ISO-8859-1"?>
<modeling>
 <generator>
  <i name="program" type="string">vasp </i>
  <i name="version" type="string">6.2.0  </i>
  <i name="subversion" type="string">18Jan21 (build Aug 12 2022 13:00:08) complex                          parallel </i>
  <i name="platform" type="string">LinuxIFC </i>
  <i name="date" type="string">2024 11 03 </i>
  <i name="time" type="string">22:11:40 </i>
 </generator>
 <incar>
  <i type="int" name="ISTART">     0</i>
  <i type="string" name="PREC">Accurate      (Accurate strictly avoids</i>
  <i type="logical" name="ADDGRID"> T  </i>
  <i type="int" name="ISPIN">     1</i>
  <i type="int" name="NELM">    90</i>
  <i type="int" name="NELMIN">     6</i>
  <i type="int" name="IBRION">     2</i>
  <i name="EDIFF">      0.00000100</i>
  <i name="EDIFFG">     -0.00200000</i>
  <i type="int" name="NSW">   100</i>
  <i type="int" name="ISIF">     3</i>
  <i type="int" name="ISYM">     2</i>
  <i name="ENCUT">    450.00000000</i>
  <i type="logical" name="LREAL"> F  </i>
  <i type="int" name="ISMEAR">     0</i>
  <i name="SIGMA">      0.05000000</i>
  <i type="logical" name="LWAVE"> F  </i>
  <i type="logical" name="LCHARG"> F  </i>
  <i type="logical" name="LASPH"> T  </i>
 </incar>
 <primitive_cell>
  <structure name="primitive_cell" >
   <crystal>
    <varray name="basis" >
     <v>       2.34739500       0.00000000       1.35526800 </v>
     <v>       0.78246500       2.21314500       1.35526800 </v>
     <v>       0.00000000       0.00000000       2.71053800 </v>
    </varray>
    <i name="volume">     14.08158510 </i>
    <varray name="rec_basis" >
     <v>       0.42600415      -0.15061523       0.00000000 </v>
     <v>       0.00000000       0.45184568       0.00000000 </v>
     <v>      -0.21300192      -0.15061511       0.36893045 </v>
    </varray>
   </crystal>
   <varray name="positions" >
    <v>       0.00000000       0.00000000       0.00000000 </v>
   </varray>
  </structure>
  <varray name="primitive_index" >
   <v type="int" >        1 </v>
  </varray>
 </primitive_cell>
 <kpoints>
  <generation param="Monkhorst-Pack">
   <v type="int" name="divisions">      15       15       15 </v>
   <v name="usershift">      0.00000000       0.00000000       0.00000000 </v>
   <v name="genvec1">      0.06666667      -0.00000000       0.00000000 </v>
   <v name="genvec2">      0.00000000       0.06666667       0.00000000 </v>
   <v name="genvec3">      0.00000000       0.00000000       0.06666667 </v>
   <v name="shift">      0.00000000       0.00000000       0.00000000 </v>
  </generation>
  <varray name="kpointlist" >
   <v>       0.00000000       0.00000000       0.00000000 </v>
   <v>       0.06666667      -0.00000000       0.00000000 </v>
   <v>       0.13333333       0.00000000       0.00000000 </v>
   <v>       0.20000000       0.00000000       0.00000000 </v>
   <v>       0.26666667       0.00000000       0.00000000 </v>
   <v>       0.33333333       0.00000000       0.00000000 </v>
   <v>       0.40000000      -0.00000000       0.00000000 </v>
   <v>       0.46666667       0.00000000       0.00000000 </v>
   <v>       0.06666667       0.06666667       0.00000000 </v>
   <v>       0.13333333       0.06666667       0.00000000 </v>
   <v>       0.20000000       0.06666667       0.00000000 </v>
   <v>       0.26666667       0.06666667       0.00000000 </v>
   <v>       0.33333333       0.06666667       0.00000000 </v>
   <v>       0.40000000       0.06666667       0.00000000 </v>
   <v>       0.46666667       0.06666667       0.00000000 </v>
   <v>      -0.46666667       0.06666667       0.00000000 </v>
   <v>      -0.40000000       0.06666667       0.00000000 </v>
   <v>      -0.33333333       0.06666667       0.00000000 </v>
   <v>      -0.26666667       0.06666667       0.00000000 </v>
   <v>      -0.20000000       0.06666667       0.00000000 </v>
   <v>      -0.13333333       0.06666667       0.00000000 </v>
   <v>      -0.06666667       0.06666667       0.00000000 </v>
   <v>       0.13333333       0.13333333       0.00000000 </v>
   <v>       0.20000000       0.13333333       0.00000000 </v>
   <v>       0.26666667       0.13333333       0.00000000 </v>
   <v>       0.33333333       0.13333333       0.00000000 </v>
   <v>       0.40000000       0.13333333       0.00000000 </v>
   <v>       0.46666667       0.13333333       0.00000000 </v>
   <v>      -0.46666667       0.13333333       0.00000000 </v>
   <v>      -0.40000000       0.13333333       0.00000000 </v>
   <v>      -0.33333333       0.13333333       0.00000000 </v>
   <v>      -0.26666667       0.13333333       0.00000000 </v>
   <v>      -0.20000000       0.13333333       0.00000000 </v>
   <v>      -0.13333333       0.13333333       0.00000000 </v>
   <v>       0.20000000       0.20000000       0.00000000 </v>
   <v>       0.26666667       0.20000000       0.00000000 </v>
   <v>       0.33333333       0.20000000       0.00000000 </v>
   <v>       0.40000000       0.20000000       0.00000000 </v>
   <v>       0.46666667       0.20000000       0.00000000 </v>
   <v>      -0.46666667       0.20000000       0.00000000 </v>
   <v>      -0.40000000       0.20000000       0.00000000 </v>
   <v>      -0.33333333       0.20000000       0.00000000 </v>
   <v>      -0.26666667       0.20000000       0.00000000 </v>
   <v>      -0.20000000       0.20000000       0.00000000 </v>
   <v>       0.26666667       0.26666667       0.00000000 </v>
   <v>       0.33333333       0.26666667       0.00000000 </v>
   <v>       0.40000000       0.26666667       0.00000000 </v>
   <v>       0.46666667       0.26666667       0.00000000 </v>
   <v>      -0.46666667       0.26666667       0.00000000 </v>
   <v>      -0.40000000       0.26666667       0.00000000 </v>
   <v>      -0.33333333       0.26666667       0.00000000 </v>
   <v>      -0.26666667       0.26666667       0.00000000 </v>
   <v>       0.33333333       0.33333333       0.00000000 </v>
   <v>       0.40000000       0.33333333       0.00000000 </v>
   <v>       0.46666667       0.33333333       0.00000000 </v>
   <v>      -0.46666667       0.33333333       0.00000000 </v>
   <v>      -0.40000000       0.33333333       0.00000000 </v>
   <v>      -0.33333333       0.33333333       0.00000000 </v>
   <v>       0.40000000       0.40000000       0.00000000 </v>
   <v>       0.46666667       0.40000000       0.00000000 </v>
   <v>      -0.46666667       0.40000000       0.00000000 </v>
   <v>      -0.40000000       0.40000000       0.00000000 </v>
   <v>       0.46666667       0.46666667       0.00000000 </v>
   <v>      -0.46666667       0.46666667       0.00000000 </v>
   <v>       0.20000000       0.13333333       0.06666667 </v>
   <v>       0.26666667       0.13333333       0.06666667 </v>
   <v>       0.33333333       0.13333333       0.06666667 </v>
   <v>       0.40000000       0.13333333       0.06666667 </v>
   <v>       0.46666667       0.13333333       0.06666667 </v>
   <v>      -0.46666667       0.13333333       0.06666667 </v>
   <v>       0.26666667       0.20000000       0.06666667 </v>
   <v>       0.33333333       0.20000000       0.06666667 </v>
   <v>       0.40000000       0.20000000       0.06666667 </v>
   <v>       0.46666667       0.20000000       0.06666667 </v>
   <v>      -0.46666667       0.20000000       0.06666667 </v>
   <v>      -0.40000000       0.20000000       0.06666667 </v>
   <v>      -0.33333333       0.20000000       0.06666667 </v>
   <v>      -0.26666667       0.20000000       0.06666667 </v>
   <v>      -0.20000000       0.20000000       0.06666667 </v>
   <v>      -0.13333333       0.20000000       0.06666667 </v>
   <v>       0.33333333       0.26666667       0.06666667 </v>
   <v>       0.40000000       0.26666667       0.06666667 </v>
   <v>       0.46666667       0.26666667       0.06666667 </v>
   <v>      -0.46666667       0.26666667       0.06666667 </v>
   <v>      -0.40000000       0.26666667       0.06666667 </v>
   <v>      -0.33333333       0.26666667       0.06666667 </v>
   <v>      -0.26666667       0.26666667       0.06666667 </v>
   <v>      -0.20000000       0.26666667       0.06666667 </v>
   <v>       0.40000000       0.33333333       0.06666667 </v>
   <v>       0.46666667       0.33333333       0.06666667 </v>
   <v>      -0.46666667       0.33333333       0.06666667 </v>
   <v>      -0.40000000       0.33333333       0.06666667 </v>
   <v>      -0.33333333       0.33333333       0.06666667 </v>
   <v>      -0.26666667       0.33333333       0.06666667 </v>
   <v>       0.46666667       0.40000000       0.06666667 </v>
   <v>      -0.46666667       0.40000000       0.06666667 </v>
   <v>      -0.40000000       0.40000000       0.06666667 </v>
   <v>      -0.33333333       0.40000000       0.06666667 </v>
   <v>      -0.46666667       0.46666667       0.06666667 </v>
   <v>      -0.40000000       0.46666667       0.06666667 </v>
   <v>       0.40000000       0.26666667       0.13333333 </v>
   <v>       0.46666667       0.26666667       0.13333333 </v>
   <v>      -0.46666667       0.26666667       0.13333333 </v>
   <v>      -0.40000000       0.26666667       0.13333333 </v>
   <v>       0.46666667       0.33333333       0.13333333 </v>
   <v>      -0.46666667       0.33333333       0.13333333 </v>
   <v>      -0.40000000       0.33333333       0.13333333 </v>
   <v>      -0.33333333       0.33333333       0.13333333 </v>
   <v>      -0.26666667       0.33333333       0.13333333 </v>
   <v>      -0.20000000       0.33333333       0.13333333 </v>
   <v>      -0.46666667       0.40000000       0.13333333 </v>
   <v>      -0.40000000       0.40000000       0.13333333 </v>
   <v>      -0.33333333       0.40000000       0.13333333 </v>
   <v>      -0.26666667       0.40000000       0.13333333 </v>
   <v>      -0.40000000       0.46666667       0.13333333 </v>
   <v>      -0.33333333       0.46666667       0.13333333 </v>
   <v>      -0.40000000       0.40000000       0.20000000 </v>
   <v>      -0.33333333       0.40000000       0.20000000 </v>
   <v>      -0.33333333       0.46666667       0.20000000 </v>
   <v>      -0.26666667       0.46666667       0.20000000 </v>
  </varray>
  <varray name="weights" >
   <v>       0.00029630 </v>
   <v>       0.00237037 </v>
   <v>       0.00237037 </v>
   <v>       0.00237037 </v>
   <v>       0.00237037 </v>
   <v>       0.00237037 </v>
   <v>       0.00237037 </v>
   <v>       0.00237037 </v>
   <v>       0.00177778 </v>
   <v>       0.00711111 </v>
   <v>       0.00711111 </v>
   <v>       0.00711111 </v>
   <v>       0.00711111 </v>
   <v>       0.00711111 </v>
   <v>       0.00711111 </v>
   <v>       0.00711111 </v>
   <v>       0.00711111 </v>
   <v>       0.00711111 </v>
   <v>       0.00711111 </v>
   <v>       0.00711111 </v>
   <v>       0.00711111 </v>
   <v>       0.00355556 </v>
   <v>       0.00177778 </v>
   <v>       0.00711111 </v>
   <v>       0.00711111 </v>
   <v>       0.00711111 </v>
   <v>       0.00711111 </v>
   <v>       0.00711111 </v>
   <v>       0.00711111 </v>
   <v>       0.00711111 </v>
   <v>       0.00711111 </v>
   <v>       0.00711111 </v>
   <v>       0.00711111 </v>
   <v>       0.00355556 </v>
   <v>       0.00177778 </v>
   <v>       0.00711111 </v>
   <v>       0.00711111 </v>
   <v>       0.00711111 </v>
   <v>       0.00711111 </v>
   <v>       0.00711111 </v>
   <v>       0.00711111 </v>
   <v>       0.00711111 </v>
   <v>       0.00711111 </v>
   <v>       0.00355556 </v>
   <v>       0.00177778 </v>
   <v>       0.00711111 </v>
   <v>       0.00711111 </v>
   <v>       0.00711111 </v>
   <v>       0.00711111 </v>
   <v>       0.00711111 </v>
   <v>       0.00711111 </v>
   <v>       0.00355556 </v>
   <v>       0.00177778 </v>
   <v>       0.00711111 </v>
   <v>       0.00711111 </v>
   <v>       0.00711111 </v>
   <v>       0.00711111 </v>
   <v>       0.00355556 </v>
   <v>       0.00177778 </v>
   <v>       0.00711111 </v>
   <v>       0.00711111 </v>
   <v>       0.00355556 </v>
   <v>       0.00177778 </v>
   <v>       0.00355556 </v>
   <v>       0.00711111 </v>
   <v>       0.01422222 </v>
   <v>       0.01422222 </v>
   <v>       0.01422222 </v>
   <v>       0.01422222 </v>
   <v>       0.01422222 </v>
   <v>       0.00711111 </v>
   <v>       0.01422222 </v>
   <v>       0.01422222 </v>
   <v>       0.01422222 </v>
   <v>       0.01422222 </v>
   <v>       0.01422222 </v>
   <v>       0.01422222 </v>
   <v>       0.01422222 </v>
   <v>       0.01422222 </v>
   <v>       0.00711111 </v>
   <v>       0.00711111 </v>
   <v>       0.01422222 </v>
   <v>       0.01422222 </v>
   <v>       0.01422222 </v>
   <v>       0.01422222 </v>
   <v>       0.01422222 </v>
   <v>       0.01422222 </v>
   <v>       0.00711111 </v>
   <v>       0.00711111 </v>
   <v>       0.01422222 </v>
   <v>       0.01422222 </v>
   <v>       0.01422222 </v>
   <v>       0.01422222 </v>
   <v>       0.00711111 </v>
   <v>       0.00711111 </v>
   <v>       0.01422222 </v>
   <v>       0.01422222 </v>
   <v>       0.00711111 </v>
   <v>       0.00711111 </v>
   <v>       0.00711111 </v>
   <v>       0.00711111 </v>
   <v>       0.01422222 </v>
   <v>       0.01422222 </v>
   <v>       0.01422222 </v>
   <v>       0.00711111 </v>
   <v>       0.01422222 </v>
   <v>       0.01422222 </v>
   <v>       0.01422222 </v>
   <v>       0.01422222 </v>
   <v>       0.00711111 </v>
   <v>       0.00711111 </v>
   <v>       0.01422222 </v>
   <v>       0.01422222 </v>
   <v>       0.00711111 </v>
   <v>       0.00711111 </v>
   <v>       0.00711111 </v>
   <v>       0.00711111 </v>
   <v>       0.01422222 </v>
   <v>       0.00711111 </v>
   <v>       0.00711111 </v>
  </varray>
 </kpoints>
 <parameters>
  <separator name="general" >
   <i type="string" name="SYSTEM">unknown system</i>
   <i type="logical" name="LCOMPAT"> F  </i>
  </separator>
  <separator name="electronic" >
   <i type="string" name="PREC">accura</i>
   <i name="ENMAX">    450.00000000</i>
   <i name="ENAUG">    322.06900000</i>
   <i name="EDIFF">      0.00000100</i>
   <i type="int" name="IALGO">    38</i>
   <i type="int" name="IWAVPR">    11</i>
   <i type="int" name="NBANDS">     8</i>
   <i type="int" name="NBANDSLOW">    -1</i>
   <i type="int" name="NBANDSHIGH">    -1</i>
   <i name="NELECT">      4.00000000</i>
   <i type="int" name="TURBO">     0</i>
   <i type="int" name="IRESTART">     0</i>
   <i type="int" name="NREBOOT">     0</i>
   <i type="int" name="NMIN">     0</i>
   <i name="EREF">      0.00000000</i>
   <separator name="electronic smearing" >
    <i type="int" name="ISMEAR">     0</i>
    <i name="SIGMA">      0.05000000</i>
    <i name="KSPACING">      0.50000000</i>
    <i type="logical" name="KGAMMA"> T  </i>
    <i type="logical" name="KBLOWUP"> T  </i>
   </separator>
   <separator name="electronic projectors" >
    <i type="logical" name="LREAL"> F  </i>
    <v name="ROPT">      0.00000000</v>
    <i type="int" name="LMAXPAW">  -100</i>
    <i type="int" name="LMAXMIX">     2</i>
    <i type="logical" name="NLSPLINE"> F  </i>
   </separator>
   <separator name="electronic startup" >
    <i type="int" name="ISTART">     0</i>
    <i type="int" name="ICHARG">     2</i>
    <i type="int" name="INIWAV">     1</i>
   </separator>
   <separator name="electronic spin" >
    <i type="int" name="ISPIN">     1</i>
    <i type="logical" name="LNONCOLLINEAR"> F  </i>
    <v name="MAGMOM">      1.00000000</v>
    <i name="NUPDOWN">     -1.00000000</i>
    <i type="logical" name="LSORBIT"> F  </i>
    <v name="SAXIS">      0.00000000      0.00000000      1.00000000</v>
    <i type="logical" name="LSPIRAL"> F  </i>
    <v name="QSPIRAL">      0.00000000      0.00000000      0.00000000</v>
    <i type="logical" name="LZEROZ"> F  </i>
   </separator>
   <separator name="electronic exchange-correlation" >
    <i type="logical" name="LASPH"> T  </i>
    <i type="logical" name="LMETAGGA"> F  </i>
   </separator>
   <separator name="electronic convergence" >
    <i type="int" name="NELM">    90</i>
    <i type="int" name="NELMDL">    -5</i>
    <i type="int" name="NELMIN">     6</i>
    <i name="ENINI">    450.00000000</i>
    <separator name="electronic convergence detail" >
     <i type="logical" name="LDIAG"> T  </i>
     <i type="logical" name="LSUBROT"> F  </i>
     <i name="WEIMIN">      0.00100000</i>
     <i name="EBREAK">      0.00000003</i>
     <i name="DEPER">      0.30000000</i>
     <i type="int" name="NRMM">     4</i>
     <i name="TIME">      0.40000000</i>
    </separator>
   </separator>
   <separator name="electronic mixer" >
    <i name="AMIX">      0.40000000</i>
    <i name="BMIX">      1.00000000</i>
    <i name="AMIN">      0.10000000</i>
    <i name="AMIX_MAG">      1.60000000</i>
    <i name="BMIX_MAG">      1.00000000</i>
    <separator name="electronic mixer details" >
     <i type="int" name="IMIX">     4</i>
     <i type="logical" name="MIXFIRST"> F  </i>
     <i type="int" name="MAXMIX">   -45</i>
     <i name="WC">    100.00000000</i>
     <i type="int" name="INIMIX">     1</i>
     <i type="int" name="MIXPRE">     1</i>
     <i type="int" name="MREMOVE">     5</i>
    </separator>
   </separator>
   <separator name="electronic dipolcorrection" >
    <i type="logical" name="LDIPOL"> F  </i>
    <i type="logical" name="LMONO"> F  </i>
    <i type="int" name="IDIPOL">     0</i>
    <i name="EPSILON">      1.00000000</i>
    <v name="DIPOL">   -100.00000000   -100.00000000   -100.00000000</v>
    <i name="EFIELD">      0.00000000</i>
   </separator>
  </separator>
  <separator name="grids" >
   <i type="int" name="NGX">    20</i>
   <i type="int" name="NGY">    20</i>
   <i type="int" name="NGZ">    20</i>
   <i type="int" name="NGXF">    40</i>
   <i type="int" name="NGYF">    40</i>
   <i type="int" name="NGZF">    40</i>
   <i type="logical" name="ADDGRID"> T  </i>
  </separator>
  <separator name="ionic" >
   <i type="int" name="NSW">   100</i>
   <i type="int" name="IBRION">     2</i>
   <i type="int" name="MDALGO">     0</i>
   <i type="int" name="ISIF">     3</i>
   <i name="PSTRESS">      0.00000000</i>
   <i name="EDIFFG">     -0.00200000</i>
   <i type="int" name="NFREE">     1</i>
   <i name="POTIM">      0.50000000</i>
   <i name="SMASS">     -3.00000000</i>
   <i name="SCALEE">      1.00000000</i>
  </separator>
  <separator name="ionic md" >
   <i name="TEBEG">      0.00010000</i>
   <i name="TEEND">      0.00010000</i>
   <i type="int" name="NBLOCK">     1</i>
   <i type="int" name="KBLOCK">   100</i>
   <i type="int" name="NPACO">   256</i>
   <i name="APACO">     16.00000000</i>
  </separator>
  <separator name="symmetry" >
   <i type="int" name="ISYM">     2</i>
   <i name="SYMPREC">      0.00001000</i>
  </separator>
  <separator name="dos" >
   <i type="int" name="LORBIT">     0</i>
   <v name="RWIGS">     -1.00000000</v>
   <i type="int" name="NEDOS">   301</i>
   <i name="EMIN">     10.00000000</i>
   <i name="EMAX">    -10.00000000</i>
   <i name="EFERMI">      0.00000000</i>
  </separator>
  <separator name="writing" >
   <i type="int" name="NWRITE">     2</i>
   <i type="logical" name="LWAVE"> F  </i>
   <i type="logical" name="LDOWNSAMPLE"> F  </i>
   <i type="logical" name="LCHARG"> F  </i>
   <i type="logical" name="LPARD"> F  </i>
   <i type="logical" name="LVTOT"> F  </i>
   <i type="logical" name="LVHAR"> F  </i>
   <i type="logical" name="LELF"> F  </i>
   <i type="logical" name="LOPTICS"> F  </i>
   <v name="STM">      0.00000000      0.00000000      0.00000000      0.00000000      0.00000000      0.00000000      0.00000000</v>
  </separator>
  <separator name="performance" >
   <i type="int" name="NPAR">     4</i>
   <i type="int" name="NSIM">     4</i>
   <i type="int" name="NBLK">    -1</i>
   <i type="logical" name="LPLANE"> T  </i>
   <i type="logical" name="LSCALAPACK"> T  </i>
   <i type="logical" name="LSCAAWARE"> F  </i>
   <i type="logical" name="LSCALU"> F  </i>
   <i type="logical" name="LASYNC"> F  </i>
   <i type="logical" name="LORBITALREAL"> F  </i>
  </separator>
  <separator name="miscellaneous" >
   <i type="int" name="IDIOT">     3</i>
   <i type="int" name="PHON_NSTRUCT">    -1</i>
   <i type="logical" name="LMUSIC"> F  </i>
   <v name="POMASS">     28.08500000</v>
   <v name="DARWINR">      0.00000000</v>
   <v name="DARWINV">      1.00000000</v>
   <i type="logical" name="LCORR"> T  </i>
  </separator>
  <i type="logical" name="GGA_COMPAT"> T  </i>
  <i type="logical" name="LBERRY"> F  </i>
  <i type="int" name="ICORELEVEL">     0</i>
  <i type="logical" name="LDAU"> F  </i>
  <i type="int" name="I_CONSTRAINED_M">     0</i>
  <separator name="electronic exchange-correlation" >
   <i type="string" name="GGA">--</i>
   <i type="int" name="VOSKOWN">     0</i>
   <i type="logical" name="LHFCALC"> F  </i>
   <i type="string" name="PRECFOCK"></i>
   <i type="logical" name="LSYMGRAD"> F  </i>
   <i type="logical" name="LHFONE"> F  </i>
   <i type="logical" name="LRHFCALC"> F  </i>
   <i type="logical" name="LTHOMAS"> F  </i>
   <i type="logical" name="LMODELHF"> F  </i>
   <i type="logical" name="LFOCKACE"> F  </i>
   <i name="ENCUT4O">     -1.00000000</i>
   <i type="int" name="EXXOEP">     0</i>
   <i type="int" name="FOURORBIT">     0</i>
   <i name="AEXX">      0.00000000</i>
   <i name="HFALPHA">      0.00000000</i>
   <i name="MCALPHA">      0.00000000</i>
   <i name="ALDAX">      1.00000000</i>
   <i name="AGGAX">      1.00000000</i>
   <i name="ALDAC">      1.00000000</i>
   <i name="AGGAC">      1.00000000</i>
   <i type="int" name="NKREDX">     1</i>
   <i type="int" name="NKREDY">     1</i>
   <i type="int" name="NKREDZ">     1</i>
   <i type="logical" name="SHIFTRED"> F  </i>
   <i type="logical" name="ODDONLY"> F  </i>
   <i type="logical" name="EVENONLY"> F  </i>
   <i type="int" name="LMAXFOCK">     0</i>
   <i type="int" name="NMAXFOCKAE">     0</i>
   <i type="logical" name="LFOCKAEDFT"> F  </i>
   <i name="HFSCREEN">      0.00000000</i>
   <i name="HFSCREENC">      0.00000000</i>
   <i type="int" name="NBANDSGWLOW">     0</i>
  </separator>
  <separator name="vdW DFT" >
   <i type="logical" name="LUSE_VDW"> F  </i>
   <i name="Zab_VDW">     -0.84910000</i>
   <i name="PARAM1">      0.12340000</i>
   <i name="PARAM2">      1.00000000</i>
   <i name="PARAM3">      0.00000000</i>
  </separator>
  <separator name="model GW" >
   <i type="int" name="MODEL_GW">     0</i>
   <i name="MODEL_EPS0">      8.44895106</i>
   <i name="MODEL_ALPHA">      1.00000000</i>
  </separator>
  <separator name="linear response parameters" >
   <i type="logical" name="LEPSILON"> F  </i>
   <i type="logical" name="LRPA"> F  </i>
   <i type="logical" name="LNABLA"> F  </i>
   <i type="logical" name="LVEL"> F  </i>
   <i type="int" name="KINTER">     0</i>
   <i name="CSHIFT">      0.10000000</i>
   <i name="OMEGAMAX">     -1.00000000</i>
   <i name="DEG_THRESHOLD">      0.00200000</i>
   <i name="RTIME">     -0.10000000</i>
   <i name="WPLASMAI">      0.00000000</i>
   <v name="DFIELD">      0.00000000      0.00000000      0.00000000</v>
   <v name="WPLASMA">      0.00000000      0.00000000      0.00000000      0.00000000      0.00000000      0.00000000      0.00000000      0.00000000      0.00000000</v>
  </separator>
  <separator name="orbital magnetization" >
   <i type="logical" name="NUCIND"> F  </i>
   <v name="MAGPOS">      0.00000000      0.00000000      0.00000000</v>
   <i type="logical" name="LNICSALL"> T  </i>
   <i type="logical" name="ORBITALMAG"> F  </i>
   <i type="logical" name="LMAGBLOCH"> F  </i>
   <i type="logical" name="LCHIMAG"> F  </i>
   <i type="logical" name="LGAUGE"> T  </i>
   <i type="int" name="MAGATOM">     0</i>
   <v name="MAGDIPOL">      0.00000000      0.00000000      0.00000000</v>
   <v name="AVECCONST">      0.00000000      0.00000000      0.00000000</v>
  </separator>
  <separator name="response functions" >
   <i type="logical" name="LFINITE_TEMPERATURE"> F  </i>
   <i type="logical" name="LADDER"> F  </i>
   <i type="logical" name="LRPAFORCE"> F  </i>
   <i type="logical" name="LFXC"> F  </i>
   <i type="logical" name="LHARTREE"> T  </i>
   <i type="int" name="IBSE">     0</i>
   <v type="int" name="KPOINT">    -1     0     0     0</v>
   <i type="logical" name="LTCTC"> F  </i>
   <i type="logical" name="LTCTE"> F  </i>
   <i type="logical" name="LTETE"> F  </i>
   <i type="logical" name="LTRIPLET"> F  </i>
   <i type="logical" name="LFXCEPS"> F  </i>
   <i type="logical" name="LFXHEG"> F  </i>
   <i type="int" name="NATURALO">     2</i>
   <i type="logical" name="LHOLEGF"> F  </i>
   <i type="logical" name="L2ORDER"> F  </i>
   <i type="logical" name="LDMP1"> F  </i>
   <i type="logical" name="LMP2LT"> F  </i>
   <i type="logical" name="LSMP2LT"> F  </i>
   <i type="logical" name="LGWLF"> F  </i>
   <i name="ENCUTGW">     -2.00000000</i>
   <i name="ENCUTGWSOFT">     -2.00000000</i>
   <i name="ENCUTLF">     -1.00000000</i>
   <i type="logical" name="LESF_SPLINES"> F  </i>
   <i type="int" name="LMAXMP2">    -1</i>
   <i name="SCISSOR">      0.00000000</i>
   <i type="int" name="NOMEGA">     0</i>
   <i type="int" name="NOMEGAR">     0</i>
   <i type="int" name="NBANDSGW">    -1</i>
   <i type="int" name="NBANDSO">    -1</i>
   <i type="int" name="NBANDSV">    -1</i>
   <i type="int" name="NELM">    90</i>
   <i type="int" name="NELMHF">     1</i>
   <i type="int" name="DIM">     3</i>
   <i type="int" name="IESPILON">     4</i>
   <i type="int" name="ANTIRES">     0</i>
   <i name="OMEGAMAX">    -30.00000000</i>
   <i name="OMEGAMIN">    -30.00000000</i>
   <i name="OMEGATL">   -200.00000000</i>
   <i type="int" name="OMEGAGRID">     0</i>
   <i name="CSHIFT">     -0.10000000</i>
   <i type="logical" name="LSELFENERGY"> F  </i>
   <i type="logical" name="LSPECTRAL"> F  </i>
   <i type="logical" name="LSPECTRALGW"> F  </i>
   <i type="logical" name="LSINGLES"> F  </i>
   <i type="logical" name="LFERMIGW"> F  </i>
   <i type="logical" name="ODDONLYGW"> F  </i>
   <i type="logical" name="EVENONLYGW"> F  </i>
   <i type="int" name="NKREDLFX">     1</i>
   <i type="int" name="NKREDLFY">     1</i>
   <i type="int" name="NKREDLFZ">     1</i>
   <i type="int" name="MAXMEM">  2800</i>
   <i type="int" name="TELESCOPE">     0</i>
   <i type="int" name="NTAUPAR">    -1</i>
   <i type="int" name="NOMEGAPAR">    -1</i>
   <i name="DAMP_NEWTON">      0.80000001</i>
   <i name="LAMBDA">      1.00000000</i>
  </separator>
  <separator name="External order field" >
   <i name="OFIELD_KAPPA">      0.00000000</i>
   <v name="OFIELD_K">      0.00000000      0.00000000      0.00000000</v>
   <i name="OFIELD_Q6_NEAR">      0.00000000</i>
   <i name="OFIELD_Q6_FAR">      0.00000000</i>
   <i name="OFIELD_A">      0.00000000</i>
  </separator>
 </parameters>
 <atominfo>
  <atoms>       1 </atoms>
  <types>       1 </types>
  <array name="atoms" >
   <dimension dim="1">ion</dimension>
   <field type="string">element</field>
   <field type="int">atomtype</field>
   <set>
    <rc><c>Si</c><c>   1</c></rc>
   </set>
  </array>
  <array name="atomtypes" >
   <dimension dim="1">type</dimension>
   <field type="int">atomspertype</field>
   <field type="string">element</field>
   <field>mass</field>
   <field>valence</field>
   <field type="string">pseudopotential</field>
   <set>
    <rc><c>   1</c><c>Si</c><c>     28.08500000</c><c>      4.00000000</c><c>  PAW_PBE Si 05Jan2001                  </c></rc>
   </set>
  </array>
 </atominfo>
 <structure name="initialpos" >
  <crystal>
   <varray name="basis" >
    <v>       2.34739500       0.00000000       1.35526800 </v>
    <v>       0.78246500       2.21314500       1.35526800 </v>
    <v>       0.00000000       0.00000000       2.71053800 </v>
   </varray>
   <i name="volume">     14.08158510 </i>
   <varray name="rec_basis" >
    <v>       0.42600415      -0.15061523       0.00000000 </v>
    <v>       0.00000000       0.45184568       0.00000000 </v>
    <v>      -0.21300192      -0.15061511       0.36893045 </v>
   </varray>
  </crystal>
  <varray name="positions" >
   <v>       0.00000000       0.00000000       0.00000000 </v>
  </varray>
 </structure>
 <calculation>
  <scstep>
   <time name="dav">    0.79    0.79</time>
   <time name="total">    0.98    0.99</time>
   <energy>
    <i name="alphaZ">      2.39057823 </i>
    <i name="ewald">   -137.78496289 </i>
    <i name="hartreedc">     -0.54229904 </i>
    <i name="XCdc">     -8.73347972 </i>
    <i name="pawpsdc">     88.12379961 </i>
    <i name="pawaedc">    -70.53051779 </i>
    <i name="eentropy">     -0.00107673 </i>
    <i name="bandstr">     21.12780303 </i>
    <i name="atom">    103.06596374 </i>
    <i name="e_fr_energy">     -2.88419156 </i>
    <i name="e_wo_entrp">     -2.88311483 </i>
    <i name="e_0_energy">     -2.88365320 </i>
   </energy>
  </scstep>
  <scstep>
   <time name="dav">    1.08    1.09</time>
   <time name="total">    1.08    1.10</time>
   <energy>
    <i name="e_fr_energy">     -4.89342110 </i>
    <i name="e_wo_entrp">     -4.89267952 </i>
    <i name="e_0_energy">     -4.89305031 </i>
   </energy>
  </scstep>
  <scstep>
   <time name="dav">    0.82    0.84</time>
   <time name="total">    0.82    0.84</time>
   <energy>
    <i name="e_fr_energy">     -4.90315228 </i>
    <i name="e_wo_entrp">     -4.90241141 </i>
    <i name="e_0_energy">     -4.90278184 </i>
   </energy>
  </scstep>
  <scstep>
   <time name="dav">    1.21    1.22</time>
   <time name="total">    1.22    1.22</time>
   <energy>
    <i name="e_fr_energy">     -4.90316120 </i>
    <i name="e_wo_entrp">     -4.90242034 </i>
    <i name="e_0_energy">     -4.90279077 </i>
   </energy>
  </scstep>
  <scstep>
   <time name="dav">    0.82    0.83</time>
   <time name="total">    0.88    0.90</time>
   <energy>
    <i name="e_fr_energy">     -4.90316120 </i>
    <i name="e_wo_entrp">     -4.90242034 </i>
    <i name="e_0_energy">     -4.90279077 </i>
   </energy>
  </scstep>
  <scstep>
   <time name="dav">    0.87    0.87</time>
   <time name="total">    1.11    1.12</time>
   <energy>
    <i name="e_fr_energy">     -4.88956138 </i>
    <i name="e_wo_entrp">     -4.88879882 </i>
    <i name="e_0_energy">     -4.88918010 </i>
   </energy>
  </scstep>
  <scstep>
   <time name="dav">    0.86    0.86</time>
   <time name="total">    1.11    1.13</time>
   <energy>
    <i name="e_fr_energy">     -4.88175088 </i>
    <i name="e_wo_entrp">     -4.88096171 </i>
    <i name="e_0_energy">     -4.88135629 </i>
   </energy>
  </scstep>
  <scstep>
   <time name="dav">    1.07    1.07</time>
   <time name="total">    1.31    1.33</time>
   <energy>
    <i name="e_fr_energy">     -4.88171176 </i>
    <i name="e_wo_entrp">     -4.88092274 </i>
    <i name="e_0_energy">     -4.88131725 </i>
   </energy>
  </scstep>
  <scstep>
   <time name="dav">    0.91    0.91</time>
   <time name="total">    1.10    1.11</time>
   <energy>
    <i name="alphaZ">      2.39057823 </i>
    <i name="ewald">   -137.78496289 </i>
    <i name="hartreedc">     -0.40751629 </i>
    <i name="XCdc">     -8.67231611 </i>
    <i name="pawpsdc">    315.48191085 </i>
    <i name="pawaedc">   -297.90026288 </i>
    <i name="eentropy">     -0.00078908 </i>
    <i name="bandstr">     18.94568239 </i>
    <i name="atom">    103.06596374 </i>
    <i name="e_fr_energy">     -4.88171206 </i>
    <i name="e_wo_entrp">     -4.88092298 </i>
    <i name="e_0_energy">     -4.88131752 </i>
   </energy>
  </scstep>
  <structure>
   <crystal>
    <varray name="basis" >
     <v>       2.34739500       0.00000000       1.35526800 </v>
     <v>       0.78246500       2.21314500       1.35526800 </v>
     <v>       0.00000000       0.00000000       2.71053800 </v>
    </varray>
    <i name="volume">     14.08158510 </i>
    <varray name="rec_basis" >
     <v>       0.42600415      -0.15061523       0.00000000 </v>
     <v>       0.00000000       0.45184568       0.00000000 </v>
     <v>      -0.21300192      -0.15061511       0.36893045 </v>
    </varray>
   </crystal>
   <varray name="positions" >
    <v>       0.00000000       0.00000000       0.00000000 </v>
   </varray>
  </structure>
  <varray name="forces" >
   <v>      -0.00000000       0.00000000      -0.00000000 </v>
  </varray>
  <varray name="stress" >
   <v>      21.70698306      -0.00000000      -0.00000925 </v>
   <v>      -0.00000000      21.70697855      -0.00000654 </v>
   <v>      -0.00000925      -0.00000654      21.70697873 </v>
  </varray>
  <energy>
   <i name="e_fr_energy">     -4.88171206 </i>
   <i name="e_wo_entrp">     -4.88092298 </i>
   <i name="e_0_energy">     -4.88131752 </i>
  </energy>
  <time name="totalsc">   10.78   11.05</time>
 </calculation>
 <calculation>
  <scstep>
   <time name="dav">    0.80    0.80</time>
   <time name="total">    1.04    1.05</time>
   <energy>
    <i name="alphaZ">      2.32576703 </i>
    <i name="ewald">   -136.52837038 </i>
    <i name="hartreedc">     -0.40373997 </i>
    <i name="XCdc">     -8.74401349 </i>
    <i name="pawpsdc">    315.48379690 </i>
    <i name="pawaedc">   -297.90186472 </i>
    <i name="eentropy">     -0.00080285 </i>
    <i name="bandstr">     17.81776619 </i>
    <i name="atom">    103.06596374 </i>
    <i name="e_fr_energy">     -4.88549756 </i>
    <i name="e_wo_entrp">     -4.88469470 </i>
    <i name="e_0_energy">     -4.88509613 </i>
   </energy>
  </scstep>
  <scstep>
   <time name="dav">    0.99    0.99</time>
   <time name="total">    1.23    1.25</time>
   <energy>
    <i name="e_fr_energy">     -4.88459616 </i>
    <i name="e_wo_entrp">     -4.88378411 </i>
    <i name="e_0_energy">     -4.88419013 </i>
   </energy>
  </scstep>
  <scstep>
   <time name="dav">    0.80    0.81</time>
   <time name="total">    1.05    1.07</time>
   <energy>
    <i name="e_fr_energy">     -4.88406669 </i>
    <i name="e_wo_entrp">     -4.88324241 </i>
    <i name="e_0_energy">     -4.88365455 </i>
   </energy>
  </scstep>
  <scstep>
   <time name="dav">    1.05    1.05</time>
   <time name="total">    1.29    1.31</time>
   <energy>
    <i name="e_fr_energy">     -4.88406603 </i>
    <i name="e_wo_entrp">     -4.88324182 </i>
    <i name="e_0_energy">     -4.88365393 </i>
   </energy>
  </scstep>
  <scstep>
   <time name="dav">    0.65    0.65</time>
   <time name="total">    0.89    0.91</time>
   <energy>
    <i name="e_fr_energy">     -4.88406250 </i>
    <i name="e_wo_entrp">     -4.88323841 </i>
    <i name="e_0_energy">     -4.88365045 </i>
   </energy>
  </scstep>
  <scstep>
   <time name="dav">    0.51    0.51</time>
   <time name="total">    0.69    0.70</time>
   <energy>
    <i name="alphaZ">      2.32576703 </i>
    <i name="ewald">   -136.52837038 </i>
    <i name="hartreedc">     -0.44789309 </i>
    <i name="XCdc">     -8.75336487 </i>
    <i name="pawpsdc">    296.79411380 </i>
    <i name="pawaedc">   -279.20746555 </i>
    <i name="eentropy">     -0.00082412 </i>
    <i name="bandstr">     17.86801068 </i>
    <i name="atom">    103.06596374 </i>
    <i name="e_fr_energy">     -4.88406278 </i>
    <i name="e_wo_entrp">     -4.88323866 </i>
    <i name="e_0_energy">     -4.88365072 </i>
   </energy>
  </scstep>
  <structure>
   <crystal>
    <varray name="basis" >
     <v>       2.36900017      -0.00000000       1.36774173 </v>
     <v>       0.78966672       2.23351454       1.36774173 </v>
     <v>      -0.00000001      -0.00000001       2.73548550 </v>
    </varray>
    <i name="volume">     14.47399091 </i>
    <varray name="rec_basis" >
     <v>       0.42211901      -0.14924162       0.00000000 </v>
     <v>       0.00000000       0.44772487       0.00000000 </v>
     <v>      -0.21105935      -0.14924151       0.36556582 </v>
    </varray>
   </crystal>
   <varray name="positions" >
    <v>      -0.00000000       0.00000000      -0.00000000 </v>
   </varray>
  </structure>
  <varray name="forces" >
   <v>       0.00000000      -0.00000000      -0.00000000 </v>
  </varray>
  <varray name="stress" >
   <v>      -1.92919653      -0.00000000       0.00000084 </v>
   <v>       0.00000000      -1.92919612       0.00000059 </v>
   <v>       0.00000084       0.00000059      -1.92919614 </v>
  </varray>
  <energy>
   <i name="e_fr_energy">     -4.88406278 </i>
   <i name="e_wo_entrp">     -4.88323866 </i>
   <i name="e_0_energy">     -4.88365072 </i>
  </energy>
  <time name="totalsc">    7.36    7.59</time>
 </calculation>
 <calculation>
  <scstep>
   <time name="dav">    0.79    0.79</time>
   <time name="total">    1.04    1.04</time>
   <energy>
    <i name="alphaZ">      2.33132748 </i>
    <i name="ewald">   -136.63708807 </i>
    <i name="hartreedc">     -0.44824567 </i>
    <i name="XCdc">     -8.74720987 </i>
    <i name="pawpsdc">    296.67462011 </i>
    <i name="pawaedc">   -279.08797596 </i>
    <i name="eentropy">     -0.00082922 </i>
    <i name="bandstr">     17.96534307 </i>
    <i name="atom">    103.06596374 </i>
    <i name="e_fr_energy">     -4.88409439 </i>
    <i name="e_wo_entrp">     -4.88326517 </i>
    <i name="e_0_energy">     -4.88367978 </i>
   </energy>
  </scstep>
  <scstep>
   <time name="dav">    0.99    0.99</time>
   <time name="total">    1.24    1.26</time>
   <energy>
    <i name="e_fr_energy">     -4.88408742 </i>
    <i name="e_wo_entrp">     -4.88325885 </i>
    <i name="e_0_energy">     -4.88367314 </i>
   </energy>
  </scstep>
  <scstep>
   <time name="dav">    0.79    0.79</time>
   <time name="total">    1.04    1.06</time>
   <energy>
    <i name="e_fr_energy">     -4.88408372 </i>
    <i name="e_wo_entrp">     -4.88325607 </i>
    <i name="e_0_energy">     -4.88366990 </i>
   </energy>
  </scstep>
  <scstep>
   <time name="dav">    0.50    0.50</time>
   <time name="total">    0.74    0.76</time>
   <energy>
    <i name="e_fr_energy">     -4.88408374 </i>
    <i name="e_wo_entrp">     -4.88325608 </i>
    <i name="e_0_energy">     -4.88366991 </i>
   </energy>
  </scstep>
  <scstep>
   <time name="dav">    0.49    0.49</time>
   <time name="total">    0.74    0.75</time>
   <energy>
    <i name="e_fr_energy">     -4.88408392 </i>
    <i name="e_wo_entrp">     -4.88325625 </i>
    <i name="e_0_energy">     -4.88367009 </i>
   </energy>
  </scstep>
  <scstep>
   <time name="dav">    0.49    0.49</time>
   <time name="total">    0.68    0.69</time>
   <energy>
    <i name="alphaZ">      2.33132748 </i>
    <i name="ewald">   -136.63708807 </i>
    <i name="hartreedc">     -0.44418525 </i>
    <i name="XCdc">     -8.74639177 </i>
    <i name="pawpsdc">    298.14723065 </i>
    <i name="pawaedc">   -280.56098568 </i>
    <i name="eentropy">     -0.00082767 </i>
    <i name="bandstr">     17.96087267 </i>
    <i name="atom">    103.06596374 </i>
    <i name="e_fr_energy">     -4.88408390 </i>
    <i name="e_wo_entrp">     -4.88325623 </i>
    <i name="e_0_energy">     -4.88367007 </i>
   </energy>
  </scstep>
  <structure>
   <crystal>
    <varray name="basis" >
     <v>       2.36711523      -0.00000000       1.36665346 </v>
     <v>       0.78903841       2.23173741       1.36665346 </v>
     <v>      -0.00000001      -0.00000001       2.73330896 </v>
    </varray>
    <i name="volume">     14.43946894 </i>
    <varray name="rec_basis" >
     <v>       0.42245514      -0.14936046       0.00000000 </v>
     <v>       0.00000000       0.44808139       0.00000000 </v>
     <v>      -0.21122741      -0.14936035       0.36585692 </v>
    </varray>
   </crystal>
   <varray name="positions" >
    <v>      -0.00000000       0.00000000      -0.00000000 </v>
   </varray>
  </structure>
  <varray name="forces" >
   <v>       0.00000000      -0.00000000       0.00000000 </v>
  </varray>
  <varray name="stress" >
   <v>       0.01911453      -0.00000000      -0.00000001 </v>
   <v>       0.00000000       0.01911452      -0.00000001 </v>
   <v>      -0.00000001      -0.00000001       0.01911452 </v>
  </varray>
  <energy>
   <i name="e_fr_energy">     -4.88408390 </i>
   <i name="e_wo_entrp">     -4.88325623 </i>
   <i name="e_0_energy">     -4.88367007 </i>
  </energy>
  <time name="totalsc">    6.55    6.78</time>
  <eigenvalues>
   <array>
    <dimension dim="1">band</dimension>
    <dimension dim="2">kpoint</dimension>
    <dimension dim="3">spin</dimension>
    <field>eigene</field>
    <field>occ</field>
    <set>
     <set comment="spin 1">
      <set comment="kpoint 1">
       <r>   -4.2753    1.0000 </r>
       <r>   21.3625    0.0000 </r>
       <r>   21.3625    0.0000 </r>
       <r>   21.3626    0.0000 </r>
       <r>   22.1355    0.0000 </r>
       <r>   22.1355    0.0000 </r>
       <r>   22.1355    0.0000 </r>
       <r>   27.4768    0.0000 </r>
      </set>
      <set comment="kpoint 2">
       <r>   -4.1457    1.0000 </r>
       <r>   19.2075    0.0000 </r>
       <r>   20.6891    0.0000 </r>
       <r>   20.6891    0.0000 </r>
       <r>   22.9676    0.0000 </r>
       <r>   22.9676    0.0000 </r>
       <r>   23.1879    0.0000 </r>
       <r>   28.3607    0.0000 </r>
      </set>
      <set comment="kpoint 3">
       <r>   -3.7572    1.0000 </r>
       <r>   16.3777    0.0000 </r>
       <r>   19.9266    0.0000 </r>
       <r>   19.9266    0.0000 </r>
       <r>   23.4745    0.0000 </r>
       <r>   24.0611    0.0000 </r>
       <r>   24.0612    0.0000 </r>
       <r>   27.3300    0.0000 </r>
      </set>
      <set comment="kpoint 4">
       <r>   -3.1116    1.0000 </r>
       <r>   13.5477    0.0000 </r>
       <r>   19.3494    0.0000 </r>
       <r>   19.3495    0.0000 </r>
       <r>   23.4045    0.0000 </r>
       <r>   24.2832    0.0000 </r>
       <r>   24.2832    0.0000 </r>
       <r>   27.3087    0.0000 </r>
      </set>
      <set comment="kpoint 5">
       <r>   -2.2115    1.0000 </r>
       <r>   10.8446    0.0000 </r>
       <r>   18.9705    0.0000 </r>
       <r>   18.9705    0.0000 </r>
       <r>   23.3078    0.0000 </r>
       <r>   23.3913    0.0000 </r>
       <r>   23.3913    0.0000 </r>
       <r>   28.7040    0.0000 </r>
      </set>
      <set comment="kpoint 6">
       <r>   -1.0609    1.0000 </r>
       <r>    8.3199    1.0000 </r>
       <r>   18.7783    0.0000 </r>
       <r>   18.7784    0.0000 </r>
       <r>   22.3848    0.0000 </r>
       <r>   22.3848    0.0000 </r>
       <r>   23.2950    0.0000 </r>
       <r>   27.5398    0.0000 </r>
      </set>
      <set comment="kpoint 7">
       <r>    0.3329    1.0000 </r>
       <r>    6.0018    1.0000 </r>
       <r>   18.7374    0.0000 </r>
       <r>   18.7374    0.0000 </r>
       <r>   21.5796    0.0000 </r>
       <r>   21.5796    0.0000 </r>
       <r>   23.3814    0.0000 </r>
       <r>   26.6191    0.0000 </r>
      </set>
      <set comment="kpoint 8">
       <r>    1.9404    1.0000 </r>
       <r>    3.9301    1.0000 </r>
       <r>   18.7689    0.0000 </r>
       <r>   18.7689    0.0000 </r>
       <r>   21.1165    0.0000 </r>
       <r>   21.1165    0.0000 </r>
       <r>   23.4934    0.0000 </r>
       <r>   26.0776    0.0000 </r>
      </set>
      <set comment="kpoint 9">
       <r>   -4.1025    1.0000 </r>
       <r>   19.6851    0.0000 </r>
       <r>   19.6851    0.0000 </r>
       <r>   20.9596    0.0000 </r>
       <r>   21.2170    0.0000 </r>
       <r>   24.0294    0.0000 </r>
       <r>   24.0294    0.0000 </r>
       <r>   27.2409    0.0000 </r>
      </set>
      <set comment="kpoint 10">
       <r>   -3.8003    1.0000 </r>
       <r>   17.3853    0.0000 </r>
       <r>   18.8438    0.0000 </r>
       <r>   20.3983    0.0000 </r>
       <r>   21.7635    0.0000 </r>
       <r>   24.7476    0.0000 </r>
       <r>   25.1789    0.0000 </r>
       <r>   25.7718    0.0000 </r>
      </set>
      <set comment="kpoint 11">
       <r>   -3.2405    1.0000 </r>
       <r>   14.5704    0.0000 </r>
       <r>   18.2076    0.0000 </r>
       <r>   19.7664    0.0000 </r>
       <r>   22.4523    0.0000 </r>
       <r>   24.5454    0.0000 </r>
       <r>   25.3006    0.0000 </r>
       <r>   25.7911    0.0000 </r>
      </set>
      <set comment="kpoint 12">
       <r>   -2.4252    1.0000 </r>
       <r>   11.8278    0.0000 </r>
       <r>   17.7861    0.0000 </r>
       <r>   19.2555    0.0000 </r>
       <r>   21.8873    0.0000 </r>
       <r>   24.3834    0.0000 </r>
       <r>   25.1366    0.0000 </r>
       <r>   26.3341    0.0000 </r>
      </set>
      <set comment="kpoint 13">
       <r>   -1.3581    1.0000 </r>
       <r>    9.2447    1.0000 </r>
       <r>   17.5804    0.0000 </r>
       <r>   18.8210    0.0000 </r>
       <r>   21.0156    0.0000 </r>
       <r>   24.1007    0.0000 </r>
       <r>   24.3597    0.0000 </r>
       <r>   27.9291    0.0000 </r>
      </set>
      <set comment="kpoint 14">
       <r>   -0.0449    1.0000 </r>
       <r>    6.8578    1.0000 </r>
       <r>   17.5867    0.0000 </r>
       <r>   18.3486    0.0000 </r>
       <r>   20.4960    0.0000 </r>
       <r>   23.1429    0.0000 </r>
       <r>   24.3782    0.0000 </r>
       <r>   27.8377    0.0000 </r>
      </set>
      <set comment="kpoint 15">
       <r>    1.4998    1.0000 </r>
       <r>    4.6957    1.0000 </r>
       <r>   17.7954    0.0000 </r>
       <r>   17.8097    0.0000 </r>
       <r>   20.4568    0.0000 </r>
       <r>   22.3765    0.0000 </r>
       <r>   24.4021    0.0000 </r>
       <r>   27.2989    0.0000 </r>
      </set>
      <set comment="kpoint 16">
       <r>    2.5704    1.0000 </r>
       <r>    3.4704    1.0000 </r>
       <r>   17.3208    0.0000 </r>
       <r>   18.1854    0.0000 </r>
       <r>   20.8066    0.0000 </r>
       <r>   21.8539    0.0000 </r>
       <r>   24.3398    0.0000 </r>
       <r>   27.2106    0.0000 </r>
      </set>
      <set comment="kpoint 17">
       <r>    0.9615    1.0000 </r>
       <r>    5.3885    1.0000 </r>
       <r>   16.9790    0.0000 </r>
       <r>   18.7125    0.0000 </r>
       <r>   21.4522    0.0000 </r>
       <r>   21.6271    0.0000 </r>
       <r>   24.1902    0.0000 </r>
       <r>   27.6059    0.0000 </r>
      </set>
      <set comment="kpoint 18">
       <r>   -0.5095    1.0000 </r>
       <r>    7.6297    1.0000 </r>
       <r>   16.8287    0.0000 </r>
       <r>   19.2945    0.0000 </r>
       <r>   21.7717    0.0000 </r>
       <r>   22.3397    0.0000 </r>
       <r>   24.0569    0.0000 </r>
       <r>   28.3367    0.0000 </r>
      </set>
      <set comment="kpoint 19">
       <r>   -1.7416    1.0000 </r>
       <r>   10.0845    0.9941 </r>
       <r>   16.8881    0.0000 </r>
       <r>   19.8477    0.0000 </r>
       <r>   22.3355    0.0000 </r>
       <r>   23.4176    0.0000 </r>
       <r>   24.0056    0.0000 </r>
       <r>   27.9899    0.0000 </r>
      </set>
      <set comment="kpoint 20">
       <r>   -2.7252    1.0000 </r>
       <r>   12.7250    0.0000 </r>
       <r>   17.1646    0.0000 </r>
       <r>   20.3871    0.0000 </r>
       <r>   23.1416    0.0000 </r>
       <r>   24.0172    0.0000 </r>
       <r>   24.5648    0.0000 </r>
       <r>   26.3138    0.0000 </r>
      </set>
      <set comment="kpoint 21">
       <r>   -3.4556    1.0000 </r>
       <r>   15.5038    0.0000 </r>
       <r>   17.6602    0.0000 </r>
       <r>   20.9806    0.0000 </r>
       <r>   23.2494    0.0000 </r>
       <r>   23.9711    0.0000 </r>
       <r>   25.1856    0.0000 </r>
       <r>   25.8788    0.0000 </r>
      </set>
      <set comment="kpoint 22">
       <r>   -3.9298    1.0000 </r>
       <r>   18.2071    0.0000 </r>
       <r>   18.4664    0.0000 </r>
       <r>   21.4426    0.0000 </r>
       <r>   22.4696    0.0000 </r>
       <r>   23.6085    0.0000 </r>
       <r>   24.4912    0.0000 </r>
       <r>   26.9973    0.0000 </r>
      </set>
      <set comment="kpoint 23">
       <r>   -3.5847    1.0000 </r>
       <r>   17.9298    0.0000 </r>
       <r>   17.9298    0.0000 </r>
       <r>   19.5674    0.0000 </r>
       <r>   19.8882    0.0000 </r>
       <r>   23.9660    0.0000 </r>
       <r>   26.4038    0.0000 </r>
       <r>   26.4038    0.0000 </r>
      </set>
      <set comment="kpoint 24">
       <r>   -3.1113    1.0000 </r>
       <r>   15.7356    0.0000 </r>
       <r>   17.2226    0.0000 </r>
       <r>   19.0330    0.0000 </r>
       <r>   20.1405    0.0000 </r>
       <r>   22.6568    0.0000 </r>
       <r>   27.1207    0.0000 </r>
       <r>   27.3619    0.0000 </r>
      </set>
      <set comment="kpoint 25">
       <r>   -2.3820    1.0000 </r>
       <r>   13.0159    0.0000 </r>
       <r>   16.7330    0.0000 </r>
       <r>   18.3200    0.0000 </r>
       <r>   20.0290    0.0000 </r>
       <r>   23.0123    0.0000 </r>
       <r>   27.0944    0.0000 </r>
       <r>   27.2970    0.0000 </r>
      </set>
      <set comment="kpoint 26">
       <r>   -1.4000    1.0000 </r>
       <r>   10.3950    0.0000 </r>
       <r>   16.4641    0.0000 </r>
       <r>   17.4982    0.0000 </r>
       <r>   19.4290    0.0000 </r>
       <r>   24.4915    0.0000 </r>
       <r>   26.1359    0.0000 </r>
       <r>   27.4578    0.0000 </r>
      </set>
      <set comment="kpoint 27">
       <r>   -0.1698    1.0000 </r>
       <r>    7.9500    1.0000 </r>
       <r>   16.4161    0.0000 </r>
       <r>   16.5890    0.0000 </r>
       <r>   19.1833    0.0000 </r>
       <r>   25.1503    0.0000 </r>
       <r>   25.7534    0.0000 </r>
       <r>   28.1518    0.0000 </r>
      </set>
      <set comment="kpoint 28">
       <r>    1.2990    1.0000 </r>
       <r>    5.7146    1.0000 </r>
       <r>   15.7464    0.0000 </r>
       <r>   16.5867    0.0000 </r>
       <r>   19.2891    0.0000 </r>
       <r>   24.3062    0.0000 </r>
       <r>   26.1325    0.0000 </r>
       <r>   29.6562    0.0000 </r>
      </set>
      <set comment="kpoint 29">
       <r>    2.9091    1.0000 </r>
       <r>    3.7963    1.0000 </r>
       <r>   15.0672    0.0000 </r>
       <r>   16.9710    0.0000 </r>
       <r>   19.6825    0.0000 </r>
       <r>   23.6603    0.0000 </r>
       <r>   26.0426    0.0000 </r>
       <r>   29.7885    0.0000 </r>
      </set>
      <set comment="kpoint 30">
       <r>    1.8367    1.0000 </r>
       <r>    5.0221    1.0000 </r>
       <r>   14.5912    0.0000 </r>
       <r>   17.5592    0.0000 </r>
       <r>   20.3307    0.0000 </r>
       <r>   23.2397    0.0000 </r>
       <r>   25.8104    0.0000 </r>
       <r>   30.0921    0.0000 </r>
      </set>
      <set comment="kpoint 31">
       <r>    0.2939    1.0000 </r>
       <r>    7.1776    1.0000 </r>
       <r>   14.3358    0.0000 </r>
       <r>   18.3326    0.0000 </r>
       <r>   21.2125    0.0000 </r>
       <r>   23.0652    0.0000 </r>
       <r>   25.5792    0.0000 </r>
       <r>   29.6249    0.0000 </r>
      </set>
      <set comment="kpoint 32">
       <r>   -1.0174    1.0000 </r>
       <r>    9.5515    1.0000 </r>
       <r>   14.3103    0.0000 </r>
       <r>   19.2531    0.0000 </r>
       <r>   22.3015    0.0000 </r>
       <r>   23.1567    0.0000 </r>
       <r>   25.3908    0.0000 </r>
       <r>   27.4677    0.0000 </r>
      </set>
      <set comment="kpoint 33">
       <r>   -2.0828    1.0000 </r>
       <r>   12.1022    0.0000 </r>
       <r>   14.5278    0.0000 </r>
       <r>   20.2403    0.0000 </r>
       <r>   23.5013    0.0000 </r>
       <r>   23.5438    0.0000 </r>
       <r>   25.1777    0.0000 </r>
       <r>   25.5933    0.0000 </r>
      </set>
      <set comment="kpoint 34">
       <r>   -2.8967    1.0000 </r>
       <r>   14.5625    0.0000 </r>
       <r>   15.2089    0.0000 </r>
       <r>   21.0806    0.0000 </r>
       <r>   23.4687    0.0000 </r>
       <r>   24.7361    0.0000 </r>
       <r>   24.7591    0.0000 </r>
       <r>   24.8700    0.0000 </r>
      </set>
      <set comment="kpoint 35">
       <r>   -2.7246    1.0000 </r>
       <r>   16.4422    0.0000 </r>
       <r>   16.4422    0.0000 </r>
       <r>   17.9891    0.0000 </r>
       <r>   18.1370    0.0000 </r>
       <r>   20.9643    0.0000 </r>
       <r>   28.8220    0.0000 </r>
       <r>   28.8220    0.0000 </r>
      </set>
      <set comment="kpoint 36">
       <r>   -2.0820    1.0000 </r>
       <r>   14.3460    0.0000 </r>
       <r>   15.8794    0.0000 </r>
       <r>   16.9873    0.0000 </r>
       <r>   18.2511    0.0000 </r>
       <r>   20.5328    0.0000 </r>
       <r>   29.1443    0.0000 </r>
       <r>   29.5607    0.0000 </r>
      </set>
      <set comment="kpoint 37">
       <r>   -1.1862    1.0000 </r>
       <r>   11.7493    0.0000 </r>
       <r>   15.5389    0.0000 </r>
       <r>   15.7612    0.0000 </r>
       <r>   18.1549    0.0000 </r>
       <r>   21.7982    0.0000 </r>
       <r>   28.3437    0.0000 </r>
       <r>   29.7228    0.0000 </r>
      </set>
      <set comment="kpoint 38">
       <r>   -0.0412    1.0000 </r>
       <r>    9.2673    1.0000 </r>
       <r>   14.5923    0.0000 </r>
       <r>   15.4216    0.0000 </r>
       <r>   18.0398    0.0000 </r>
       <r>   23.6955    0.0000 </r>
       <r>   27.3804    0.0000 </r>
       <r>   29.6451    0.0000 </r>
      </set>
      <set comment="kpoint 39">
       <r>    1.3460    1.0000 </r>
       <r>    6.9723    1.0000 </r>
       <r>   13.5850    0.0000 </r>
       <r>   15.5272    0.0000 </r>
       <r>   18.1518    0.0000 </r>
       <r>   25.7051    0.0000 </r>
       <r>   26.5041    0.0000 </r>
       <r>   29.5230    0.0000 </r>
      </set>
      <set comment="kpoint 40">
       <r>    2.9485    1.0000 </r>
       <r>    4.9114    1.0000 </r>
       <r>   12.7829    0.0000 </r>
       <r>   15.8536    0.0000 </r>
       <r>   18.5109    0.0000 </r>
       <r>   25.7950    0.0000 </r>
       <r>   27.2340    0.0000 </r>
       <r>   29.8287    0.0000 </r>
      </set>
      <set comment="kpoint 41">
       <r>    2.9490    1.0000 </r>
       <r>    4.9084    1.0000 </r>
       <r>   12.2055    0.0000 </r>
       <r>   16.3967    0.0000 </r>
       <r>   19.1135    0.0000 </r>
       <r>   25.2884    0.0000 </r>
       <r>   27.5465    0.0000 </r>
       <r>   31.0154    0.0000 </r>
      </set>
      <set comment="kpoint 42">
       <r>    1.3455    1.0000 </r>
       <r>    6.9621    1.0000 </r>
       <r>   11.8652    0.0000 </r>
       <r>   17.1484    0.0000 </r>
       <r>   19.9495    0.0000 </r>
       <r>   25.0029    0.0000 </r>
       <r>   27.3064    0.0000 </r>
       <r>   29.4444    0.0000 </r>
      </set>
      <set comment="kpoint 43">
       <r>   -0.0420    1.0000 </r>
       <r>    9.2292    1.0000 </r>
       <r>   11.7836    0.0000 </r>
       <r>   18.0916    0.0000 </r>
       <r>   21.0016    0.0000 </r>
       <r>   24.9508    0.0000 </r>
       <r>   26.8971    0.0000 </r>
       <r>   27.1812    0.0000 </r>
      </set>
      <set comment="kpoint 44">
       <r>   -1.1871    1.0000 </r>
       <r>   11.3847    0.0000 </r>
       <r>   12.2446    0.0000 </r>
       <r>   19.1814    0.0000 </r>
       <r>   22.2333    0.0000 </r>
       <r>   25.1167    0.0000 </r>
       <r>   25.1624    0.0000 </r>
       <r>   26.2251    0.0000 </r>
      </set>
      <set comment="kpoint 45">
       <r>   -1.5266    1.0000 </r>
       <r>   15.2426    0.0000 </r>
       <r>   15.2426    0.0000 </r>
       <r>   15.4080    0.0000 </r>
       <r>   16.6693    0.0000 </r>
       <r>   19.1163    0.0000 </r>
       <r>   31.1363    0.0000 </r>
       <r>   31.1363    0.0000 </r>
      </set>
      <set comment="kpoint 46">
       <r>   -0.7179    1.0000 </r>
       <r>   13.2075    0.0000 </r>
       <r>   14.0300    0.0000 </r>
       <r>   14.8281    0.0000 </r>
       <r>   16.9862    0.0000 </r>
       <r>   19.3053    0.0000 </r>
       <r>   30.6275    0.0000 </r>
       <r>   31.8127    0.0000 </r>
      </set>
      <set comment="kpoint 47">
       <r>    0.3404    1.0000 </r>
       <r>   10.7749    0.0000 </r>
       <r>   12.6842    0.0000 </r>
       <r>   14.6378    0.0000 </r>
       <r>   17.0828    0.0000 </r>
       <r>   20.9158    0.0000 </r>
       <r>   29.7489    0.0000 </r>
       <r>   31.8297    0.0000 </r>
      </set>
      <set comment="kpoint 48">
       <r>    1.6423    1.0000 </r>
       <r>    8.4497    1.0000 </r>
       <r>   11.5487    0.0000 </r>
       <r>   14.6720    0.0000 </r>
       <r>   17.1893    0.0000 </r>
       <r>   23.0438    0.0000 </r>
       <r>   28.8778    0.0000 </r>
       <r>   31.4681    0.0000 </r>
      </set>
      <set comment="kpoint 49">
       <r>    3.1741    1.0000 </r>
       <r>    6.3187    1.0000 </r>
       <r>   10.6409    0.0000 </r>
       <r>   14.9298    0.0000 </r>
       <r>   17.4987    0.0000 </r>
       <r>   25.3536    0.0000 </r>
       <r>   28.1309    0.0000 </r>
       <r>   30.9214    0.0000 </r>
      </set>
      <set comment="kpoint 50">
       <r>    4.2543    1.0000 </r>
       <r>    5.0804    1.0000 </r>
       <r>    9.9738    1.0000 </r>
       <r>   15.4090    0.0000 </r>
       <r>   18.0410    0.0000 </r>
       <r>   27.5597    0.0000 </r>
       <r>   27.6044    0.0000 </r>
       <r>   30.3288    0.0000 </r>
      </set>
      <set comment="kpoint 51">
       <r>    2.6398    1.0000 </r>
       <r>    6.9632    1.0000 </r>
       <r>    9.5727    1.0000 </r>
       <r>   16.1050    0.0000 </r>
       <r>   18.8165    0.0000 </r>
       <r>   27.1811    0.0000 </r>
       <r>   28.9225    0.0000 </r>
       <r>   29.5132    0.0000 </r>
      </set>
      <set comment="kpoint 52">
       <r>    1.1800    1.0000 </r>
       <r>    8.8059    1.0000 </r>
       <r>    9.7486    1.0000 </r>
       <r>   17.0080    0.0000 </r>
       <r>   19.8132    0.0000 </r>
       <r>   26.8209    0.0000 </r>
       <r>   27.3794    0.0000 </r>
       <r>   28.2163    0.0000 </r>
      </set>
      <set comment="kpoint 53">
       <r>    0.0030    1.0000 </r>
       <r>   12.3076    0.0000 </r>
       <r>   14.3391    0.0000 </r>
       <r>   14.3392    0.0000 </r>
       <r>   15.6599    0.0000 </r>
       <r>   18.0454    0.0000 </r>
       <r>   32.5530    0.0000 </r>
       <r>   33.2356    0.0000 </r>
      </set>
      <set comment="kpoint 54">
       <r>    0.9731    1.0000 </r>
       <r>   10.8496    0.0000 </r>
       <r>   12.5223    0.0000 </r>
       <r>   14.0746    0.0000 </r>
       <r>   16.1429    0.0000 </r>
       <r>   18.5047    0.0000 </r>
       <r>   32.1128    0.0000 </r>
       <r>   33.7640    0.0000 </r>
      </set>
      <set comment="kpoint 55">
       <r>    2.1865    1.0000 </r>
       <r>    9.5432    1.0000 </r>
       <r>   10.2883    0.0006 </r>
       <r>   14.0353    0.0000 </r>
       <r>   16.4063    0.0000 </r>
       <r>   20.3245    0.0000 </r>
       <r>   31.3228    0.0000 </r>
       <r>   33.5477    0.0000 </r>
      </set>
      <set comment="kpoint 56">
       <r>    3.6318    1.0000 </r>
       <r>    7.8827    1.0000 </r>
       <r>    8.7747    1.0000 </r>
       <r>   14.2208    0.0000 </r>
       <r>   16.6901    0.0000 </r>
       <r>   22.6354    0.0000 </r>
       <r>   30.5710    0.0000 </r>
       <r>   32.8789    0.0000 </r>
      </set>
      <set comment="kpoint 57">
       <r>    5.2313    1.0000 </r>
       <r>    6.0083    1.0000 </r>
       <r>    7.9892    1.0000 </r>
       <r>   14.6300    0.0000 </r>
       <r>   17.1731    0.0000 </r>
       <r>   25.1384    0.0000 </r>
       <r>   29.9236    0.0000 </r>
       <r>   31.9184    0.0000 </r>
      </set>
      <set comment="kpoint 58">
       <r>    4.1643    1.0000 </r>
       <r>    6.8615    1.0000 </r>
       <r>    7.8311    1.0000 </r>
       <r>   15.2601    0.0000 </r>
       <r>   17.8830    0.0000 </r>
       <r>   27.6464    0.0000 </r>
       <r>   29.1562    0.0000 </r>
       <r>   30.1769    0.0000 </r>
      </set>
      <set comment="kpoint 59">
       <r>    1.8532    1.0000 </r>
       <r>    9.3190    1.0000 </r>
       <r>   13.7355    0.0000 </r>
       <r>   13.7355    0.0000 </r>
       <r>   14.9808    0.0000 </r>
       <r>   17.3818    0.0000 </r>
       <r>   33.7930    0.0000 </r>
       <r>   35.0318    0.0000 </r>
      </set>
      <set comment="kpoint 60">
       <r>    2.9735    1.0000 </r>
       <r>    7.9947    1.0000 </r>
       <r>   12.0322    0.0000 </r>
       <r>   13.6218    0.0000 </r>
       <r>   15.6408    0.0000 </r>
       <r>   18.0321    0.0000 </r>
       <r>   33.5585    0.0000 </r>
       <r>   35.3049    0.0000 </r>
      </set>
      <set comment="kpoint 61">
       <r>    4.3106    1.0000 </r>
       <r>    6.9182    1.0000 </r>
       <r>    9.8824    1.0000 </r>
       <r>   13.7335    0.0000 </r>
       <r>   16.0708    0.0000 </r>
       <r>   20.0265    0.0000 </r>
       <r>   32.8750    0.0000 </r>
       <r>   34.6946    0.0000 </r>
      </set>
      <set comment="kpoint 62">
       <r>    5.5627    1.0000 </r>
       <r>    6.3544    1.0000 </r>
       <r>    7.9167    1.0000 </r>
       <r>   14.0702    0.0000 </r>
       <r>   16.5241    0.0000 </r>
       <r>   22.4969    0.0000 </r>
       <r>   31.9002    0.0000 </r>
       <r>   33.2928    0.0000 </r>
      </set>
      <set comment="kpoint 63">
       <r>    3.9830    1.0000 </r>
       <r>    6.6044    1.0000 </r>
       <r>   13.4334    0.0000 </r>
       <r>   13.4334    0.0000 </r>
       <r>   14.6397    0.0000 </r>
       <r>   17.0553    0.0000 </r>
       <r>   34.6858    0.0000 </r>
       <r>   36.2481    0.0000 </r>
      </set>
      <set comment="kpoint 64">
       <r>    4.9129    1.0000 </r>
       <r>    5.7632    1.0000 </r>
       <r>   11.8717    0.0000 </r>
       <r>   13.4707    0.0000 </r>
       <r>   15.4736    0.0000 </r>
       <r>   17.8749    0.0000 </r>
       <r>   34.3634    0.0000 </r>
       <r>   35.9652    0.0000 </r>
      </set>
      <set comment="kpoint 65">
       <r>   -3.4125    1.0000 </r>
       <r>   16.4064    0.0000 </r>
       <r>   16.8269    0.0000 </r>
       <r>   20.7306    0.0000 </r>
       <r>   21.3388    0.0000 </r>
       <r>   24.3013    0.0000 </r>
       <r>   25.6625    0.0000 </r>
       <r>   26.0260    0.0000 </r>
      </set>
      <set comment="kpoint 66">
       <r>   -2.7679    1.0000 </r>
       <r>   13.8163    0.0000 </r>
       <r>   16.0926    0.0000 </r>
       <r>   20.0808    0.0000 </r>
       <r>   21.7709    0.0000 </r>
       <r>   23.8497    0.0000 </r>
       <r>   25.8757    0.0000 </r>
       <r>   26.1105    0.0000 </r>
      </set>
      <set comment="kpoint 67">
       <r>   -1.8692    1.0000 </r>
       <r>   11.1466    0.0000 </r>
       <r>   15.7352    0.0000 </r>
       <r>   19.2092    0.0000 </r>
       <r>   21.3330    0.0000 </r>
       <r>   24.4209    0.0000 </r>
       <r>   25.3429    0.0000 </r>
       <r>   26.4972    0.0000 </r>
      </set>
      <set comment="kpoint 68">
       <r>   -0.7205    1.0000 </r>
       <r>    8.6362    1.0000 </r>
       <r>   15.6048    0.0000 </r>
       <r>   18.2718    0.0000 </r>
       <r>   21.0065    0.0000 </r>
       <r>   23.6483    0.0000 </r>
       <r>   25.6095    0.0000 </r>
       <r>   27.8808    0.0000 </r>
      </set>
      <set comment="kpoint 69">
       <r>    0.6713    1.0000 </r>
       <r>    6.3260    1.0000 </r>
       <r>   15.6886    0.0000 </r>
       <r>   17.4077    0.0000 </r>
       <r>   20.9682    0.0000 </r>
       <r>   22.7730    0.0000 </r>
       <r>   25.7595    0.0000 </r>
       <r>   29.3019    0.0000 </r>
      </set>
      <set comment="kpoint 70">
       <r>    2.2775    1.0000 </r>
       <r>    4.2579    1.0000 </r>
       <r>   15.9324    0.0000 </r>
       <r>   16.7571    0.0000 </r>
       <r>   21.1105    0.0000 </r>
       <r>   22.1652    0.0000 </r>
       <r>   25.8502    0.0000 </r>
       <r>   29.0437    0.0000 </r>
      </set>
      <set comment="kpoint 71">
       <r>   -2.5532    1.0000 </r>
       <r>   14.8542    0.0000 </r>
       <r>   15.3576    0.0000 </r>
       <r>   18.7348    0.0000 </r>
       <r>   19.8661    0.0000 </r>
       <r>   21.7436    0.0000 </r>
       <r>   27.6023    0.0000 </r>
       <r>   28.2539    0.0000 </r>
      </set>
      <set comment="kpoint 72">
       <r>   -1.7406    1.0000 </r>
       <r>   12.4026    0.0000 </r>
       <r>   14.7325    0.0000 </r>
       <r>   17.5636    0.0000 </r>
       <r>   20.0828    0.0000 </r>
       <r>   22.4335    0.0000 </r>
       <r>   26.8762    0.0000 </r>
       <r>   28.7121    0.0000 </r>
      </set>
      <set comment="kpoint 73">
       <r>   -0.6769    1.0000 </r>
       <r>    9.8657    1.0000 </r>
       <r>   14.5072    0.0000 </r>
       <r>   16.3750    0.0000 </r>
       <r>   19.9397    0.0000 </r>
       <r>   24.0689    0.0000 </r>
       <r>   25.9627    0.0000 </r>
       <r>   28.8508    0.0000 </r>
      </set>
      <set comment="kpoint 74">
       <r>    0.6322    1.0000 </r>
       <r>    7.4996    1.0000 </r>
       <r>   14.4644    0.0000 </r>
       <r>   15.3858    0.0000 </r>
       <r>   19.9629    0.0000 </r>
       <r>   24.6179    0.0000 </r>
       <r>   26.3296    0.0000 </r>
       <r>   29.0594    0.0000 </r>
      </set>
      <set comment="kpoint 75">
       <r>    2.1727    1.0000 </r>
       <r>    5.3487    1.0000 </r>
       <r>   14.2151    0.0000 </r>
       <r>   15.0303    0.0000 </r>
       <r>   20.2108    0.0000 </r>
       <r>   23.9423    0.0000 </r>
       <r>   27.4833    0.0000 </r>
       <r>   29.8523    0.0000 </r>
      </set>
      <set comment="kpoint 76">
       <r>    3.2469    1.0000 </r>
       <r>    4.1207    1.0000 </r>
       <r>   13.6637    0.0000 </r>
       <r>   15.4216    0.0000 </r>
       <r>   20.6767    0.0000 </r>
       <r>   23.3827    0.0000 </r>
       <r>   27.6844    0.0000 </r>
       <r>   30.9925    0.0000 </r>
      </set>
      <set comment="kpoint 77">
       <r>    1.6355    1.0000 </r>
       <r>    6.0367    1.0000 </r>
       <r>   13.2652    0.0000 </r>
       <r>   16.1090    0.0000 </r>
       <r>   21.3275    0.0000 </r>
       <r>   23.0592    0.0000 </r>
       <r>   27.4291    0.0000 </r>
       <r>   29.8060    0.0000 </r>
      </set>
      <set comment="kpoint 78">
       <r>    0.1688    1.0000 </r>
       <r>    8.2599    1.0000 </r>
       <r>   13.0892    0.0000 </r>
       <r>   17.0177    0.0000 </r>
       <r>   22.0440    0.0000 </r>
       <r>   23.0782    0.0000 </r>
       <r>   26.6329    0.0000 </r>
       <r>   28.2895    0.0000 </r>
      </set>
      <set comment="kpoint 79">
       <r>   -1.0594    1.0000 </r>
       <r>   10.6713    0.0000 </r>
       <r>   13.1608    0.0000 </r>
       <r>   18.1096    0.0000 </r>
       <r>   22.5437    0.0000 </r>
       <r>   23.5489    0.0000 </r>
       <r>   25.1654    0.0000 </r>
       <r>   27.6466    0.0000 </r>
      </set>
      <set comment="kpoint 80">
       <r>   -2.0399    1.0000 </r>
       <r>   12.9814    0.0000 </r>
       <r>   13.7344    0.0000 </r>
       <r>   19.2972    0.0000 </r>
       <r>   22.5806    0.0000 </r>
       <r>   23.3309    0.0000 </r>
       <r>   25.1212    0.0000 </r>
       <r>   27.0588    0.0000 </r>
      </set>
      <set comment="kpoint 81">
       <r>   -1.3563    1.0000 </r>
       <r>   13.5959    0.0000 </r>
       <r>   14.1088    0.0000 </r>
       <r>   15.7866    0.0000 </r>
       <r>   18.6187    0.0000 </r>
       <r>   20.2367    0.0000 </r>
       <r>   28.9776    0.0000 </r>
       <r>   30.7882    0.0000 </r>
      </set>
      <set comment="kpoint 82">
       <r>   -0.3790    1.0000 </r>
       <r>   11.2845    0.0000 </r>
       <r>   13.5655    0.0000 </r>
       <r>   14.5055    0.0000 </r>
       <r>   18.9388    0.0000 </r>
       <r>   21.4203    0.0000 </r>
       <r>   28.1177    0.0000 </r>
       <r>   31.2307    0.0000 </r>
      </set>
      <set comment="kpoint 83">
       <r>    0.8449    1.0000 </r>
       <r>    8.8940    1.0000 </r>
       <r>   13.0115    0.0000 </r>
       <r>   13.8157    0.0000 </r>
       <r>   18.9972    0.0000 </r>
       <r>   23.3904    0.0000 </r>
       <r>   27.2104    0.0000 </r>
       <r>   31.1563    0.0000 </r>
      </set>
      <set comment="kpoint 84">
       <r>    2.3063    1.0000 </r>
       <r>    6.6836    1.0000 </r>
       <r>   12.1372    0.0000 </r>
       <r>   13.9013    0.0000 </r>
       <r>   19.2156    0.0000 </r>
       <r>   25.3494    0.0000 </r>
       <r>   26.6444    0.0000 </r>
       <r>   30.8113    0.0000 </r>
      </set>
      <set comment="kpoint 85">
       <r>    3.9181    1.0000 </r>
       <r>    4.7675    1.0000 </r>
       <r>   11.4135    0.0000 </r>
       <r>   14.2997    0.0000 </r>
       <r>   19.6495    0.0000 </r>
       <r>   25.4789    0.0000 </r>
       <r>   28.0315    0.0000 </r>
       <r>   30.2028    0.0000 </r>
      </set>
      <set comment="kpoint 86">
       <r>    2.8420    1.0000 </r>
       <r>    5.9879    1.0000 </r>
       <r>   10.9169    0.0000 </r>
       <r>   14.9406    0.0000 </r>
       <r>   20.3012    0.0000 </r>
       <r>   25.0833    0.0000 </r>
       <r>   28.7766    0.0000 </r>
       <r>   29.6588    0.0000 </r>
      </set>
      <set comment="kpoint 87">
       <r>    1.3056    1.0000 </r>
       <r>    8.0974    1.0000 </r>
       <r>   10.6795    0.0000 </r>
       <r>   15.8067    0.0000 </r>
       <r>   21.1551    0.0000 </r>
       <r>   24.8372    0.0000 </r>
       <r>   26.9068    0.0000 </r>
       <r>   29.6107    0.0000 </r>
      </set>
      <set comment="kpoint 88">
       <r>    0.0007    1.0000 </r>
       <r>   10.0979    0.9839 </r>
       <r>   11.0015    0.0000 </r>
       <r>   16.8793    0.0000 </r>
       <r>   22.1598    0.0000 </r>
       <r>   24.4714    0.0000 </r>
       <r>   25.2124    0.0000 </r>
       <r>   28.8638    0.0000 </r>
      </set>
      <set comment="kpoint 89">
       <r>    0.1718    1.0000 </r>
       <r>   12.3623    0.0000 </r>
       <r>   12.6456    0.0000 </r>
       <r>   13.4500    0.0000 </r>
       <r>   17.6630    0.0000 </r>
       <r>   19.2764    0.0000 </r>
       <r>   30.4116    0.0000 </r>
       <r>   33.0765    0.0000 </r>
      </set>
      <set comment="kpoint 90">
       <r>    1.3085    1.0000 </r>
       <r>   10.4271    0.0000 </r>
       <r>   11.2515    0.0000 </r>
       <r>   12.9989    0.0000 </r>
       <r>   18.1409    0.0000 </r>
       <r>   20.6961    0.0000 </r>
       <r>   29.5991    0.0000 </r>
       <r>   33.3093    0.0000 </r>
      </set>
      <set comment="kpoint 91">
       <r>    2.6844    1.0000 </r>
       <r>    8.2257    1.0000 </r>
       <r>   10.1697    0.5447 </r>
       <r>   13.0706    0.0000 </r>
       <r>   18.3709    0.0000 </r>
       <r>   22.8742    0.0000 </r>
       <r>   28.7878    0.0000 </r>
       <r>   32.7262    0.0000 </r>
      </set>
      <set comment="kpoint 92">
       <r>    4.2737    1.0000 </r>
       <r>    6.1956    1.0000 </r>
       <r>    9.3359    1.0000 </r>
       <r>   13.4059    0.0000 </r>
       <r>   18.7587    0.0000 </r>
       <r>   25.2420    0.0000 </r>
       <r>   28.1391    0.0000 </r>
       <r>   31.4301    0.0000 </r>
      </set>
      <set comment="kpoint 93">
       <r>    4.2787    1.0000 </r>
       <r>    6.1611    1.0000 </r>
       <r>    8.7700    1.0000 </r>
       <r>   13.9804    0.0000 </r>
       <r>   19.3575    0.0000 </r>
       <r>   27.0822    0.0000 </r>
       <r>   28.1557    0.0000 </r>
       <r>   29.4813    0.0000 </r>
      </set>
      <set comment="kpoint 94">
       <r>    2.6832    1.0000 </r>
       <r>    7.8345    1.0000 </r>
       <r>    8.7864    1.0000 </r>
       <r>   14.7846    0.0000 </r>
       <r>   20.1667    0.0000 </r>
       <r>   26.9509    0.0000 </r>
       <r>   27.1389    0.0000 </r>
       <r>   30.1879    0.0000 </r>
      </set>
      <set comment="kpoint 95">
       <r>    2.0201    1.0000 </r>
       <r>    9.4665    1.0000 </r>
       <r>   12.0094    0.0000 </r>
       <r>   12.7254    0.0000 </r>
       <r>   17.0195    0.0000 </r>
       <r>   18.6568    0.0000 </r>
       <r>   31.9671    0.0000 </r>
       <r>   34.9930    0.0000 </r>
      </set>
      <set comment="kpoint 96">
       <r>    3.3041    1.0000 </r>
       <r>    8.2927    1.0000 </r>
       <r>   10.0640    0.9990 </r>
       <r>   12.4983    0.0000 </r>
       <r>   17.6618    0.0000 </r>
       <r>   20.2566    0.0000 </r>
       <r>   31.2652    0.0000 </r>
       <r>   34.1926    0.0000 </r>
      </set>
      <set comment="kpoint 97">
       <r>    4.7978    1.0000 </r>
       <r>    7.2936    1.0000 </r>
       <r>    8.0893    1.0000 </r>
       <r>   12.7467    0.0000 </r>
       <r>   18.0561    0.0000 </r>
       <r>   22.6049    0.0000 </r>
       <r>   30.5670    0.0000 </r>
       <r>   32.3070    0.0000 </r>
      </set>
      <set comment="kpoint 98">
       <r>    5.8928    1.0000 </r>
       <r>    6.2123    1.0000 </r>
       <r>    7.2488    1.0000 </r>
       <r>   13.2460    0.0000 </r>
       <r>   18.6049    0.0000 </r>
       <r>   25.1537    0.0000 </r>
       <r>   29.9356    0.0000 </r>
       <r>   30.0087    0.0000 </r>
      </set>
      <set comment="kpoint 99">
       <r>    4.1471    1.0000 </r>
       <r>    6.7641    1.0000 </r>
       <r>   11.6907    0.0000 </r>
       <r>   12.4016    0.0000 </r>
       <r>   16.6965    0.0000 </r>
       <r>   18.3481    0.0000 </r>
       <r>   33.4834    0.0000 </r>
       <r>   35.0005    0.0000 </r>
      </set>
      <set comment="kpoint 100">
       <r>    5.2378    1.0000 </r>
       <r>    6.0827    1.0000 </r>
       <r>    9.8885    1.0000 </r>
       <r>   12.3371    0.0000 </r>
       <r>   17.5016    0.0000 </r>
       <r>   20.1090    0.0000 </r>
       <r>   32.7669    0.0000 </r>
       <r>   33.2060    0.0000 </r>
      </set>
      <set comment="kpoint 101">
       <r>   -0.8463    1.0000 </r>
       <r>   11.7039    0.0000 </r>
       <r>   12.5005    0.0000 </r>
       <r>   16.2502    0.0000 </r>
       <r>   21.4095    0.0000 </r>
       <r>   22.3496    0.0000 </r>
       <r>   25.9634    0.0000 </r>
       <r>   29.9151    0.0000 </r>
      </set>
      <set comment="kpoint 102">
       <r>    0.2968    1.0000 </r>
       <r>    9.5457    1.0000 </r>
       <r>   12.0575    0.0000 </r>
       <r>   15.0252    0.0000 </r>
       <r>   21.6842    0.0000 </r>
       <r>   23.6450    0.0000 </r>
       <r>   25.2337    0.0000 </r>
       <r>   30.4709    0.0000 </r>
      </set>
      <set comment="kpoint 103">
       <r>    1.6818    1.0000 </r>
       <r>    7.2844    1.0000 </r>
       <r>   12.1230    0.0000 </r>
       <r>   14.0106    0.0000 </r>
       <r>   21.7709    0.0000 </r>
       <r>   23.6929    0.0000 </r>
       <r>   26.4365    0.0000 </r>
       <r>   30.5487    0.0000 </r>
      </set>
      <set comment="kpoint 104">
       <r>    3.2828    1.0000 </r>
       <r>    5.2340    1.0000 </r>
       <r>   12.3756    0.0000 </r>
       <r>   13.2869    0.0000 </r>
       <r>   21.9318    0.0000 </r>
       <r>   23.2002    0.0000 </r>
       <r>   28.4575    0.0000 </r>
       <r>   30.0333    0.0000 </r>
      </set>
      <set comment="kpoint 105">
       <r>    0.6773    1.0000 </r>
       <r>   10.7410    0.0000 </r>
       <r>   11.4970    0.0000 </r>
       <r>   13.1433    0.0000 </r>
       <r>   20.4890    0.0000 </r>
       <r>   21.5800    0.0000 </r>
       <r>   27.2388    0.0000 </r>
       <r>   32.6045    0.0000 </r>
      </set>
      <set comment="kpoint 106">
       <r>    1.9770    1.0000 </r>
       <r>    8.7316    1.0000 </r>
       <r>   11.1410    0.0000 </r>
       <r>   12.0785    0.0000 </r>
       <r>   20.9751    0.0000 </r>
       <r>   23.2625    0.0000 </r>
       <r>   26.3982    0.0000 </r>
       <r>   32.6333    0.0000 </r>
      </set>
      <set comment="kpoint 107">
       <r>    3.5065    1.0000 </r>
       <r>    6.6322    1.0000 </r>
       <r>   10.8201    0.0000 </r>
       <r>   11.7330    0.0000 </r>
       <r>   21.2804    0.0000 </r>
       <r>   24.8479    0.0000 </r>
       <r>   26.3405    0.0000 </r>
       <r>   31.1312    0.0000 </r>
      </set>
      <set comment="kpoint 108">
       <r>    4.5868    1.0000 </r>
       <r>    5.4015    1.0000 </r>
       <r>   10.2480    0.0178 </r>
       <r>   12.1406    0.0000 </r>
       <r>   21.7481    0.0000 </r>
       <r>   24.6690    0.0000 </r>
       <r>   28.0278    0.0000 </r>
       <r>   29.2685    0.0000 </r>
      </set>
      <set comment="kpoint 109">
       <r>    2.9731    1.0000 </r>
       <r>    7.2851    1.0000 </r>
       <r>    9.8668    1.0000 </r>
       <r>   12.8637    0.0000 </r>
       <r>   22.3690    0.0000 </r>
       <r>   24.3111    0.0000 </r>
       <r>   26.5060    0.0000 </r>
       <r>   30.7115    0.0000 </r>
      </set>
      <set comment="kpoint 110">
       <r>    1.5164    1.0000 </r>
       <r>    9.1295    1.0000 </r>
       <r>   10.0379    0.9999 </r>
       <r>   13.8332    0.0000 </r>
       <r>   23.0027    0.0000 </r>
       <r>   23.6106    0.0000 </r>
       <r>   25.0170    0.0000 </r>
       <r>   31.9008    0.0000 </r>
      </set>
      <set comment="kpoint 111">
       <r>    2.5196    1.0000 </r>
       <r>    9.8412    1.0000 </r>
       <r>   10.0975    0.9844 </r>
       <r>   11.1689    0.0000 </r>
       <r>   19.8642    0.0000 </r>
       <r>   21.0419    0.0000 </r>
       <r>   28.8163    0.0000 </r>
       <r>   33.8052    0.0000 </r>
      </set>
      <set comment="kpoint 112">
       <r>    3.9620    1.0000 </r>
       <r>    8.1838    1.0000 </r>
       <r>    9.0231    1.0000 </r>
       <r>   10.9246    0.0000 </r>
       <r>   20.5313    0.0000 </r>
       <r>   22.9216    0.0000 </r>
       <r>   28.0462    0.0000 </r>
       <r>   31.8354    0.0000 </r>
      </set>
      <set comment="kpoint 113">
       <r>    5.5615    1.0000 </r>
       <r>    6.3223    1.0000 </r>
       <r>    8.2854    1.0000 </r>
       <r>   11.2987    0.0000 </r>
       <r>   21.0062    0.0000 </r>
       <r>   25.2422    0.0000 </r>
       <r>   27.4404    0.0000 </r>
       <r>   29.5282    0.0000 </r>
      </set>
      <set comment="kpoint 114">
       <r>    4.4931    1.0000 </r>
       <r>    7.1861    1.0000 </r>
       <r>    8.1320    1.0000 </r>
       <r>   11.9566    0.0000 </r>
       <r>   21.6368    0.0000 </r>
       <r>   26.4015    0.0000 </r>
       <r>   26.5973    0.0000 </r>
       <r>   28.8404    0.0000 </r>
      </set>
      <set comment="kpoint 115">
       <r>    4.6381    1.0000 </r>
       <r>    7.2337    1.0000 </r>
       <r>    9.7752    1.0000 </r>
       <r>   10.7511    0.0000 </r>
       <r>   19.5492    0.0000 </r>
       <r>   20.7658    0.0000 </r>
       <r>   30.5997    0.0000 </r>
       <r>   32.4240    0.0000 </r>
      </set>
      <set comment="kpoint 116">
       <r>    5.8876    1.0000 </r>
       <r>    6.6794    1.0000 </r>
       <r>    8.1738    1.0000 </r>
       <r>   10.7367    0.0000 </r>
       <r>   20.3812    0.0000 </r>
       <r>   22.7988    0.0000 </r>
       <r>   29.6870    0.0000 </r>
       <r>   30.2193    0.0000 </r>
      </set>
      <set comment="kpoint 117">
       <r>    3.3475    1.0000 </r>
       <r>    8.4827    1.0000 </r>
       <r>    9.3208    1.0000 </r>
       <r>   10.9471    0.0000 </r>
       <r>   23.0121    0.0000 </r>
       <r>   23.4105    0.0000 </r>
       <r>   25.7217    0.0000 </r>
       <r>   31.3384    0.0000 </r>
      </set>
      <set comment="kpoint 118">
       <r>    4.9326    1.0000 </r>
       <r>    6.7993    1.0000 </r>
       <r>    9.2447    1.0000 </r>
       <r>   10.1953    0.2695 </r>
       <r>   23.3669    0.0000 </r>
       <r>   24.4609    0.0000 </r>
       <r>   26.1915    0.0000 </r>
       <r>   29.0895    0.0000 </r>
      </set>
      <set comment="kpoint 119">
       <r>    5.4488    1.0000 </r>
       <r>    7.9241    1.0000 </r>
       <r>    8.1591    1.0000 </r>
       <r>    9.3382    1.0000 </r>
       <r>   22.7084    0.0000 </r>
       <r>   23.3719    0.0000 </r>
       <r>   27.2790    0.0000 </r>
       <r>   29.4961    0.0000 </r>
      </set>
      <set comment="kpoint 120">
       <r>    6.5315    1.0000 </r>
       <r>    6.8618    1.0000 </r>
       <r>    7.7534    1.0000 </r>
       <r>    9.4122    1.0000 </r>
       <r>   23.4299    0.0000 </r>
       <r>   25.2744    0.0000 </r>
       <r>   26.1162    0.0000 </r>
       <r>   27.9120    0.0000 </r>
      </set>
     </set>
    </set>
   </array>
  </eigenvalues>
  <separator name="orbital magnetization" >
   <v name="MAGDIPOLOUT">      0.00000000      0.00000000      0.00000000</v>
  </separator>
  <dos>
   <i name="efermi">     10.17363274 </i>
   <total>
    <array>
     <dimension dim="1">gridpoints</dimension>
     <dimension dim="2">spin</dimension>
     <field>energy</field>
     <field>total</field>
     <field>integrated</field>
     <set>
      <set comment="spin 1">
       <r>    -6.3015     0.0000     0.0000 </r>
       <r>    -6.1529     0.0000     0.0000 </r>
       <r>    -6.0043     0.0000     0.0000 </r>
       <r>    -5.8557     0.0000     0.0000 </r>
       <r>    -5.7071     0.0000     0.0000 </r>
       <r>    -5.5585     0.0000     0.0000 </r>
       <r>    -5.4100     0.0000     0.0000 </r>
       <r>    -5.2614     0.0000     0.0000 </r>
       <r>    -5.1128     0.0000     0.0000 </r>
       <r>    -4.9642     0.0000     0.0000 </r>
       <r>    -4.8156     0.0000     0.0000 </r>
       <r>    -4.6670     0.0000     0.0000 </r>
       <r>    -4.5184     0.0000     0.0000 </r>
       <r>    -4.3699     0.0000     0.0000 </r>
       <r>    -4.2213     0.0042     0.0006 </r>
       <r>    -4.0727     0.0502     0.0081 </r>
       <r>    -3.9241     0.0324     0.0129 </r>
       <r>    -3.7755     0.1031     0.0282 </r>
       <r>    -3.6269     0.0481     0.0354 </r>
       <r>    -3.4783     0.0490     0.0427 </r>
       <r>    -3.3298     0.1632     0.0669 </r>
       <r>    -3.1812     0.0947     0.0810 </r>
       <r>    -3.0326     0.1274     0.0999 </r>
       <r>    -2.8840     0.0324     0.1047 </r>
       <r>    -2.7354     0.2204     0.1375 </r>
       <r>    -2.5868     0.1242     0.1559 </r>
       <r>    -2.4382     0.1188     0.1736 </r>
       <r>    -2.2897     0.1520     0.1961 </r>
       <r>    -2.1411     0.0407     0.2022 </r>
       <r>    -1.9925     0.2688     0.2421 </r>
       <r>    -1.8439     0.1562     0.2653 </r>
       <r>    -1.6953     0.3037     0.3105 </r>
       <r>    -1.5467     0.0351     0.3157 </r>
       <r>    -1.3981     0.0906     0.3291 </r>
       <r>    -1.2496     0.2188     0.3617 </r>
       <r>    -1.1010     0.1652     0.3862 </r>
       <r>    -0.9524     0.2890     0.4291 </r>
       <r>    -0.8038     0.0906     0.4426 </r>
       <r>    -0.6552     0.4255     0.5058 </r>
       <r>    -0.5066     0.1125     0.5225 </r>
       <r>    -0.3580     0.1832     0.5498 </r>
       <r>    -0.2095     0.0655     0.5595 </r>
       <r>    -0.0609     0.1751     0.5855 </r>
       <r>     0.0877     0.3169     0.6326 </r>
       <r>     0.2363     0.2900     0.6757 </r>
       <r>     0.3849     0.3960     0.7345 </r>
       <r>     0.5335     0.0144     0.7367 </r>
       <r>     0.6821     0.3473     0.7883 </r>
       <r>     0.8306     0.1965     0.8175 </r>
       <r>     0.9792     0.2464     0.8541 </r>
       <r>     1.1278     0.0741     0.8651 </r>
       <r>     1.2764     0.1482     0.8871 </r>
       <r>     1.4250     0.5659     0.9712 </r>
       <r>     1.5736     0.1954     1.0002 </r>
       <r>     1.7222     0.4483     1.0668 </r>
       <r>     1.8707     0.1240     1.0853 </r>
       <r>     2.0193     0.2703     1.1254 </r>
       <r>     2.1679     0.1855     1.1530 </r>
       <r>     2.3165     0.4560     1.2207 </r>
       <r>     2.4651     0.1059     1.2365 </r>
       <r>     2.6137     0.2032     1.2666 </r>
       <r>     2.7623     0.3635     1.3207 </r>
       <r>     2.9108     0.2762     1.3617 </r>
       <r>     3.0594     0.4889     1.4343 </r>
       <r>     3.2080     0.1117     1.4509 </r>
       <r>     3.3566     0.6013     1.5403 </r>
       <r>     3.5052     0.2281     1.5742 </r>
       <r>     3.6538     0.1843     1.6015 </r>
       <r>     3.8024     0.0800     1.6134 </r>
       <r>     3.9509     0.2985     1.6578 </r>
       <r>     4.0995     0.2441     1.6940 </r>
       <r>     4.2481     0.4732     1.7644 </r>
       <r>     4.3967     0.5644     1.8482 </r>
       <r>     4.5453     0.1130     1.8650 </r>
       <r>     4.6939     0.3144     1.9117 </r>
       <r>     4.8425     0.4191     1.9740 </r>
       <r>     4.9910     0.4527     2.0413 </r>
       <r>     5.1396     0.1818     2.0683 </r>
       <r>     5.2882     0.3701     2.1233 </r>
       <r>     5.4368     0.4897     2.1960 </r>
       <r>     5.5854     0.2795     2.2376 </r>
       <r>     5.7340     0.1378     2.2580 </r>
       <r>     5.8826     0.1457     2.2797 </r>
       <r>     6.0311     0.4690     2.3494 </r>
       <r>     6.1797     0.4625     2.4181 </r>
       <r>     6.3283     0.5434     2.4988 </r>
       <r>     6.4769     0.2539     2.5366 </r>
       <r>     6.6255     0.2038     2.5669 </r>
       <r>     6.7741     0.4930     2.6401 </r>
       <r>     6.9227     0.4976     2.7141 </r>
       <r>     7.0712     0.3069     2.7597 </r>
       <r>     7.2198     0.2335     2.7944 </r>
       <r>     7.3684     0.7172     2.9009 </r>
       <r>     7.5170     0.1385     2.9215 </r>
       <r>     7.6656     0.1411     2.9425 </r>
       <r>     7.8142     0.1507     2.9649 </r>
       <r>     7.9628     0.4238     3.0278 </r>
       <r>     8.1113     0.5137     3.1042 </r>
       <r>     8.2599     0.8848     3.2356 </r>
       <r>     8.4085     0.4791     3.3068 </r>
       <r>     8.5571     0.1790     3.3334 </r>
       <r>     8.7057     0.2406     3.3692 </r>
       <r>     8.8543     0.5878     3.4565 </r>
       <r>     9.0029     0.2302     3.4907 </r>
       <r>     9.1514     0.2100     3.5219 </r>
       <r>     9.3000     0.5425     3.6025 </r>
       <r>     9.4486     0.4773     3.6734 </r>
       <r>     9.5972     0.5058     3.7486 </r>
       <r>     9.7458     0.0950     3.7627 </r>
       <r>     9.8944     0.6078     3.8530 </r>
       <r>    10.0430     0.3861     3.9104 </r>
       <r>    10.1915     0.6850     4.0122 </r>
       <r>    10.3401     0.4318     4.0764 </r>
       <r>    10.4887     0.2796     4.1179 </r>
       <r>    10.6373     0.1070     4.1338 </r>
       <r>    10.7859     0.7297     4.2422 </r>
       <r>    10.9345     0.6371     4.3369 </r>
       <r>    11.0831     0.3055     4.3823 </r>
       <r>    11.2316     0.5295     4.4610 </r>
       <r>    11.3802     0.5590     4.5440 </r>
       <r>    11.5288     0.2928     4.5875 </r>
       <r>    11.6774     0.1547     4.6105 </r>
       <r>    11.8260     0.5557     4.6931 </r>
       <r>    11.9746     0.2780     4.7344 </r>
       <r>    12.1231     0.8467     4.8602 </r>
       <r>    12.2717     0.5422     4.9408 </r>
       <r>    12.4203     0.5909     5.0286 </r>
       <r>    12.5689     0.4774     5.0995 </r>
       <r>    12.7175     0.3086     5.1454 </r>
       <r>    12.8661     0.4758     5.2161 </r>
       <r>    13.0147     0.4625     5.2848 </r>
       <r>    13.1632     0.7625     5.3981 </r>
       <r>    13.3118     0.6187     5.4900 </r>
       <r>    13.4604     0.3612     5.5437 </r>
       <r>    13.6090     0.4688     5.6133 </r>
       <r>    13.7576     0.5191     5.6905 </r>
       <r>    13.9062     0.6261     5.7835 </r>
       <r>    14.0548     0.6344     5.8777 </r>
       <r>    14.2033     0.3654     5.9320 </r>
       <r>    14.3519     0.5983     6.0209 </r>
       <r>    14.5005     0.4690     6.0906 </r>
       <r>    14.6491     0.8070     6.2105 </r>
       <r>    14.7977     0.4252     6.2737 </r>
       <r>    14.9463     0.3885     6.3314 </r>
       <r>    15.0949     0.5771     6.4172 </r>
       <r>    15.2434     0.1116     6.4338 </r>
       <r>    15.3920     0.3495     6.4857 </r>
       <r>    15.5406     0.6548     6.5830 </r>
       <r>    15.6892     0.5170     6.6598 </r>
       <r>    15.8378     0.8375     6.7842 </r>
       <r>    15.9864     0.3741     6.8398 </r>
       <r>    16.1350     0.5361     6.9195 </r>
       <r>    16.2835     0.2254     6.9530 </r>
       <r>    16.4321     0.5549     7.0354 </r>
       <r>    16.5807     0.3363     7.0854 </r>
       <r>    16.7293     0.3837     7.1424 </r>
       <r>    16.8779     0.4926     7.2156 </r>
       <r>    17.0265     0.6797     7.3166 </r>
       <r>    17.1751     0.5043     7.3915 </r>
       <r>    17.3236     0.3120     7.4379 </r>
       <r>    17.4722     0.4071     7.4984 </r>
       <r>    17.6208     0.7133     7.6043 </r>
       <r>    17.7694     0.4420     7.6700 </r>
       <r>    17.9180     0.3235     7.7181 </r>
       <r>    18.0666     0.4787     7.7892 </r>
       <r>    18.2152     0.9588     7.9317 </r>
       <r>    18.3637     0.7225     8.0390 </r>
       <r>    18.5123     0.3531     8.0915 </r>
       <r>    18.6609     0.3275     8.1402 </r>
       <r>    18.8095     0.6781     8.2409 </r>
       <r>    18.9581     0.4190     8.3032 </r>
       <r>    19.1067     0.4074     8.3637 </r>
       <r>    19.2553     0.7502     8.4752 </r>
       <r>    19.4038     0.8023     8.5944 </r>
       <r>    19.5524     0.1555     8.6175 </r>
       <r>    19.7010     0.3396     8.6680 </r>
       <r>    19.8496     0.3092     8.7139 </r>
       <r>    19.9982     0.7356     8.8232 </r>
       <r>    20.1468     0.7408     8.9333 </r>
       <r>    20.2954     0.7835     9.0497 </r>
       <r>    20.4439     0.6231     9.1423 </r>
       <r>    20.5925     0.5294     9.2209 </r>
       <r>    20.7411     0.5122     9.2970 </r>
       <r>    20.8897     0.2592     9.3356 </r>
       <r>    21.0383     1.0971     9.4986 </r>
       <r>    21.1869     0.6508     9.5953 </r>
       <r>    21.3355     0.5755     9.6808 </r>
       <r>    21.4840     0.6374     9.7755 </r>
       <r>    21.6326     0.2913     9.8188 </r>
       <r>    21.7812     0.9137     9.9545 </r>
       <r>    21.9298     0.5963    10.0431 </r>
       <r>    22.0784     0.2752    10.0840 </r>
       <r>    22.2270     0.3397    10.1345 </r>
       <r>    22.3756     0.5611    10.2179 </r>
       <r>    22.5241     0.6381    10.3127 </r>
       <r>    22.6727     0.5880    10.4001 </r>
       <r>    22.8213     0.3901    10.4580 </r>
       <r>    22.9699     0.4701    10.5279 </r>
       <r>    23.1185     0.8889    10.6599 </r>
       <r>    23.2671     0.7433    10.7704 </r>
       <r>    23.4157     1.0832    10.9313 </r>
       <r>    23.5642     0.7061    11.0363 </r>
       <r>    23.7128     0.8831    11.1675 </r>
       <r>    23.8614     0.2260    11.2011 </r>
       <r>    24.0100     0.4888    11.2737 </r>
       <r>    24.1586     0.5884    11.3611 </r>
       <r>    24.3072     0.3502    11.4132 </r>
       <r>    24.4558     0.9491    11.5542 </r>
       <r>    24.6043     0.5801    11.6404 </r>
       <r>    24.7529     0.4340    11.7049 </r>
       <r>    24.9015     0.4949    11.7784 </r>
       <r>    25.0501     0.3200    11.8259 </r>
       <r>    25.1987     1.1835    12.0018 </r>
       <r>    25.3473     1.2367    12.1855 </r>
       <r>    25.4959     0.4747    12.2561 </r>
       <r>    25.6444     0.4360    12.3208 </r>
       <r>    25.7930     0.7402    12.4308 </r>
       <r>    25.9416     0.7708    12.5454 </r>
       <r>    26.0902     0.5153    12.6219 </r>
       <r>    26.2388     0.6130    12.7130 </r>
       <r>    26.3874     0.7069    12.8180 </r>
       <r>    26.5360     0.8264    12.9408 </r>
       <r>    26.6845     0.5478    13.0222 </r>
       <r>    26.8331     0.0987    13.0369 </r>
       <r>    26.9817     0.5584    13.1199 </r>
       <r>    27.1303     0.5169    13.1967 </r>
       <r>    27.2789     0.9056    13.3312 </r>
       <r>    27.4275     0.7713    13.4458 </r>
       <r>    27.5761     0.8174    13.5673 </r>
       <r>    27.7246     0.6791    13.6682 </r>
       <r>    27.8732     0.2063    13.6988 </r>
       <r>    28.0218     0.5833    13.7855 </r>
       <r>    28.1704     1.0030    13.9345 </r>
       <r>    28.3190     0.4991    14.0087 </r>
       <r>    28.4676     0.3258    14.0571 </r>
       <r>    28.6162     0.0752    14.0683 </r>
       <r>    28.7647     0.3404    14.1189 </r>
       <r>    28.9133     0.8960    14.2520 </r>
       <r>    29.0619     0.4590    14.3202 </r>
       <r>    29.2105     0.4461    14.3865 </r>
       <r>    29.3591     0.3679    14.4411 </r>
       <r>    29.5077     0.4456    14.5073 </r>
       <r>    29.6563     1.0770    14.6674 </r>
       <r>    29.8048     0.6907    14.7700 </r>
       <r>    29.9534     0.6143    14.8613 </r>
       <r>    30.1020     0.3965    14.9202 </r>
       <r>    30.2506     0.4333    14.9846 </r>
       <r>    30.3992     0.1704    15.0099 </r>
       <r>    30.5478     0.4300    15.0738 </r>
       <r>    30.6964     0.5523    15.1558 </r>
       <r>    30.8449     0.3805    15.2124 </r>
       <r>    30.9935     0.2538    15.2501 </r>
       <r>    31.1421     0.3785    15.3063 </r>
       <r>    31.2907     0.5728    15.3914 </r>
       <r>    31.4393     0.3542    15.4441 </r>
       <r>    31.5879     0.1521    15.4667 </r>
       <r>    31.7365     0.0024    15.4670 </r>
       <r>    31.8850     0.4225    15.5298 </r>
       <r>    32.0336     0.2913    15.5731 </r>
       <r>    32.1822     0.0951    15.5872 </r>
       <r>    32.3308     0.1462    15.6089 </r>
       <r>    32.4794     0.1381    15.6295 </r>
       <r>    32.6280     0.1848    15.6569 </r>
       <r>    32.7766     0.3667    15.7114 </r>
       <r>    32.9251     0.2267    15.7451 </r>
       <r>    33.0737     0.0614    15.7542 </r>
       <r>    33.2223     0.1266    15.7730 </r>
       <r>    33.3709     0.2748    15.8139 </r>
       <r>    33.5195     0.1227    15.8321 </r>
       <r>    33.6681     0.1731    15.8578 </r>
       <r>    33.8167     0.1669    15.8826 </r>
       <r>    33.9652     0.0482    15.8898 </r>
       <r>    34.1138     0.0025    15.8901 </r>
       <r>    34.2624     0.1844    15.9176 </r>
       <r>    34.4110     0.0481    15.9247 </r>
       <r>    34.5596     0.0043    15.9253 </r>
       <r>    34.7082     0.0798    15.9372 </r>
       <r>    34.8568     0.0398    15.9431 </r>
       <r>    35.0053     0.1194    15.9609 </r>
       <r>    35.1539     0.0959    15.9751 </r>
       <r>    35.3025     0.0453    15.9818 </r>
       <r>    35.4511     0.0504    15.9893 </r>
       <r>    35.5997     0.0000    15.9893 </r>
       <r>    35.7483     0.0000    15.9893 </r>
       <r>    35.8969     0.0013    15.9895 </r>
       <r>    36.0454     0.0460    15.9964 </r>
       <r>    36.1940     0.0021    15.9967 </r>
       <r>    36.3426     0.0223    16.0000 </r>
       <r>    36.4912     0.0001    16.0000 </r>
       <r>    36.6398     0.0000    16.0000 </r>
       <r>    36.7884     0.0000    16.0000 </r>
       <r>    36.9370     0.0000    16.0000 </r>
       <r>    37.0855     0.0000    16.0000 </r>
       <r>    37.2341     0.0000    16.0000 </r>
       <r>    37.3827     0.0000    16.0000 </r>
       <r>    37.5313     0.0000    16.0000 </r>
       <r>    37.6799     0.0000    16.0000 </r>
       <r>    37.8285     0.0000    16.0000 </r>
       <r>    37.9771     0.0000    16.0000 </r>
       <r>    38.1256     0.0000    16.0000 </r>
       <r>    38.2742     0.0000    16.0000 </r>
      </set>
     </set>
    </array>
   </total>
  </dos>
 </calculation>
 <structure name="finalpos" >
  <crystal>
   <varray name="basis" >
    <v>       2.36711523      -0.00000000       1.36665346 </v>
    <v>       0.78903841       2.23173741       1.36665346 </v>
    <v>      -0.00000001      -0.00000001       2.73330896 </v>
   </varray>
   <i name="volume">     14.43946894 </i>
   <varray name="rec_basis" >
    <v>       0.42245514      -0.14936046       0.00000000 </v>
    <v>       0.00000000       0.44808139       0.00000000 </v>
    <v>      -0.21122741      -0.14936035       0.36585692 </v>
   </varray>
  </crystal>
  <varray name="positions" >
   <v>      -0.00000000       0.00000000      -0.00000000 </v>
  </varray>
 </structure>
</modeling>
