unknown system                          
           1
     2.347395    0.000000    1.355268
     0.782465    2.213145    1.355268
     0.000000    0.000000    2.710538
   Si
     1
Direct configuration=     1
   0.00000000  0.00000000  0.00000000
unknown system                          
           1
     2.369000   -0.000000    1.367742
     0.789667    2.233515    1.367742
    -0.000000   -0.000000    2.735486
   Si
     1
Direct configuration=     2
  -0.00000000  0.00000000 -0.00000000
unknown system                          
           1
     2.367115   -0.000000    1.366653
     0.789038    2.231737    1.366653
    -0.000000   -0.000000    2.733309
   Si
     1
Direct configuration=     3
  -0.00000000  0.00000000 -0.00000000
