   1   1   0   0
  0.1366335E+02  0.2683432E-09  0.2683432E-09  0.2683433E-09  0.5000000E-15
  1.000000000000000E-004
  CAR 
 unknown system                          
     39.95201586     -6.14626864  301     10.90167268      1.00000000
     -6.146  0.0000E+00  0.0000E+00
     -5.993  0.0000E+00  0.0000E+00
     -5.839  0.0000E+00  0.0000E+00
     -5.685  0.0000E+00  0.0000E+00
     -5.532  0.0000E+00  0.0000E+00
     -5.378  0.0000E+00  0.0000E+00
     -5.224  0.0000E+00  0.0000E+00
     -5.071  0.0000E+00  0.0000E+00
     -4.917  0.0000E+00  0.0000E+00
     -4.763  0.0000E+00  0.0000E+00
     -4.610  0.0000E+00  0.0000E+00
     -4.456  0.0000E+00  0.0000E+00
     -4.302  0.2206E-16  0.3390E-17
     -4.149  0.1095E-06  0.1683E-07
     -3.995  0.4031E-04  0.6211E-05
     -3.841  0.4871E-03  0.8106E-04
     -3.688  0.3056E-03  0.1280E-03
     -3.534  0.9862E-03  0.2796E-03
     -3.380  0.4779E-03  0.3530E-03
     -3.227  0.4364E-03  0.4200E-03
     -3.073  0.1618E-02  0.6686E-03
     -2.919  0.9014E-03  0.8071E-03
     -2.766  0.1246E-02  0.9987E-03
     -2.612  0.2894E-03  0.1043E-02
     -2.458  0.2006E-02  0.1351E-02
     -2.305  0.1305E-02  0.1552E-02
     -2.151  0.1099E-02  0.1721E-02
     -1.997  0.1562E-02  0.1961E-02
     -1.844  0.3493E-03  0.2015E-02
     -1.690  0.2606E-02  0.2415E-02
     -1.536  0.1395E-02  0.2629E-02
     -1.383  0.2960E-02  0.3084E-02
     -1.229  0.4500E-03  0.3153E-02
     -1.075  0.6724E-03  0.3257E-02
     -0.922  0.2308E-02  0.3611E-02
     -0.768  0.1480E-02  0.3839E-02
     -0.614  0.2914E-02  0.4287E-02
     -0.461  0.8187E-03  0.4412E-02
     -0.307  0.3863E-02  0.5006E-02
     -0.153  0.1268E-02  0.5201E-02
      0.000  0.1675E-02  0.5458E-02
      0.154  0.8174E-03  0.5584E-02
      0.307  0.1323E-02  0.5787E-02
      0.461  0.3471E-02  0.6320E-02
      0.615  0.2632E-02  0.6725E-02
      0.768  0.3886E-02  0.7322E-02
      0.922  0.2875E-03  0.7366E-02
      1.076  0.2555E-02  0.7759E-02
      1.229  0.2392E-02  0.8126E-02
      1.383  0.2279E-02  0.8476E-02
      1.537  0.1111E-02  0.8647E-02
      1.690  0.7960E-03  0.8769E-02
      1.844  0.6042E-02  0.9698E-02
      1.998  0.1731E-02  0.9964E-02
      2.151  0.4174E-02  0.1061E-01
      2.305  0.1283E-02  0.1080E-01
      2.459  0.2437E-02  0.1118E-01
      2.612  0.1595E-02  0.1142E-01
      2.766  0.3816E-02  0.1201E-01
      2.920  0.2273E-02  0.1236E-01
      3.073  0.1060E-02  0.1252E-01
      3.227  0.4322E-02  0.1318E-01
      3.381  0.1780E-02  0.1346E-01
      3.534  0.5614E-02  0.1432E-01
      3.688  0.6847E-03  0.1443E-01
      3.842  0.5267E-02  0.1524E-01
      3.995  0.2870E-02  0.1568E-01
      4.149  0.2011E-02  0.1599E-01
      4.303  0.1328E-02  0.1619E-01
      4.456  0.8049E-03  0.1631E-01
      4.610  0.5041E-02  0.1709E-01
      4.764  0.2728E-02  0.1751E-01
      4.917  0.6263E-02  0.1847E-01
      5.071  0.6961E-03  0.1858E-01
      5.225  0.3460E-02  0.1911E-01
      5.378  0.4246E-02  0.1976E-01
      5.532  0.3943E-02  0.2037E-01
      5.686  0.2220E-02  0.2071E-01
      5.839  0.3247E-02  0.2121E-01
      5.993  0.5040E-02  0.2198E-01
      6.147  0.1737E-02  0.2225E-01
      6.300  0.2015E-02  0.2256E-01
      6.454  0.1285E-02  0.2276E-01
      6.608  0.4587E-02  0.2346E-01
      6.761  0.4555E-02  0.2416E-01
      6.915  0.5159E-02  0.2495E-01
      7.069  0.2176E-02  0.2529E-01
      7.222  0.1937E-02  0.2558E-01
      7.376  0.4262E-02  0.2624E-01
      7.530  0.5225E-02  0.2704E-01
      7.683  0.3595E-02  0.2759E-01
      7.837  0.1813E-02  0.2787E-01
      7.991  0.5350E-02  0.2870E-01
      8.144  0.3080E-02  0.2917E-01
      8.298  0.1561E-02  0.2941E-01
      8.452  0.1075E-02  0.2957E-01
      8.605  0.2916E-02  0.3002E-01
      8.759  0.7145E-02  0.3112E-01
      8.913  0.5835E-02  0.3202E-01
      9.066  0.6343E-02  0.3299E-01
      9.220  0.2228E-02  0.3333E-01
      9.373  0.2152E-02  0.3366E-01
      9.527  0.4258E-02  0.3432E-01
      9.681  0.3366E-02  0.3484E-01
      9.834  0.2706E-02  0.3525E-01
      9.988  0.2569E-02  0.3565E-01
     10.142  0.5730E-02  0.3653E-01
     10.295  0.4543E-02  0.3722E-01
     10.449  0.2871E-02  0.3767E-01
     10.603  0.3225E-02  0.3816E-01
     10.756  0.6353E-02  0.3914E-01
     10.910  0.5900E-02  0.4004E-01
     11.064  0.3852E-02  0.4064E-01
     11.217  0.2887E-02  0.4108E-01
     11.371  0.1042E-02  0.4124E-01
     11.525  0.5763E-02  0.4213E-01
     11.678  0.4713E-02  0.4285E-01
     11.832  0.5308E-02  0.4367E-01
     11.986  0.3667E-02  0.4423E-01
     12.139  0.7662E-02  0.4541E-01
     12.293  0.1817E-02  0.4569E-01
     12.447  0.3360E-02  0.4620E-01
     12.600  0.3622E-02  0.4676E-01
     12.754  0.3734E-02  0.4733E-01
     12.908  0.5100E-02  0.4812E-01
     13.061  0.7171E-02  0.4922E-01
     13.215  0.3096E-02  0.4969E-01
     13.369  0.6951E-02  0.5076E-01
     13.522  0.2852E-02  0.5120E-01
     13.676  0.5227E-02  0.5200E-01
     13.830  0.3539E-02  0.5255E-01
     13.983  0.6417E-02  0.5353E-01
     14.137  0.7328E-02  0.5466E-01
     14.291  0.3624E-02  0.5522E-01
     14.444  0.3355E-02  0.5573E-01
     14.598  0.4717E-02  0.5646E-01
     14.752  0.7970E-02  0.5768E-01
     14.905  0.4542E-02  0.5838E-01
     15.059  0.4127E-02  0.5901E-01
     15.213  0.3964E-02  0.5962E-01
     15.366  0.5750E-02  0.6050E-01
     15.520  0.6966E-02  0.6158E-01
     15.674  0.5563E-02  0.6243E-01
     15.827  0.4240E-02  0.6308E-01
     15.981  0.5912E-02  0.6399E-01
     16.135  0.1480E-02  0.6422E-01
     16.288  0.2199E-02  0.6456E-01
     16.442  0.7123E-02  0.6565E-01
     16.596  0.3851E-02  0.6624E-01
     16.749  0.5477E-02  0.6708E-01
     16.903  0.6804E-02  0.6813E-01
     17.057  0.3992E-02  0.6874E-01
     17.210  0.4501E-02  0.6943E-01
     17.364  0.3187E-02  0.6992E-01
     17.518  0.5520E-02  0.7077E-01
     17.671  0.2887E-02  0.7122E-01
     17.825  0.4286E-02  0.7187E-01
     17.979  0.5492E-02  0.7272E-01
     18.132  0.6253E-02  0.7368E-01
     18.286  0.3617E-02  0.7423E-01
     18.439  0.3107E-02  0.7471E-01
     18.593  0.4957E-02  0.7547E-01
     18.747  0.6966E-02  0.7654E-01
     18.900  0.2261E-02  0.7689E-01
     19.054  0.7137E-02  0.7799E-01
     19.208  0.6135E-02  0.7893E-01
     19.361  0.4645E-02  0.7964E-01
     19.515  0.5933E-02  0.8056E-01
     19.669  0.4916E-02  0.8131E-01
     19.822  0.3249E-02  0.8181E-01
     19.976  0.5618E-02  0.8267E-01
     20.130  0.6191E-02  0.8363E-01
     20.283  0.4593E-02  0.8433E-01
     20.437  0.5476E-02  0.8517E-01
     20.591  0.6786E-02  0.8622E-01
     20.744  0.2944E-02  0.8667E-01
     20.898  0.3088E-02  0.8714E-01
     21.052  0.7098E-02  0.8823E-01
     21.205  0.3607E-02  0.8879E-01
     21.359  0.6667E-02  0.8981E-01
     21.513  0.1000E-01  0.9135E-01
     21.666  0.4936E-02  0.9211E-01
     21.820  0.3376E-02  0.9263E-01
     21.974  0.4300E-02  0.9329E-01
     22.127  0.9818E-02  0.9480E-01
     22.281  0.6286E-02  0.9576E-01
     22.435  0.7320E-02  0.9689E-01
     22.588  0.5018E-02  0.9766E-01
     22.742  0.3110E-02  0.9813E-01
     22.896  0.8686E-02  0.9947E-01
     23.049  0.5523E-02  0.1003E+00
     23.203  0.3018E-02  0.1008E+00
     23.357  0.4544E-02  0.1015E+00
     23.510  0.4302E-02  0.1021E+00
     23.664  0.6783E-02  0.1032E+00
     23.818  0.4702E-02  0.1039E+00
     23.971  0.3745E-02  0.1045E+00
     24.125  0.3986E-02  0.1051E+00
     24.279  0.1154E-01  0.1069E+00
     24.432  0.4680E-02  0.1076E+00
     24.586  0.8155E-02  0.1088E+00
     24.740  0.9563E-02  0.1103E+00
     24.893  0.7008E-02  0.1114E+00
     25.047  0.4818E-02  0.1121E+00
     25.201  0.2001E-02  0.1124E+00
     25.354  0.6401E-02  0.1134E+00
     25.508  0.4666E-02  0.1141E+00
     25.662  0.4537E-02  0.1148E+00
     25.815  0.9197E-02  0.1162E+00
     25.969  0.4586E-02  0.1169E+00
     26.123  0.5055E-02  0.1177E+00
     26.276  0.3969E-02  0.1183E+00
     26.430  0.7903E-02  0.1196E+00
     26.584  0.1250E-01  0.1215E+00
     26.737  0.6391E-02  0.1225E+00
     26.891  0.2836E-02  0.1229E+00
     27.044  0.6853E-02  0.1239E+00
     27.198  0.7182E-02  0.1250E+00
     27.352  0.6090E-02  0.1260E+00
     27.505  0.6335E-02  0.1270E+00
     27.659  0.7796E-02  0.1282E+00
     27.813  0.7817E-02  0.1294E+00
     27.966  0.4182E-02  0.1300E+00
     28.120  0.2012E-02  0.1303E+00
     28.274  0.5503E-02  0.1312E+00
     28.427  0.5079E-02  0.1319E+00
     28.581  0.9475E-02  0.1334E+00
     28.735  0.5880E-02  0.1343E+00
     28.888  0.6623E-02  0.1353E+00
     29.042  0.7524E-02  0.1365E+00
     29.196  0.4472E-02  0.1372E+00
     29.349  0.3547E-02  0.1377E+00
     29.503  0.1057E-01  0.1393E+00
     29.657  0.4985E-02  0.1401E+00
     29.810  0.2185E-02  0.1404E+00
     29.964  0.1844E-02  0.1407E+00
     30.118  0.1232E-02  0.1409E+00
     30.271  0.9916E-02  0.1424E+00
     30.425  0.4254E-02  0.1431E+00
     30.579  0.6004E-02  0.1440E+00
     30.732  0.2745E-02  0.1444E+00
     30.886  0.3022E-02  0.1449E+00
     31.040  0.1063E-01  0.1465E+00
     31.193  0.7138E-02  0.1476E+00
     31.347  0.6259E-02  0.1486E+00
     31.501  0.3732E-02  0.1491E+00
     31.654  0.2429E-02  0.1495E+00
     31.808  0.3191E-02  0.1500E+00
     31.962  0.3142E-02  0.1505E+00
     32.115  0.6313E-02  0.1515E+00
     32.269  0.2075E-02  0.1518E+00
     32.423  0.3531E-02  0.1523E+00
     32.576  0.2996E-02  0.1528E+00
     32.730  0.5511E-02  0.1536E+00
     32.884  0.4141E-02  0.1543E+00
     33.037  0.2335E-02  0.1546E+00
     33.191  0.2465E-03  0.1547E+00
     33.345  0.1756E-02  0.1549E+00
     33.498  0.5091E-02  0.1557E+00
     33.652  0.1010E-02  0.1559E+00
     33.806  0.1131E-02  0.1560E+00
     33.959  0.1630E-02  0.1563E+00
     34.113  0.4244E-03  0.1564E+00
     34.267  0.3458E-02  0.1569E+00
     34.420  0.3003E-02  0.1574E+00
     34.574  0.7807E-03  0.1575E+00
     34.728  0.1902E-02  0.1578E+00
     34.881  0.1312E-02  0.1580E+00
     35.035  0.2141E-02  0.1583E+00
     35.189  0.1741E-02  0.1586E+00
     35.342  0.8647E-03  0.1587E+00
     35.496  0.1288E-02  0.1589E+00
     35.650  0.3547E-05  0.1589E+00
     35.803  0.1710E-02  0.1592E+00
     35.957  0.5736E-03  0.1592E+00
     36.110  0.2745E-04  0.1593E+00
     36.264  0.4273E-03  0.1593E+00
     36.418  0.7293E-03  0.1594E+00
     36.571  0.6971E-03  0.1595E+00
     36.725  0.1381E-02  0.1598E+00
     36.879  0.1260E-03  0.1598E+00
     37.032  0.8038E-03  0.1599E+00
     37.186  0.5843E-06  0.1599E+00
     37.340  0.1597E-10  0.1599E+00
     37.493  0.6822E-04  0.1599E+00
     37.647  0.3943E-03  0.1600E+00
     37.801  0.1341E-04  0.1600E+00
     37.954  0.2175E-03  0.1600E+00
     38.108  0.6570E-06  0.1600E+00
     38.262  0.0000E+00  0.1600E+00
     38.415  0.0000E+00  0.1600E+00
     38.569  0.0000E+00  0.1600E+00
     38.723  0.0000E+00  0.1600E+00
     38.876  0.0000E+00  0.1600E+00
     39.030  0.0000E+00  0.1600E+00
     39.184  0.0000E+00  0.1600E+00
     39.337  0.0000E+00  0.1600E+00
     39.491  0.0000E+00  0.1600E+00
     39.645  0.0000E+00  0.1600E+00
     39.798  0.0000E+00  0.1600E+00
     39.952  0.0000E+00  0.1600E+00
