    1    1  100    1
  0.1366335E+02  0.2683432E-09  0.2683432E-09  0.2683433E-09  0.5000000E-15
  1.000000000000000E-004
  CAR 
 unknown system                          
      4    120      8
 
  0.0000000E+00  0.0000000E+00  0.0000000E+00  0.2962963E-03
    1       -4.050892   1.000000
    2       22.798102   0.000000
    3       22.798110   0.000000
    4       22.798119   0.000000
    5       23.098727   0.000000
    6       23.098735   0.000000
    7       23.098745   0.000000
    8       28.567627   0.000000
 
  0.6666667E-01 -0.3469447E-17  0.0000000E+00  0.2370370E-02
    1       -3.916276   1.000000
    2       20.313572   0.000000
    3       21.917112   0.000000
    4       21.917125   0.000000
    5       24.150299   0.000000
    6       24.150314   0.000000
    7       24.426732   0.000000
    8       29.596374   0.000000
 
  0.1333333E+00  0.6938894E-17  0.0000000E+00  0.2370370E-02
    1       -3.512982   1.000000
    2       17.352709   0.000000
    3       21.109315   0.000000
    4       21.109327   0.000000
    5       24.729392   0.000000
    6       25.318196   0.000000
    7       25.318211   0.000000
    8       28.505702   0.000000
 
  0.2000000E+00  0.1387779E-16  0.0000000E+00  0.2370370E-02
    1       -2.842680   1.000000
    2       14.412019   0.000000
    3       20.515754   0.000000
    4       20.515765   0.000000
    5       24.660998   0.000000
    6       25.506851   0.000000
    7       25.506861   0.000000
    8       28.516351   0.000000
 
  0.2666667E+00  0.1387779E-16  0.0000000E+00  0.2370370E-02
    1       -1.908160   1.000000
    2       11.608840   0.000000
    3       20.137258   0.000000
    4       20.137267   0.000000
    5       24.517874   0.000000
    6       24.517883   0.000000
    7       24.572359   0.000000
    8       29.959647   0.000000
 
  0.3333333E+00  0.2775558E-16  0.0000000E+00  0.2370370E-02
    1       -0.713427   1.000000
    2        8.991679   1.000000
    3       19.962156   0.000000
    4       19.962164   0.000000
    5       23.435517   0.000000
    6       23.435526   0.000000
    7       24.580714   0.000000
    8       28.733072   0.000000
 
  0.4000000E+00  0.0000000E+00  0.0000000E+00  0.2370370E-02
    1        0.735616   1.000000
    2        6.586649   1.000000
    3       19.956247   0.000000
    4       19.956254   0.000000
    5       22.560068   0.000000
    6       22.560080   0.000000
    7       24.705824   0.000000
    8       27.745045   0.000000
 
  0.4666667E+00  0.0000000E+00  0.0000000E+00  0.2370370E-02
    1        2.421806   1.000000
    2        4.420498   1.000000
    3       20.028671   0.000000
    4       20.028676   0.000000
    5       22.039058   0.000000
    6       22.039071   0.000000
    7       24.864114   0.000000
    8       27.142117   0.000000
 
  0.6666667E-01  0.6666667E-01  0.0000000E+00  0.1777778E-02
    1       -3.871424   1.000000
    2       20.838754   0.000000
    3       20.838755   0.000000
    4       22.134815   0.000000
    5       22.394491   0.000000
    6       25.286125   0.000000
    7       25.286126   0.000000
    8       28.427888   0.000000
 
  0.1333333E+00  0.6666667E-01  0.0000000E+00  0.7111111E-02
    1       -3.557734   1.000000
    2       18.402444   0.000000
    3       19.959932   0.000000
    4       21.591456   0.000000
    5       22.980936   0.000000
    6       26.026159   0.000000
    7       26.494316   0.000000
    8       26.885412   0.000000
 
  0.2000000E+00  0.6666667E-01  0.0000000E+00  0.7111111E-02
    1       -2.976515   1.000000
    2       15.472337   0.000000
    3       19.302098   0.000000
    4       20.968079   0.000000
    5       23.655272   0.000000
    6       25.759990   0.000000
    7       26.462631   0.000000
    8       27.116852   0.000000
 
  0.2666667E+00  0.6666667E-01  0.0000000E+00  0.7111111E-02
    1       -2.130167   1.000000
    2       12.627389   0.000000
    3       18.870503   0.000000
    4       20.475921   0.000000
    5       22.928209   0.000000
    6       25.693639   0.000000
    7       26.375372   0.000000
    8       27.542644   0.000000
 
  0.3333333E+00  0.6666667E-01  0.0000000E+00  0.7111111E-02
    1       -1.022262   1.000000
    2        9.950036   1.000000
    3       18.665364   0.000000
    4       20.071090   0.000000
    5       21.948187   0.000000
    6       25.272308   0.000000
    7       25.697637   0.000000
    8       29.192791   0.000000
 
  0.4000000E+00  0.6666667E-01  0.0000000E+00  0.7111111E-02
    1        0.342117   1.000000
    2        7.475040   1.000000
    3       18.683450   0.000000
    4       19.589064   0.000000
    5       21.393859   0.000000
    6       24.261577   0.000000
    7       25.746841   0.000000
    8       29.008651   0.000000
 
  0.4666667E+00  0.6666667E-01  0.0000000E+00  0.7111111E-02
    1        1.953167   1.000000
    2        5.225717   1.000000
    3       18.916760   0.000000
    4       18.986139   0.000000
    5       21.395406   0.000000
    6       23.448225   0.000000
    7       25.803288   0.000000
    8       28.417108   0.000000
 
 -0.4666667E+00  0.6666667E-01  0.0000000E+00  0.7111111E-02
    1        3.116265   1.000000
    2        3.902618   1.000000
    3       18.438498   0.000000
    4       19.347153   0.000000
    5       21.798476   0.000000
    6       22.879709   0.000000
    7       25.739114   0.000000
    8       28.325375   0.000000
 
 -0.4000000E+00  0.6666667E-01  0.0000000E+00  0.7111111E-02
    1        1.390059   1.000000
    2        5.948384   1.000000
    3       18.058442   0.000000
    4       19.931737   0.000000
    5       22.493929   0.000000
    6       22.606861   0.000000
    7       25.551482   0.000000
    8       28.768586   0.000000
 
 -0.3333333E+00  0.6666667E-01  0.0000000E+00  0.7111111E-02
    1       -0.140755   1.000000
    2        8.275500   1.000000
    3       17.886548   0.000000
    4       20.574434   0.000000
    5       22.719667   0.000000
    6       23.431714   0.000000
    7       25.381985   0.000000
    8       29.561150   0.000000
 
 -0.2666667E+00  0.6666667E-01  0.0000000E+00  0.7111111E-02
    1       -1.420361   1.000000
    2       10.819921   0.989619
    3       17.937827   0.000000
    4       21.153323   0.000000
    5       23.308000   0.000000
    6       24.566196   0.000000
    7       25.308873   0.000000
    8       29.271757   0.000000
 
 -0.2000000E+00  0.6666667E-01  0.0000000E+00  0.7111111E-02
    1       -2.441562   1.000000
    2       13.556202   0.000000
    3       18.217998   0.000000
    4       21.691282   0.000000
    5       24.199196   0.000000
    6       25.314045   0.000000
    7       25.785973   0.000000
    8       27.503957   0.000000
 
 -0.1333333E+00  0.6666667E-01  0.0000000E+00  0.7111111E-02
    1       -3.199873   1.000000
    2       16.436724   0.000000
    3       18.730270   0.000000
    4       22.307404   0.000000
    5       24.377121   0.000000
    6       25.270743   0.000000
    7       26.495289   0.000000
    8       26.989797   0.000000
 
 -0.6666667E-01  0.6666667E-01  0.0000000E+00  0.3555556E-02
    1       -3.692128   1.000000
    2       19.214590   0.000000
    3       19.604202   0.000000
    4       22.898113   0.000000
    5       23.446311   0.000000
    6       24.902187   0.000000
    7       25.756786   0.000000
    8       28.164080   0.000000
 
  0.1333333E+00  0.1333333E+00  0.0000000E+00  0.1777778E-02
    1       -3.333933   1.000000
    2       19.005676   0.000000
    3       19.005677   0.000000
    4       20.412879   0.000000
    5       21.322646   0.000000
    6       25.001553   0.000000
    7       27.770089   0.000000
    8       27.770090   0.000000
 
  0.2000000E+00  0.1333333E+00  0.0000000E+00  0.7111111E-02
    1       -2.842498   1.000000
    2       16.683337   0.000000
    3       18.272406   0.000000
    4       20.161152   0.000000
    5       21.321199   0.000000
    6       23.656055   0.000000
    7       28.504575   0.000000
    8       28.762160   0.000000
 
  0.2666667E+00  0.1333333E+00  0.0000000E+00  0.7111111E-02
    1       -2.085488   1.000000
    2       13.858065   0.000000
    3       17.767315   0.000000
    4       19.540622   0.000000
    5       20.959169   0.000000
    6       24.170749   0.000000
    7       28.424404   0.000000
    8       28.677689   0.000000
 
  0.3333333E+00  0.1333333E+00  0.0000000E+00  0.7111111E-02
    1       -1.066050   1.000000
    2       11.141701   0.000000
    3       17.492392   0.000000
    4       18.694373   0.000000
    5       20.295376   0.000000
    6       25.772023   0.000000
    7       27.399775   0.000000
    8       28.828544   0.000000
 
  0.4000000E+00  0.1333333E+00  0.0000000E+00  0.7111111E-02
    1        0.211319   1.000000
    2        8.607700   1.000000
    3       17.447403   0.000000
    4       17.698771   0.000000
    5       20.088409   0.000000
    6       26.365279   0.000000
    7       27.158541   0.000000
    8       29.495369   0.000000
 
  0.4666667E+00  0.1333333E+00  0.0000000E+00  0.7111111E-02
    1        1.739459   1.000000
    2        6.286924   1.000000
    3       16.786425   0.000000
    4       17.630452   0.000000
    5       20.236953   0.000000
    6       25.481784   0.000000
    7       27.587292   0.000000
    8       30.945791   0.000000
 
 -0.4666667E+00  0.1333333E+00  0.0000000E+00  0.7111111E-02
    1        3.465623   1.000000
    2        4.241998   1.000000
    3       16.060146   0.000000
    4       18.037465   0.000000
    5       20.668076   0.000000
    6       24.802612   0.000000
    7       27.481056   0.000000
    8       31.022818   0.000000
 
 -0.4000000E+00  0.1333333E+00  0.0000000E+00  0.7111111E-02
    1        2.302106   1.000000
    2        5.563589   1.000000
    3       15.554154   0.000000
    4       18.660389   0.000000
    5       21.354489   0.000000
    6       24.353425   0.000000
    7       27.213028   0.000000
    8       31.367442   0.000000
 
 -0.3333333E+00  0.1333333E+00  0.0000000E+00  0.7111111E-02
    1        0.693427   1.000000
    2        7.804651   1.000000
    3       15.282528   0.000000
    4       19.483090   0.000000
    5       22.277989   0.000000
    6       24.152633   0.000000
    7       26.950457   0.000000
    8       30.969878   0.000000
 
 -0.2666667E+00  0.1333333E+00  0.0000000E+00  0.7111111E-02
    1       -0.668710   1.000000
    2       10.263107   1.000000
    3       15.254018   0.000000
    4       20.471476   0.000000
    5       23.414561   0.000000
    6       24.218121   0.000000
    7       26.741741   0.000000
    8       28.733410   0.000000
 
 -0.2000000E+00  0.1333333E+00  0.0000000E+00  0.7111111E-02
    1       -1.774746   1.000000
    2       12.896522   0.000000
    3       15.486513   0.000000
    4       21.549081   0.000000
    5       24.536660   0.000000
    6       24.713343   0.000000
    7       26.519227   0.000000
    8       26.778876   0.000000
 
 -0.1333333E+00  0.1333333E+00  0.0000000E+00  0.3555556E-02
    1       -2.619655   1.000000
    2       15.397892   0.000000
    3       16.241802   0.000000
    4       22.500004   0.000000
    5       24.484668   0.000000
    6       25.970573   0.000000
    7       26.003157   0.000000
    8       26.069177   0.000000
 
  0.2000000E+00  0.2000000E+00  0.0000000E+00  0.1777778E-02
    1       -2.441232   1.000000
    2       17.461807   0.000000
    3       17.461808   0.000000
    4       18.770157   0.000000
    5       19.494553   0.000000
    6       21.913899   0.000000
    7       30.288035   0.000000
    8       30.288036   0.000000
 
  0.2666667E+00  0.2000000E+00  0.0000000E+00  0.7111111E-02
    1       -1.774347   1.000000
    2       15.241507   0.000000
    3       16.879631   0.000000
    4       18.165410   0.000000
    5       19.099981   0.000000
    6       21.597823   0.000000
    7       30.556656   0.000000
    8       31.051170   0.000000
 
  0.3333333E+00  0.2000000E+00  0.0000000E+00  0.7111111E-02
    1       -0.844701   1.000000
    2       12.546163   0.000000
    3       16.528768   0.000000
    4       16.833082   0.000000
    5       19.016484   0.000000
    6       22.964899   0.000000
    7       29.691808   0.000000
    8       31.222432   0.000000
 
  0.4000000E+00  0.2000000E+00  0.0000000E+00  0.7111111E-02
    1        0.343685   1.000000
    2        9.974056   1.000000
    3       15.580772   0.000000
    4       16.409806   0.000000
    5       18.938715   0.000000
    6       24.940073   0.000000
    7       28.683267   0.000000
    8       31.146901   0.000000
 
  0.4666667E+00  0.2000000E+00  0.0000000E+00  0.7111111E-02
    1        1.784804   1.000000
    2        7.593853   1.000000
    3       14.515103   0.000000
    4       16.522158   0.000000
    5       19.080191   0.000000
    6       27.039932   0.000000
    7       27.769355   0.000000
    8       30.998571   0.000000
 
 -0.4666667E+00  0.2000000E+00  0.0000000E+00  0.7111111E-02
    1        3.463003   1.000000
    2        5.441101   1.000000
    3       13.672376   0.000000
    4       16.864183   0.000000
    5       19.467766   0.000000
    6       27.030255   0.000000
    7       28.669860   0.000000
    8       31.252768   0.000000
 
 -0.4000000E+00  0.2000000E+00  0.0000000E+00  0.7111111E-02
    1        3.465444   1.000000
    2        5.434465   1.000000
    3       13.068757   0.000000
    4       17.432585   0.000000
    5       20.101851   0.000000
    6       26.500356   0.000000
    7       28.994838   0.000000
    8       32.476561   0.000000
 
 -0.3333333E+00  0.2000000E+00  0.0000000E+00  0.7111111E-02
    1        1.785552   1.000000
    2        7.575765   1.000000
    3       12.716445   0.000000
    4       18.220798   0.000000
    5       20.974533   0.000000
    6       26.197405   0.000000
    7       28.726224   0.000000
    8       30.778766   0.000000
 
 -0.2666667E+00  0.2000000E+00  0.0000000E+00  0.7111111E-02
    1        0.343663   1.000000
    2        9.913550   1.000000
    3       12.644108   0.000000
    4       19.214686   0.000000
    5       22.068960   0.000000
    6       26.132068   0.000000
    7       28.293391   0.000000
    8       28.432020   0.000000
 
 -0.2000000E+00  0.2000000E+00  0.0000000E+00  0.3555556E-02
    1       -0.845032   1.000000
    2       12.093505   0.000000
    3       13.176241   0.000000
    4       20.377208   0.000000
    5       23.348693   0.000000
    6       26.198683   0.000000
    7       26.415406   0.000000
    8       27.600542   0.000000
 
  0.2666667E+00  0.2666667E+00  0.0000000E+00  0.1777778E-02
    1       -1.198128   1.000000
    2       16.219769   0.000000
    3       16.219770   0.000000
    4       16.506105   0.000000
    5       17.397771   0.000000
    6       20.168338   0.000000
    7       32.683764   0.000000
    8       32.705931   0.000000
 
  0.3333333E+00  0.2666667E+00  0.0000000E+00  0.7111111E-02
    1       -0.359254   1.000000
    2       14.089800   0.000000
    3       14.971025   0.000000
    4       15.791500   0.000000
    5       17.806047   0.000000
    6       20.415684   0.000000
    7       32.049102   0.000000
    8       33.379772   0.000000
 
  0.4000000E+00  0.2666667E+00  0.0000000E+00  0.7111111E-02
    1        0.738432   1.000000
    2       11.547979   0.000000
    3       13.565637   0.000000
    4       15.595900   0.000000
    5       17.952304   0.000000
    6       22.073071   0.000000
    7       31.134984   0.000000
    8       33.396708   0.000000
 
  0.4666667E+00  0.2666667E+00  0.0000000E+00  0.7111111E-02
    1        2.089333   1.000000
    2        9.132266   1.000000
    3       12.382336   0.000000
    4       15.632946   0.000000
    5       18.088280   0.000000
    6       24.267467   0.000000
    7       30.230438   0.000000
    8       33.014998   0.000000
 
 -0.4666667E+00  0.2666667E+00  0.0000000E+00  0.7111111E-02
    1        3.683037   1.000000
    2        6.915181   1.000000
    3       11.439110   0.000000
    4       15.901880   0.000000
    5       18.422748   0.000000
    6       26.657640   0.000000
    7       29.456469   0.000000
    8       32.435520   0.000000
 
 -0.4000000E+00  0.2666667E+00  0.0000000E+00  0.7111111E-02
    1        4.855932   1.000000
    2        5.573553   1.000000
    3       10.750127   0.999991
    4       16.401010   0.000000
    5       18.992931   0.000000
    6       28.865699   0.000000
    7       28.997999   0.000000
    8       31.805878   0.000000
 
 -0.3333333E+00  0.2666667E+00  0.0000000E+00  0.7111111E-02
    1        3.130497   1.000000
    2        7.561063   1.000000
    3       10.348918   1.000000
    4       17.126846   0.000000
    5       19.801530   0.000000
    6       28.480007   0.000000
    7       30.383485   0.000000
    8       30.834971   0.000000
 
 -0.2666667E+00  0.2666667E+00  0.0000000E+00  0.3555556E-02
    1        1.612346   1.000000
    2        9.419057   1.000000
    3       10.587503   1.000000
    4       18.071654   0.000000
    5       20.836955   0.000000
    6       28.171221   0.000000
    7       28.553767   0.000000
    8       29.647661   0.000000
 
  0.3333333E+00  0.3333333E+00  0.0000000E+00  0.1777778E-02
    1        0.387988   1.000000
    2       13.215929   0.000000
    3       15.285555   0.000000
    4       15.285556   0.000000
    5       16.349043   0.000000
    6       19.142246   0.000000
    7       33.977358   0.000000
    8       34.834546   0.000000
 
  0.4000000E+00  0.3333333E+00  0.0000000E+00  0.7111111E-02
    1        1.393304   1.000000
    2       11.698976   0.000000
    3       13.314465   0.000000
    4       15.012516   0.000000
    5       16.945106   0.000000
    6       19.619534   0.000000
    7       33.570054   0.000000
    8       35.369448   0.000000
 
  0.4666667E+00  0.3333333E+00  0.0000000E+00  0.7111111E-02
    1        2.650502   1.000000
    2       10.379664   1.000000
    3       10.953606   0.070930
    4       14.972709   0.000000
    5       17.265993   0.000000
    6       21.470502   0.000000
    7       32.760129   0.000000
    8       35.138169   0.000000
 
 -0.4666667E+00  0.3333333E+00  0.0000000E+00  0.7111111E-02
    1        4.147400   1.000000
    2        8.596261   1.000000
    3        9.447135   1.000000
    4       15.165834   0.000000
    5       17.580898   0.000000
    6       23.846323   0.000000
    7       31.986982   0.000000
    8       34.442272   0.000000
 
 -0.4000000E+00  0.3333333E+00  0.0000000E+00  0.7111111E-02
    1        5.830354   1.000000
    2        6.579332   1.000000
    3        8.682716   1.000000
    4       15.590992   0.000000
    5       18.091364   0.000000
    6       26.430260   0.000000
    7       31.330453   0.000000
    8       33.449955   0.000000
 
 -0.3333333E+00  0.3333333E+00  0.0000000E+00  0.3555556E-02
    1        4.719637   1.000000
    2        7.405385   1.000000
    3        8.583035   1.000000
    4       16.246187   0.000000
    5       18.832313   0.000000
    6       29.026550   0.000000
    7       30.583158   0.000000
    8       31.469430   0.000000
 
  0.4000000E+00  0.4000000E+00  0.0000000E+00  0.1777778E-02
    1        2.303889   1.000000
    2       10.093806   1.000000
    3       14.661856   0.000000
    4       14.661858   0.000000
    5       15.643439   0.000000
    6       18.485762   0.000000
    7       35.279199   0.000000
    8       36.651513   0.000000
 
  0.4666667E+00  0.4000000E+00  0.0000000E+00  0.7111111E-02
    1        3.460826   1.000000
    2        8.722569   1.000000
    3       12.815308   0.000000
    4       14.544614   0.000000
    5       16.429583   0.000000
    6       19.142839   0.000000
    7       35.064384   0.000000
    8       36.918459   0.000000
 
 -0.4666667E+00  0.4000000E+00  0.0000000E+00  0.7111111E-02
    1        4.832290   1.000000
    2        7.627495   1.000000
    3       10.577070   1.000000
    4       14.660814   0.000000
    5       16.922917   0.000000
    6       21.165895   0.000000
    7       34.375560   0.000000
    8       36.289452   0.000000
 
 -0.4000000E+00  0.4000000E+00  0.0000000E+00  0.3555556E-02
    1        6.061414   1.000000
    2        7.146791   1.000000
    3        8.507505   1.000000
    4       15.009998   0.000000
    5       17.411255   0.000000
    6       23.703514   0.000000
    7       33.396783   0.000000
    8       34.725446   0.000000
 
  0.4666667E+00  0.4666667E+00  0.0000000E+00  0.1777778E-02
    1        4.491397   1.000000
    2        7.291460   1.000000
    3       14.349805   0.000000
    4       14.349806   0.000000
    5       15.289070   0.000000
    6       18.158060   0.000000
    7       36.218977   0.000000
    8       37.856639   0.000000
 
 -0.4666667E+00  0.4666667E+00  0.0000000E+00  0.3555556E-02
    1        5.389296   1.000000
    2        6.486420   1.000000
    3       12.650104   0.000000
    4       14.388583   0.000000
    5       16.257519   0.000000
    6       18.983364   0.000000
    7       35.901494   0.000000
    8       37.530477   0.000000
 
  0.2000000E+00  0.1333333E+00  0.6666667E-01  0.7111111E-02
    1       -3.155141   1.000000
    2       17.328576   0.000000
    3       17.906623   0.000000
    4       22.163531   0.000000
    5       22.337869   0.000000
    6       25.357009   0.000000
    7       26.976032   0.000000
    8       27.376228   0.000000
 
  0.2666667E+00  0.1333333E+00  0.6666667E-01  0.1422222E-01
    1       -2.485981   1.000000
    2       14.680050   0.000000
    3       17.106119   0.000000
    4       21.400708   0.000000
    5       22.792122   0.000000
    6       24.995519   0.000000
    7       27.169623   0.000000
    8       27.412768   0.000000
 
  0.3333333E+00  0.1333333E+00  0.6666667E-01  0.1422222E-01
    1       -1.553042   1.000000
    2       11.918213   0.000000
    3       16.734860   0.000000
    4       20.456495   0.000000
    5       22.307698   0.000000
    6       25.693791   0.000000
    7       26.589509   0.000000
    8       27.766411   0.000000
 
  0.4000000E+00  0.1333333E+00  0.6666667E-01  0.1422222E-01
    1       -0.360320   1.000000
    2        9.318128   1.000000
    3       16.606253   0.000000
    4       19.425803   0.000000
    5       22.015230   0.000000
    6       24.825865   0.000000
    7       26.973154   0.000000
    8       29.166046   0.000000
 
  0.4666667E+00  0.1333333E+00  0.6666667E-01  0.1422222E-01
    1        1.086312   1.000000
    2        6.922273   1.000000
    3       16.707524   0.000000
    4       18.482300   0.000000
    5       22.020614   0.000000
    6       23.890176   0.000000
    7       27.159100   0.000000
    8       30.552766   0.000000
 
 -0.4666667E+00  0.1333333E+00  0.6666667E-01  0.1422222E-01
    1        2.770375   1.000000
    2        4.760968   1.000000
    3       16.999062   0.000000
    4       17.754762   0.000000
    5       22.211241   0.000000
    6       23.227178   0.000000
    7       27.276500   0.000000
    8       30.240736   0.000000
 
  0.2666667E+00  0.2000000E+00  0.6666667E-01  0.7111111E-02
    1       -2.263272   1.000000
    2       15.712043   0.000000
    3       16.389318   0.000000
    4       19.994234   0.000000
    5       20.818790   0.000000
    6       22.796149   0.000000
    7       28.984923   0.000000
    8       29.669493   0.000000
 
  0.3333333E+00  0.2000000E+00  0.6666667E-01  0.1422222E-01
    1       -1.419828   1.000000
    2       13.212265   0.000000
    3       15.703904   0.000000
    4       18.677029   0.000000
    5       21.054236   0.000000
    6       23.610628   0.000000
    7       28.187265   0.000000
    8       30.133833   0.000000
 
  0.4000000E+00  0.2000000E+00  0.6666667E-01  0.1422222E-01
    1       -0.315755   1.000000
    2       10.590467   1.000000
    3       15.475124   0.000000
    4       17.391206   0.000000
    5       20.943904   0.000000
    6       25.333665   0.000000
    7       27.210085   0.000000
    8       30.283817   0.000000
 
  0.4666667E+00  0.2000000E+00  0.6666667E-01  0.1422222E-01
    1        1.043834   1.000000
    2        8.139581   1.000000
    3       15.465239   0.000000
    4       16.309872   0.000000
    5       20.994072   0.000000
    6       25.858424   0.000000
    7       27.649136   0.000000
    8       30.494172   0.000000
 
 -0.4666667E+00  0.2000000E+00  0.6666667E-01  0.1422222E-01
    1        2.649428   1.000000
    2        5.903361   1.000000
    3       15.221369   0.000000
    4       15.917703   0.000000
    5       21.268795   0.000000
    6       25.127524   0.000000
    7       28.924823   0.000000
    8       31.268341   0.000000
 
 -0.4000000E+00  0.2000000E+00  0.6666667E-01  0.1422222E-01
    1        3.814821   1.000000
    2        4.578790   1.000000
    3       14.603727   0.000000
    4       16.367750   0.000000
    5       21.766863   0.000000
    6       24.531183   0.000000
    7       29.144837   0.000000
    8       32.439507   0.000000
 
 -0.3333333E+00  0.2000000E+00  0.6666667E-01  0.1422222E-01
    1        2.088451   1.000000
    2        6.618826   1.000000
    3       14.176285   0.000000
    4       17.099603   0.000000
    5       22.458958   0.000000
    6       24.176007   0.000000
    7       28.861449   0.000000
    8       31.181326   0.000000
 
 -0.2666667E+00  0.2000000E+00  0.6666667E-01  0.1422222E-01
    1        0.562686   1.000000
    2        8.923477   1.000000
    3       13.990124   0.000000
    4       18.059541   0.000000
    5       23.217292   0.000000
    6       24.175382   0.000000
    7       27.986609   0.000000
    8       29.631452   0.000000
 
 -0.2000000E+00  0.2000000E+00  0.6666667E-01  0.1422222E-01
    1       -0.712571   1.000000
    2       11.410929   0.000000
    3       14.072858   0.000000
    4       19.218508   0.000000
    5       23.684629   0.000000
    6       24.718187   0.000000
    7       26.397111   0.000000
    8       28.999384   0.000000
 
 -0.1333333E+00  0.2000000E+00  0.6666667E-01  0.7111111E-02
    1       -1.730271   1.000000
    2       13.753068   0.000000
    3       14.718704   0.000000
    4       20.505075   0.000000
    5       23.642376   0.000000
    6       24.541223   0.000000
    7       26.333269   0.000000
    8       28.402611   0.000000
 
  0.3333333E+00  0.2666667E+00  0.6666667E-01  0.7111111E-02
    1       -1.021319   1.000000
    2       14.403632   0.000000
    3       15.122317   0.000000
    4       16.786063   0.000000
    5       19.528505   0.000000
    6       21.365599   0.000000
    7       30.367970   0.000000
    8       32.304453   0.000000
 
  0.4000000E+00  0.2666667E+00  0.6666667E-01  0.1422222E-01
    1       -0.007369   1.000000
    2       12.056384   0.000000
    3       14.542057   0.000000
    4       15.387355   0.000000
    5       19.901098   0.000000
    6       22.597719   0.000000
    7       29.460936   0.000000
    8       32.758257   0.000000
 
  0.4666667E+00  0.2666667E+00  0.6666667E-01  0.1422222E-01
    1        1.262815   1.000000
    2        9.585811   1.000000
    3       13.971707   0.000000
    4       14.648515   0.000000
    5       19.993328   0.000000
    6       24.629535   0.000000
    7       28.508855   0.000000
    8       32.688606   0.000000
 
 -0.4666667E+00  0.2666667E+00  0.6666667E-01  0.1422222E-01
    1        2.781778   1.000000
    2        7.293124   1.000000
    3       13.015352   0.000000
    4       14.781431   0.000000
    5       20.235930   0.000000
    6       26.661637   0.000000
    7       27.911272   0.000000
    8       32.329571   0.000000
 
 -0.4000000E+00  0.2666667E+00  0.6666667E-01  0.1422222E-01
    1        4.504332   1.000000
    2        5.254710   1.000000
    3       12.251616   0.000000
    4       15.208170   0.000000
    5       20.695739   0.000000
    6       26.732674   0.000000
    7       29.415946   0.000000
    8       31.679367   0.000000
 
 -0.3333333E+00  0.2666667E+00  0.6666667E-01  0.1422222E-01
    1        3.343562   1.000000
    2        6.560635   1.000000
    3       11.734903   0.000000
    4       15.880629   0.000000
    5       21.379255   0.000000
    6       26.305705   0.000000
    7       30.206581   0.000000
    8       31.083302   0.000000
 
 -0.2666667E+00  0.2666667E+00  0.6666667E-01  0.1422222E-01
    1        1.742785   1.000000
    2        8.739527   1.000000
    3       11.500974   0.000000
    4       16.786796   0.000000
    5       22.272936   0.000000
    6       26.033666   0.000000
    7       28.230342   0.000000
    8       31.030460   0.000000
 
 -0.2000000E+00  0.2666667E+00  0.6666667E-01  0.7111111E-02
    1        0.387716   1.000000
    2       10.758543   0.999974
    3       11.890011   0.000000
    4       17.912109   0.000000
    5       23.329226   0.000000
    6       25.611909   0.000000
    7       26.484878   0.000000
    8       30.254907   0.000000
 
  0.4000000E+00  0.3333333E+00  0.6666667E-01  0.7111111E-02
    1        0.563318   1.000000
    2       13.327568   0.000000
    3       13.416060   0.000000
    4       14.303899   0.000000
    5       18.540104   0.000000
    6       20.422602   0.000000
    7       31.831780   0.000000
    8       34.662223   0.000000
 
  0.4666667E+00  0.3333333E+00  0.6666667E-01  0.1422222E-01
    1        1.741836   1.000000
    2       11.206981   0.000000
    3       12.057425   0.000000
    4       13.850346   0.000000
    5       19.084282   0.000000
    6       21.863599   0.000000
    7       30.988017   0.000000
    8       34.892330   0.000000
 
 -0.4666667E+00  0.3333333E+00  0.6666667E-01  0.1422222E-01
    1        3.168893   1.000000
    2        8.906517   1.000000
    3       10.944274   0.114113
    4       13.932449   0.000000
    5       19.352728   0.000000
    6       24.096787   0.000000
    7       30.143472   0.000000
    8       34.284470   0.000000
 