<?xml version="1.0" encoding="ISO-8859-1"?>
<modeling>
 <generator>
  <i name="program" type="string">vasp </i>
  <i name="version" type="string">6.2.0  </i>
  <i name="subversion" type="string">18Jan21 (build Aug 12 2022 13:00:08) complex                          parallel </i>
  <i name="platform" type="string">LinuxIFC </i>
  <i name="date" type="string">2024 11 05 </i>
  <i name="time" type="string">05:19:18 </i>
 </generator>
 <incar>
  <i type="int" name="ISTART">     0</i>
  <i type="string" name="PREC">Accurate      (Accurate strictly avoids</i>
  <i type="logical" name="ADDGRID"> T  </i>
  <i type="int" name="ISPIN">     1</i>
  <i type="int" name="NELM">    90</i>
  <i type="int" name="NELMIN">     6</i>
  <i type="int" name="IBRION">     2</i>
  <i name="EDIFF">      0.00000100</i>
  <i name="EDIFFG">     -0.00200000</i>
  <i type="int" name="NSW">   100</i>
  <i type="int" name="ISIF">     2</i>
  <i type="int" name="ISYM">     2</i>
  <i name="ENCUT">    700.00000000</i>
  <i type="logical" name="LREAL"> F  </i>
  <i type="int" name="ISMEAR">     0</i>
  <i name="SIGMA">      0.05000000</i>
  <i type="logical" name="LWAVE"> F  </i>
  <i type="logical" name="LCHARG"> F  </i>
  <i type="logical" name="LASPH"> T  </i>
 </incar>
 <primitive_cell>
  <structure name="primitive_cell" >
   <crystal>
    <varray name="basis" >
     <v>       2.32392105       0.00000000       1.34171532 </v>
     <v>       0.77464035       2.19101355       1.34171532 </v>
     <v>       0.00000000       0.00000000       2.68343262 </v>
    </varray>
    <i name="volume">     13.66334794 </i>
    <varray name="rec_basis" >
     <v>       0.43030722      -0.15213659       0.00000000 </v>
     <v>       0.00000000       0.45640977       0.00000000 </v>
     <v>      -0.21515345      -0.15213648       0.37265702 </v>
    </varray>
   </crystal>
   <varray name="positions" >
    <v>       0.00000000       0.00000000       0.00000000 </v>
   </varray>
  </structure>
  <varray name="primitive_index" >
   <v type="int" >        1 </v>
  </varray>
 </primitive_cell>
 <kpoints>
  <generation param="Monkhorst-Pack">
   <v type="int" name="divisions">      15       15       15 </v>
   <v name="usershift">      0.00000000       0.00000000       0.00000000 </v>
   <v name="genvec1">      0.06666667       0.00000000       0.00000000 </v>
   <v name="genvec2">      0.00000000       0.06666667       0.00000000 </v>
   <v name="genvec3">      0.00000000       0.00000000       0.06666667 </v>
   <v name="shift">      0.00000000       0.00000000       0.00000000 </v>
  </generation>
  <varray name="kpointlist" >
   <v>       0.00000000       0.00000000       0.00000000 </v>
   <v>       0.06666667      -0.00000000       0.00000000 </v>
   <v>       0.13333333       0.00000000       0.00000000 </v>
   <v>       0.20000000       0.00000000       0.00000000 </v>
   <v>       0.26666667       0.00000000       0.00000000 </v>
   <v>       0.33333333       0.00000000       0.00000000 </v>
   <v>       0.40000000       0.00000000       0.00000000 </v>
   <v>       0.46666667       0.00000000       0.00000000 </v>
   <v>       0.06666667       0.06666667       0.00000000 </v>
   <v>       0.13333333       0.06666667       0.00000000 </v>
   <v>       0.20000000       0.06666667       0.00000000 </v>
   <v>       0.26666667       0.06666667       0.00000000 </v>
   <v>       0.33333333       0.06666667       0.00000000 </v>
   <v>       0.40000000       0.06666667       0.00000000 </v>
   <v>       0.46666667       0.06666667       0.00000000 </v>
   <v>      -0.46666667       0.06666667       0.00000000 </v>
   <v>      -0.40000000       0.06666667       0.00000000 </v>
   <v>      -0.33333333       0.06666667       0.00000000 </v>
   <v>      -0.26666667       0.06666667       0.00000000 </v>
   <v>      -0.20000000       0.06666667       0.00000000 </v>
   <v>      -0.13333333       0.06666667       0.00000000 </v>
   <v>      -0.06666667       0.06666667       0.00000000 </v>
   <v>       0.13333333       0.13333333       0.00000000 </v>
   <v>       0.20000000       0.13333333       0.00000000 </v>
   <v>       0.26666667       0.13333333       0.00000000 </v>
   <v>       0.33333333       0.13333333       0.00000000 </v>
   <v>       0.40000000       0.13333333       0.00000000 </v>
   <v>       0.46666667       0.13333333       0.00000000 </v>
   <v>      -0.46666667       0.13333333       0.00000000 </v>
   <v>      -0.40000000       0.13333333       0.00000000 </v>
   <v>      -0.33333333       0.13333333       0.00000000 </v>
   <v>      -0.26666667       0.13333333       0.00000000 </v>
   <v>      -0.20000000       0.13333333       0.00000000 </v>
   <v>      -0.13333333       0.13333333       0.00000000 </v>
   <v>       0.20000000       0.20000000       0.00000000 </v>
   <v>       0.26666667       0.20000000       0.00000000 </v>
   <v>       0.33333333       0.20000000       0.00000000 </v>
   <v>       0.40000000       0.20000000       0.00000000 </v>
   <v>       0.46666667       0.20000000       0.00000000 </v>
   <v>      -0.46666667       0.20000000       0.00000000 </v>
   <v>      -0.40000000       0.20000000       0.00000000 </v>
   <v>      -0.33333333       0.20000000       0.00000000 </v>
   <v>      -0.26666667       0.20000000       0.00000000 </v>
   <v>      -0.20000000       0.20000000       0.00000000 </v>
   <v>       0.26666667       0.26666667       0.00000000 </v>
   <v>       0.33333333       0.26666667       0.00000000 </v>
   <v>       0.40000000       0.26666667       0.00000000 </v>
   <v>       0.46666667       0.26666667       0.00000000 </v>
   <v>      -0.46666667       0.26666667       0.00000000 </v>
   <v>      -0.40000000       0.26666667       0.00000000 </v>
   <v>      -0.33333333       0.26666667       0.00000000 </v>
   <v>      -0.26666667       0.26666667       0.00000000 </v>
   <v>       0.33333333       0.33333333       0.00000000 </v>
   <v>       0.40000000       0.33333333       0.00000000 </v>
   <v>       0.46666667       0.33333333       0.00000000 </v>
   <v>      -0.46666667       0.33333333       0.00000000 </v>
   <v>      -0.40000000       0.33333333       0.00000000 </v>
   <v>      -0.33333333       0.33333333       0.00000000 </v>
   <v>       0.40000000       0.40000000       0.00000000 </v>
   <v>       0.46666667       0.40000000       0.00000000 </v>
   <v>      -0.46666667       0.40000000       0.00000000 </v>
   <v>      -0.40000000       0.40000000       0.00000000 </v>
   <v>       0.46666667       0.46666667       0.00000000 </v>
   <v>      -0.46666667       0.46666667       0.00000000 </v>
   <v>       0.20000000       0.13333333       0.06666667 </v>
   <v>       0.26666667       0.13333333       0.06666667 </v>
   <v>       0.33333333       0.13333333       0.06666667 </v>
   <v>       0.40000000       0.13333333       0.06666667 </v>
   <v>       0.46666667       0.13333333       0.06666667 </v>
   <v>      -0.46666667       0.13333333       0.06666667 </v>
   <v>       0.26666667       0.20000000       0.06666667 </v>
   <v>       0.33333333       0.20000000       0.06666667 </v>
   <v>       0.40000000       0.20000000       0.06666667 </v>
   <v>       0.46666667       0.20000000       0.06666667 </v>
   <v>      -0.46666667       0.20000000       0.06666667 </v>
   <v>      -0.40000000       0.20000000       0.06666667 </v>
   <v>      -0.33333333       0.20000000       0.06666667 </v>
   <v>      -0.26666667       0.20000000       0.06666667 </v>
   <v>      -0.20000000       0.20000000       0.06666667 </v>
   <v>      -0.13333333       0.20000000       0.06666667 </v>
   <v>       0.33333333       0.26666667       0.06666667 </v>
   <v>       0.40000000       0.26666667       0.06666667 </v>
   <v>       0.46666667       0.26666667       0.06666667 </v>
   <v>      -0.46666667       0.26666667       0.06666667 </v>
   <v>      -0.40000000       0.26666667       0.06666667 </v>
   <v>      -0.33333333       0.26666667       0.06666667 </v>
   <v>      -0.26666667       0.26666667       0.06666667 </v>
   <v>      -0.20000000       0.26666667       0.06666667 </v>
   <v>       0.40000000       0.33333333       0.06666667 </v>
   <v>       0.46666667       0.33333333       0.06666667 </v>
   <v>      -0.46666667       0.33333333       0.06666667 </v>
   <v>      -0.40000000       0.33333333       0.06666667 </v>
   <v>      -0.33333333       0.33333333       0.06666667 </v>
   <v>      -0.26666667       0.33333333       0.06666667 </v>
   <v>       0.46666667       0.40000000       0.06666667 </v>
   <v>      -0.46666667       0.40000000       0.06666667 </v>
   <v>      -0.40000000       0.40000000       0.06666667 </v>
   <v>      -0.33333333       0.40000000       0.06666667 </v>
   <v>      -0.46666667       0.46666667       0.06666667 </v>
   <v>      -0.40000000       0.46666667       0.06666667 </v>
   <v>       0.40000000       0.26666667       0.13333333 </v>
   <v>       0.46666667       0.26666667       0.13333333 </v>
   <v>      -0.46666667       0.26666667       0.13333333 </v>
   <v>      -0.40000000       0.26666667       0.13333333 </v>
   <v>       0.46666667       0.33333333       0.13333333 </v>
   <v>      -0.46666667       0.33333333       0.13333333 </v>
   <v>      -0.40000000       0.33333333       0.13333333 </v>
   <v>      -0.33333333       0.33333333       0.13333333 </v>
   <v>      -0.26666667       0.33333333       0.13333333 </v>
   <v>      -0.20000000       0.33333333       0.13333333 </v>
   <v>      -0.46666667       0.40000000       0.13333333 </v>
   <v>      -0.40000000       0.40000000       0.13333333 </v>
   <v>      -0.33333333       0.40000000       0.13333333 </v>
   <v>      -0.26666667       0.40000000       0.13333333 </v>
   <v>      -0.40000000       0.46666667       0.13333333 </v>
   <v>      -0.33333333       0.46666667       0.13333333 </v>
   <v>      -0.40000000       0.40000000       0.20000000 </v>
   <v>      -0.33333333       0.40000000       0.20000000 </v>
   <v>      -0.33333333       0.46666667       0.20000000 </v>
   <v>      -0.26666667       0.46666667       0.20000000 </v>
  </varray>
  <varray name="weights" >
   <v>       0.00029630 </v>
   <v>       0.00237037 </v>
   <v>       0.00237037 </v>
   <v>       0.00237037 </v>
   <v>       0.00237037 </v>
   <v>       0.00237037 </v>
   <v>       0.00237037 </v>
   <v>       0.00237037 </v>
   <v>       0.00177778 </v>
   <v>       0.00711111 </v>
   <v>       0.00711111 </v>
   <v>       0.00711111 </v>
   <v>       0.00711111 </v>
   <v>       0.00711111 </v>
   <v>       0.00711111 </v>
   <v>       0.00711111 </v>
   <v>       0.00711111 </v>
   <v>       0.00711111 </v>
   <v>       0.00711111 </v>
   <v>       0.00711111 </v>
   <v>       0.00711111 </v>
   <v>       0.00355556 </v>
   <v>       0.00177778 </v>
   <v>       0.00711111 </v>
   <v>       0.00711111 </v>
   <v>       0.00711111 </v>
   <v>       0.00711111 </v>
   <v>       0.00711111 </v>
   <v>       0.00711111 </v>
   <v>       0.00711111 </v>
   <v>       0.00711111 </v>
   <v>       0.00711111 </v>
   <v>       0.00711111 </v>
   <v>       0.00355556 </v>
   <v>       0.00177778 </v>
   <v>       0.00711111 </v>
   <v>       0.00711111 </v>
   <v>       0.00711111 </v>
   <v>       0.00711111 </v>
   <v>       0.00711111 </v>
   <v>       0.00711111 </v>
   <v>       0.00711111 </v>
   <v>       0.00711111 </v>
   <v>       0.00355556 </v>
   <v>       0.00177778 </v>
   <v>       0.00711111 </v>
   <v>       0.00711111 </v>
   <v>       0.00711111 </v>
   <v>       0.00711111 </v>
   <v>       0.00711111 </v>
   <v>       0.00711111 </v>
   <v>       0.00355556 </v>
   <v>       0.00177778 </v>
   <v>       0.00711111 </v>
   <v>       0.00711111 </v>
   <v>       0.00711111 </v>
   <v>       0.00711111 </v>
   <v>       0.00355556 </v>
   <v>       0.00177778 </v>
   <v>       0.00711111 </v>
   <v>       0.00711111 </v>
   <v>       0.00355556 </v>
   <v>       0.00177778 </v>
   <v>       0.00355556 </v>
   <v>       0.00711111 </v>
   <v>       0.01422222 </v>
   <v>       0.01422222 </v>
   <v>       0.01422222 </v>
   <v>       0.01422222 </v>
   <v>       0.01422222 </v>
   <v>       0.00711111 </v>
   <v>       0.01422222 </v>
   <v>       0.01422222 </v>
   <v>       0.01422222 </v>
   <v>       0.01422222 </v>
   <v>       0.01422222 </v>
   <v>       0.01422222 </v>
   <v>       0.01422222 </v>
   <v>       0.01422222 </v>
   <v>       0.00711111 </v>
   <v>       0.00711111 </v>
   <v>       0.01422222 </v>
   <v>       0.01422222 </v>
   <v>       0.01422222 </v>
   <v>       0.01422222 </v>
   <v>       0.01422222 </v>
   <v>       0.01422222 </v>
   <v>       0.00711111 </v>
   <v>       0.00711111 </v>
   <v>       0.01422222 </v>
   <v>       0.01422222 </v>
   <v>       0.01422222 </v>
   <v>       0.01422222 </v>
   <v>       0.00711111 </v>
   <v>       0.00711111 </v>
   <v>       0.01422222 </v>
   <v>       0.01422222 </v>
   <v>       0.00711111 </v>
   <v>       0.00711111 </v>
   <v>       0.00711111 </v>
   <v>       0.00711111 </v>
   <v>       0.01422222 </v>
   <v>       0.01422222 </v>
   <v>       0.01422222 </v>
   <v>       0.00711111 </v>
   <v>       0.01422222 </v>
   <v>       0.01422222 </v>
   <v>       0.01422222 </v>
   <v>       0.01422222 </v>
   <v>       0.00711111 </v>
   <v>       0.00711111 </v>
   <v>       0.01422222 </v>
   <v>       0.01422222 </v>
   <v>       0.00711111 </v>
   <v>       0.00711111 </v>
   <v>       0.00711111 </v>
   <v>       0.00711111 </v>
   <v>       0.01422222 </v>
   <v>       0.00711111 </v>
   <v>       0.00711111 </v>
  </varray>
 </kpoints>
 <parameters>
  <separator name="general" >
   <i type="string" name="SYSTEM">unknown system</i>
   <i type="logical" name="LCOMPAT"> F  </i>
  </separator>
  <separator name="electronic" >
   <i type="string" name="PREC">accura</i>
   <i name="ENMAX">    700.00000000</i>
   <i name="ENAUG">    322.06900000</i>
   <i name="EDIFF">      0.00000100</i>
   <i type="int" name="IALGO">    38</i>
   <i type="int" name="IWAVPR">    11</i>
   <i type="int" name="NBANDS">     8</i>
   <i type="int" name="NBANDSLOW">    -1</i>
   <i type="int" name="NBANDSHIGH">    -1</i>
   <i name="NELECT">      4.00000000</i>
   <i type="int" name="TURBO">     0</i>
   <i type="int" name="IRESTART">     0</i>
   <i type="int" name="NREBOOT">     0</i>
   <i type="int" name="NMIN">     0</i>
   <i name="EREF">      0.00000000</i>
   <separator name="electronic smearing" >
    <i type="int" name="ISMEAR">     0</i>
    <i name="SIGMA">      0.05000000</i>
    <i name="KSPACING">      0.50000000</i>
    <i type="logical" name="KGAMMA"> T  </i>
    <i type="logical" name="KBLOWUP"> T  </i>
   </separator>
   <separator name="electronic projectors" >
    <i type="logical" name="LREAL"> F  </i>
    <v name="ROPT">      0.00000000</v>
    <i type="int" name="LMAXPAW">  -100</i>
    <i type="int" name="LMAXMIX">     2</i>
    <i type="logical" name="NLSPLINE"> F  </i>
   </separator>
   <separator name="electronic startup" >
    <i type="int" name="ISTART">     0</i>
    <i type="int" name="ICHARG">     2</i>
    <i type="int" name="INIWAV">     1</i>
   </separator>
   <separator name="electronic spin" >
    <i type="int" name="ISPIN">     1</i>
    <i type="logical" name="LNONCOLLINEAR"> F  </i>
    <v name="MAGMOM">      1.00000000</v>
    <i name="NUPDOWN">     -1.00000000</i>
    <i type="logical" name="LSORBIT"> F  </i>
    <v name="SAXIS">      0.00000000      0.00000000      1.00000000</v>
    <i type="logical" name="LSPIRAL"> F  </i>
    <v name="QSPIRAL">      0.00000000      0.00000000      0.00000000</v>
    <i type="logical" name="LZEROZ"> F  </i>
   </separator>
   <separator name="electronic exchange-correlation" >
    <i type="logical" name="LASPH"> T  </i>
    <i type="logical" name="LMETAGGA"> F  </i>
   </separator>
   <separator name="electronic convergence" >
    <i type="int" name="NELM">    90</i>
    <i type="int" name="NELMDL">    -5</i>
    <i type="int" name="NELMIN">     6</i>
    <i name="ENINI">    700.00000000</i>
    <separator name="electronic convergence detail" >
     <i type="logical" name="LDIAG"> T  </i>
     <i type="logical" name="LSUBROT"> F  </i>
     <i name="WEIMIN">      0.00100000</i>
     <i name="EBREAK">      0.00000003</i>
     <i name="DEPER">      0.30000000</i>
     <i type="int" name="NRMM">     4</i>
     <i name="TIME">      0.40000000</i>
    </separator>
   </separator>
   <separator name="electronic mixer" >
    <i name="AMIX">      0.40000000</i>
    <i name="BMIX">      1.00000000</i>
    <i name="AMIN">      0.10000000</i>
    <i name="AMIX_MAG">      1.60000000</i>
    <i name="BMIX_MAG">      1.00000000</i>
    <separator name="electronic mixer details" >
     <i type="int" name="IMIX">     4</i>
     <i type="logical" name="MIXFIRST"> F  </i>
     <i type="int" name="MAXMIX">   -45</i>
     <i name="WC">    100.00000000</i>
     <i type="int" name="INIMIX">     1</i>
     <i type="int" name="MIXPRE">     1</i>
     <i type="int" name="MREMOVE">     5</i>
    </separator>
   </separator>
   <separator name="electronic dipolcorrection" >
    <i type="logical" name="LDIPOL"> F  </i>
    <i type="logical" name="LMONO"> F  </i>
    <i type="int" name="IDIPOL">     0</i>
    <i name="EPSILON">      1.00000000</i>
    <v name="DIPOL">   -100.00000000   -100.00000000   -100.00000000</v>
    <i name="EFIELD">      0.00000000</i>
   </separator>
  </separator>
  <separator name="grids" >
   <i type="int" name="NGX">    24</i>
   <i type="int" name="NGY">    24</i>
   <i type="int" name="NGZ">    24</i>
   <i type="int" name="NGXF">    48</i>
   <i type="int" name="NGYF">    48</i>
   <i type="int" name="NGZF">    48</i>
   <i type="logical" name="ADDGRID"> T  </i>
  </separator>
  <separator name="ionic" >
   <i type="int" name="NSW">   100</i>
   <i type="int" name="IBRION">     2</i>
   <i type="int" name="MDALGO">     0</i>
   <i type="int" name="ISIF">     2</i>
   <i name="PSTRESS">      0.00000000</i>
   <i name="EDIFFG">     -0.00200000</i>
   <i type="int" name="NFREE">     1</i>
   <i name="POTIM">      0.50000000</i>
   <i name="SMASS">     -3.00000000</i>
   <i name="SCALEE">      1.00000000</i>
  </separator>
  <separator name="ionic md" >
   <i name="TEBEG">      0.00010000</i>
   <i name="TEEND">      0.00010000</i>
   <i type="int" name="NBLOCK">     1</i>
   <i type="int" name="KBLOCK">   100</i>
   <i type="int" name="NPACO">   256</i>
   <i name="APACO">     16.00000000</i>
  </separator>
  <separator name="symmetry" >
   <i type="int" name="ISYM">     2</i>
   <i name="SYMPREC">      0.00001000</i>
  </separator>
  <separator name="dos" >
   <i type="int" name="LORBIT">     0</i>
   <v name="RWIGS">     -1.00000000</v>
   <i type="int" name="NEDOS">   301</i>
   <i name="EMIN">     10.00000000</i>
   <i name="EMAX">    -10.00000000</i>
   <i name="EFERMI">      0.00000000</i>
  </separator>
  <separator name="writing" >
   <i type="int" name="NWRITE">     2</i>
   <i type="logical" name="LWAVE"> F  </i>
   <i type="logical" name="LDOWNSAMPLE"> F  </i>
   <i type="logical" name="LCHARG"> F  </i>
   <i type="logical" name="LPARD"> F  </i>
   <i type="logical" name="LVTOT"> F  </i>
   <i type="logical" name="LVHAR"> F  </i>
   <i type="logical" name="LELF"> F  </i>
   <i type="logical" name="LOPTICS"> F  </i>
   <v name="STM">      0.00000000      0.00000000      0.00000000      0.00000000      0.00000000      0.00000000      0.00000000</v>
  </separator>
  <separator name="performance" >
   <i type="int" name="NPAR">     4</i>
   <i type="int" name="NSIM">     4</i>
   <i type="int" name="NBLK">    -1</i>
   <i type="logical" name="LPLANE"> T  </i>
   <i type="logical" name="LSCALAPACK"> T  </i>
   <i type="logical" name="LSCAAWARE"> F  </i>
   <i type="logical" name="LSCALU"> F  </i>
   <i type="logical" name="LASYNC"> F  </i>
   <i type="logical" name="LORBITALREAL"> F  </i>
  </separator>
  <separator name="miscellaneous" >
   <i type="int" name="IDIOT">     3</i>
   <i type="int" name="PHON_NSTRUCT">    -1</i>
   <i type="logical" name="LMUSIC"> F  </i>
   <v name="POMASS">     28.08500000</v>
   <v name="DARWINR">      0.00000000</v>
   <v name="DARWINV">      1.00000000</v>
   <i type="logical" name="LCORR"> T  </i>
  </separator>
  <i type="logical" name="GGA_COMPAT"> T  </i>
  <i type="logical" name="LBERRY"> F  </i>
  <i type="int" name="ICORELEVEL">     0</i>
  <i type="logical" name="LDAU"> F  </i>
  <i type="int" name="I_CONSTRAINED_M">     0</i>
  <separator name="electronic exchange-correlation" >
   <i type="string" name="GGA">--</i>
   <i type="int" name="VOSKOWN">     0</i>
   <i type="logical" name="LHFCALC"> F  </i>
   <i type="string" name="PRECFOCK"></i>
   <i type="logical" name="LSYMGRAD"> F  </i>
   <i type="logical" name="LHFONE"> F  </i>
   <i type="logical" name="LRHFCALC"> F  </i>
   <i type="logical" name="LTHOMAS"> F  </i>
   <i type="logical" name="LMODELHF"> F  </i>
   <i type="logical" name="LFOCKACE"> F  </i>
   <i name="ENCUT4O">     -1.00000000</i>
   <i type="int" name="EXXOEP">     0</i>
   <i type="int" name="FOURORBIT">     0</i>
   <i name="AEXX">      0.00000000</i>
   <i name="HFALPHA">      0.00000000</i>
   <i name="MCALPHA">      0.00000000</i>
   <i name="ALDAX">      1.00000000</i>
   <i name="AGGAX">      1.00000000</i>
   <i name="ALDAC">      1.00000000</i>
   <i name="AGGAC">      1.00000000</i>
   <i type="int" name="NKREDX">     1</i>
   <i type="int" name="NKREDY">     1</i>
   <i type="int" name="NKREDZ">     1</i>
   <i type="logical" name="SHIFTRED"> F  </i>
   <i type="logical" name="ODDONLY"> F  </i>
   <i type="logical" name="EVENONLY"> F  </i>
   <i type="int" name="LMAXFOCK">     0</i>
   <i type="int" name="NMAXFOCKAE">     0</i>
   <i type="logical" name="LFOCKAEDFT"> F  </i>
   <i name="HFSCREEN">      0.00000000</i>
   <i name="HFSCREENC">      0.00000000</i>
   <i type="int" name="NBANDSGWLOW">     0</i>
  </separator>
  <separator name="vdW DFT" >
   <i type="logical" name="LUSE_VDW"> F  </i>
   <i name="Zab_VDW">     -0.84910000</i>
   <i name="PARAM1">      0.12340000</i>
   <i name="PARAM2">      1.00000000</i>
   <i name="PARAM3">      0.00000000</i>
  </separator>
  <separator name="model GW" >
   <i type="int" name="MODEL_GW">     0</i>
   <i name="MODEL_EPS0">      8.19800877</i>
   <i name="MODEL_ALPHA">      1.00000000</i>
  </separator>
  <separator name="linear response parameters" >
   <i type="logical" name="LEPSILON"> F  </i>
   <i type="logical" name="LRPA"> F  </i>
   <i type="logical" name="LNABLA"> F  </i>
   <i type="logical" name="LVEL"> F  </i>
   <i type="int" name="KINTER">     0</i>
   <i name="CSHIFT">      0.10000000</i>
   <i name="OMEGAMAX">     -1.00000000</i>
   <i name="DEG_THRESHOLD">      0.00200000</i>
   <i name="RTIME">     -0.10000000</i>
   <i name="WPLASMAI">      0.00000000</i>
   <v name="DFIELD">      0.00000000      0.00000000      0.00000000</v>
   <v name="WPLASMA">      0.00000000      0.00000000      0.00000000      0.00000000      0.00000000      0.00000000      0.00000000      0.00000000      0.00000000</v>
  </separator>
  <separator name="orbital magnetization" >
   <i type="logical" name="NUCIND"> F  </i>
   <v name="MAGPOS">      0.00000000      0.00000000      0.00000000</v>
   <i type="logical" name="LNICSALL"> T  </i>
   <i type="logical" name="ORBITALMAG"> F  </i>
   <i type="logical" name="LMAGBLOCH"> F  </i>
   <i type="logical" name="LCHIMAG"> F  </i>
   <i type="logical" name="LGAUGE"> T  </i>
   <i type="int" name="MAGATOM">     0</i>
   <v name="MAGDIPOL">      0.00000000      0.00000000      0.00000000</v>
   <v name="AVECCONST">      0.00000000      0.00000000      0.00000000</v>
  </separator>
  <separator name="response functions" >
   <i type="logical" name="LFINITE_TEMPERATURE"> F  </i>
   <i type="logical" name="LADDER"> F  </i>
   <i type="logical" name="LRPAFORCE"> F  </i>
   <i type="logical" name="LFXC"> F  </i>
   <i type="logical" name="LHARTREE"> T  </i>
   <i type="int" name="IBSE">     0</i>
   <v type="int" name="KPOINT">    -1     0     0     0</v>
   <i type="logical" name="LTCTC"> F  </i>
   <i type="logical" name="LTCTE"> F  </i>
   <i type="logical" name="LTETE"> F  </i>
   <i type="logical" name="LTRIPLET"> F  </i>
   <i type="logical" name="LFXCEPS"> F  </i>
   <i type="logical" name="LFXHEG"> F  </i>
   <i type="int" name="NATURALO">     2</i>
   <i type="logical" name="LHOLEGF"> F  </i>
   <i type="logical" name="L2ORDER"> F  </i>
   <i type="logical" name="LDMP1"> F  </i>
   <i type="logical" name="LMP2LT"> F  </i>
   <i type="logical" name="LSMP2LT"> F  </i>
   <i type="logical" name="LGWLF"> F  </i>
   <i name="ENCUTGW">     -2.00000000</i>
   <i name="ENCUTGWSOFT">     -2.00000000</i>
   <i name="ENCUTLF">     -1.00000000</i>
   <i type="logical" name="LESF_SPLINES"> F  </i>
   <i type="int" name="LMAXMP2">    -1</i>
   <i name="SCISSOR">      0.00000000</i>
   <i type="int" name="NOMEGA">     0</i>
   <i type="int" name="NOMEGAR">     0</i>
   <i type="int" name="NBANDSGW">    -1</i>
   <i type="int" name="NBANDSO">    -1</i>
   <i type="int" name="NBANDSV">    -1</i>
   <i type="int" name="NELM">    90</i>
   <i type="int" name="NELMHF">     1</i>
   <i type="int" name="DIM">     3</i>
   <i type="int" name="IESPILON">     4</i>
   <i type="int" name="ANTIRES">     0</i>
   <i name="OMEGAMAX">    -30.00000000</i>
   <i name="OMEGAMIN">    -30.00000000</i>
   <i name="OMEGATL">   -200.00000000</i>
   <i type="int" name="OMEGAGRID">     0</i>
   <i name="CSHIFT">     -0.10000000</i>
   <i type="logical" name="LSELFENERGY"> F  </i>
   <i type="logical" name="LSPECTRAL"> F  </i>
   <i type="logical" name="LSPECTRALGW"> F  </i>
   <i type="logical" name="LSINGLES"> F  </i>
   <i type="logical" name="LFERMIGW"> F  </i>
   <i type="logical" name="ODDONLYGW"> F  </i>
   <i type="logical" name="EVENONLYGW"> F  </i>
   <i type="int" name="NKREDLFX">     1</i>
   <i type="int" name="NKREDLFY">     1</i>
   <i type="int" name="NKREDLFZ">     1</i>
   <i type="int" name="MAXMEM">  2800</i>
   <i type="int" name="TELESCOPE">     0</i>
   <i type="int" name="NTAUPAR">    -1</i>
   <i type="int" name="NOMEGAPAR">    -1</i>
   <i name="DAMP_NEWTON">      0.80000001</i>
   <i name="LAMBDA">      1.00000000</i>
  </separator>
  <separator name="External order field" >
   <i name="OFIELD_KAPPA">      0.00000000</i>
   <v name="OFIELD_K">      0.00000000      0.00000000      0.00000000</v>
   <i name="OFIELD_Q6_NEAR">      0.00000000</i>
   <i name="OFIELD_Q6_FAR">      0.00000000</i>
   <i name="OFIELD_A">      0.00000000</i>
  </separator>
 </parameters>
 <atominfo>
  <atoms>       1 </atoms>
  <types>       1 </types>
  <array name="atoms" >
   <dimension dim="1">ion</dimension>
   <field type="string">element</field>
   <field type="int">atomtype</field>
   <set>
    <rc><c>Si</c><c>   1</c></rc>
   </set>
  </array>
  <array name="atomtypes" >
   <dimension dim="1">type</dimension>
   <field type="int">atomspertype</field>
   <field type="string">element</field>
   <field>mass</field>
   <field>valence</field>
   <field type="string">pseudopotential</field>
   <set>
    <rc><c>   1</c><c>Si</c><c>     28.08500000</c><c>      4.00000000</c><c>  PAW_PBE Si 05Jan2001                  </c></rc>
   </set>
  </array>
 </atominfo>
 <structure name="initialpos" >
  <crystal>
   <varray name="basis" >
    <v>       2.32392105       0.00000000       1.34171532 </v>
    <v>       0.77464035       2.19101355       1.34171532 </v>
    <v>       0.00000000       0.00000000       2.68343262 </v>
   </varray>
   <i name="volume">     13.66334794 </i>
   <varray name="rec_basis" >
    <v>       0.43030722      -0.15213659       0.00000000 </v>
    <v>       0.00000000       0.45640977       0.00000000 </v>
    <v>      -0.21515345      -0.15213648       0.37265702 </v>
   </varray>
  </crystal>
  <varray name="positions" >
   <v>       0.00000000       0.00000000       0.00000000 </v>
  </varray>
 </structure>
 <calculation>
  <scstep>
   <time name="dav">    1.00    1.00</time>
   <time name="total">    1.22    1.22</time>
   <energy>
    <i name="alphaZ">      2.46375419 </i>
    <i name="ewald">   -139.17673020 </i>
    <i name="hartreedc">     -0.48549148 </i>
    <i name="XCdc">     -8.65150003 </i>
    <i name="pawpsdc">     88.12379961 </i>
    <i name="pawaedc">    -70.53051779 </i>
    <i name="eentropy">     -0.00064785 </i>
    <i name="bandstr">     23.40766040 </i>
    <i name="atom">    103.06662367 </i>
    <i name="e_fr_energy">     -1.78304946 </i>
    <i name="e_wo_entrp">     -1.78240161 </i>
    <i name="e_0_energy">     -1.78272554 </i>
   </energy>
  </scstep>
  <scstep>
   <time name="dav">    1.31    1.32</time>
   <time name="total">    1.31    1.33</time>
   <energy>
    <i name="e_fr_energy">     -4.87826316 </i>
    <i name="e_wo_entrp">     -4.87770245 </i>
    <i name="e_0_energy">     -4.87798281 </i>
   </energy>
  </scstep>
  <scstep>
   <time name="dav">    1.04    1.05</time>
   <time name="total">    1.04    1.05</time>
   <energy>
    <i name="e_fr_energy">     -4.89521805 </i>
    <i name="e_wo_entrp">     -4.89465313 </i>
    <i name="e_0_energy">     -4.89493559 </i>
   </energy>
  </scstep>
  <scstep>
   <time name="dav">    1.49    1.51</time>
   <time name="total">    1.49    1.51</time>
   <energy>
    <i name="e_fr_energy">     -4.89523672 </i>
    <i name="e_wo_entrp">     -4.89467181 </i>
    <i name="e_0_energy">     -4.89495426 </i>
   </energy>
  </scstep>
  <scstep>
   <time name="dav">    1.11    1.13</time>
   <time name="total">    1.20    1.22</time>
   <energy>
    <i name="e_fr_energy">     -4.89523672 </i>
    <i name="e_wo_entrp">     -4.89467181 </i>
    <i name="e_0_energy">     -4.89495427 </i>
   </energy>
  </scstep>
  <scstep>
   <time name="dav">    1.11    1.11</time>
   <time name="total">    1.41    1.42</time>
   <energy>
    <i name="e_fr_energy">     -4.88081756 </i>
    <i name="e_wo_entrp">     -4.88022190 </i>
    <i name="e_0_energy">     -4.88051973 </i>
   </energy>
  </scstep>
  <scstep>
   <time name="dav">    1.10    1.11</time>
   <time name="total">    1.40    1.41</time>
   <energy>
    <i name="e_fr_energy">     -4.87246737 </i>
    <i name="e_wo_entrp">     -4.87182216 </i>
    <i name="e_0_energy">     -4.87214477 </i>
   </energy>
  </scstep>
  <scstep>
   <time name="dav">    1.38    1.38</time>
   <time name="total">    1.68    1.69</time>
   <energy>
    <i name="e_fr_energy">     -4.87242414 </i>
    <i name="e_wo_entrp">     -4.87177953 </i>
    <i name="e_0_energy">     -4.87210184 </i>
   </energy>
  </scstep>
  <scstep>
   <time name="dav">    1.16    1.16</time>
   <time name="total">    1.36    1.38</time>
   <energy>
    <i name="alphaZ">      2.46375419 </i>
    <i name="ewald">   -139.17673020 </i>
    <i name="hartreedc">     -0.36913095 </i>
    <i name="XCdc">     -8.58245083 </i>
    <i name="pawpsdc">    337.80419030 </i>
    <i name="pawaedc">   -320.22771228 </i>
    <i name="eentropy">     -0.00064473 </i>
    <i name="bandstr">     20.14967653 </i>
    <i name="atom">    103.06662367 </i>
    <i name="e_fr_energy">     -4.87242431 </i>
    <i name="e_wo_entrp">     -4.87177958 </i>
    <i name="e_0_energy">     -4.87210194 </i>
   </energy>
  </scstep>
  <structure>
   <crystal>
    <varray name="basis" >
     <v>       2.32392105       0.00000000       1.34171532 </v>
     <v>       0.77464035       2.19101355       1.34171532 </v>
     <v>       0.00000000       0.00000000       2.68343262 </v>
    </varray>
    <i name="volume">     13.66334794 </i>
    <varray name="rec_basis" >
     <v>       0.43030722      -0.15213659       0.00000000 </v>
     <v>       0.00000000       0.45640977       0.00000000 </v>
     <v>      -0.21515345      -0.15213648       0.37265702 </v>
    </varray>
   </crystal>
   <varray name="positions" >
    <v>       0.00000000       0.00000000       0.00000000 </v>
   </varray>
  </structure>
  <varray name="forces" >
   <v>       0.00000000       0.00000000      -0.00000000 </v>
  </varray>
  <varray name="stress" >
   <v>      49.95396099       0.00000000      -0.00002128 </v>
   <v>       0.00000000      49.95395060      -0.00001505 </v>
   <v>      -0.00002128      -0.00001505      49.95395102 </v>
  </varray>
  <energy>
   <i name="e_fr_energy">     -4.87242431 </i>
   <i name="e_wo_entrp">     -4.87177958 </i>
   <i name="e_0_energy">     -4.87210194 </i>
  </energy>
  <time name="totalsc">   13.77   14.01</time>
  <eigenvalues>
   <array>
    <dimension dim="1">band</dimension>
    <dimension dim="2">kpoint</dimension>
    <dimension dim="3">spin</dimension>
    <field>eigene</field>
    <field>occ</field>
    <set>
     <set comment="spin 1">
      <set comment="kpoint 1">
       <r>   -4.0509    1.0000 </r>
       <r>   22.7981    0.0000 </r>
       <r>   22.7981    0.0000 </r>
       <r>   22.7981    0.0000 </r>
       <r>   23.0987    0.0000 </r>
       <r>   23.0987    0.0000 </r>
       <r>   23.0987    0.0000 </r>
       <r>   28.5676    0.0000 </r>
      </set>
      <set comment="kpoint 2">
       <r>   -3.9163    1.0000 </r>
       <r>   20.3136    0.0000 </r>
       <r>   21.9171    0.0000 </r>
       <r>   21.9171    0.0000 </r>
       <r>   24.1503    0.0000 </r>
       <r>   24.1503    0.0000 </r>
       <r>   24.4267    0.0000 </r>
       <r>   29.5964    0.0000 </r>
      </set>
      <set comment="kpoint 3">
       <r>   -3.5130    1.0000 </r>
       <r>   17.3527    0.0000 </r>
       <r>   21.1093    0.0000 </r>
       <r>   21.1093    0.0000 </r>
       <r>   24.7294    0.0000 </r>
       <r>   25.3182    0.0000 </r>
       <r>   25.3182    0.0000 </r>
       <r>   28.5057    0.0000 </r>
      </set>
      <set comment="kpoint 4">
       <r>   -2.8427    1.0000 </r>
       <r>   14.4120    0.0000 </r>
       <r>   20.5158    0.0000 </r>
       <r>   20.5158    0.0000 </r>
       <r>   24.6610    0.0000 </r>
       <r>   25.5069    0.0000 </r>
       <r>   25.5069    0.0000 </r>
       <r>   28.5164    0.0000 </r>
      </set>
      <set comment="kpoint 5">
       <r>   -1.9082    1.0000 </r>
       <r>   11.6088    0.0000 </r>
       <r>   20.1373    0.0000 </r>
       <r>   20.1373    0.0000 </r>
       <r>   24.5179    0.0000 </r>
       <r>   24.5179    0.0000 </r>
       <r>   24.5724    0.0000 </r>
       <r>   29.9596    0.0000 </r>
      </set>
      <set comment="kpoint 6">
       <r>   -0.7134    1.0000 </r>
       <r>    8.9917    1.0000 </r>
       <r>   19.9622    0.0000 </r>
       <r>   19.9622    0.0000 </r>
       <r>   23.4355    0.0000 </r>
       <r>   23.4355    0.0000 </r>
       <r>   24.5807    0.0000 </r>
       <r>   28.7331    0.0000 </r>
      </set>
      <set comment="kpoint 7">
       <r>    0.7356    1.0000 </r>
       <r>    6.5866    1.0000 </r>
       <r>   19.9562    0.0000 </r>
       <r>   19.9563    0.0000 </r>
       <r>   22.5601    0.0000 </r>
       <r>   22.5601    0.0000 </r>
       <r>   24.7058    0.0000 </r>
       <r>   27.7450    0.0000 </r>
      </set>
      <set comment="kpoint 8">
       <r>    2.4218    1.0000 </r>
       <r>    4.4205    1.0000 </r>
       <r>   20.0287    0.0000 </r>
       <r>   20.0287    0.0000 </r>
       <r>   22.0391    0.0000 </r>
       <r>   22.0391    0.0000 </r>
       <r>   24.8641    0.0000 </r>
       <r>   27.1421    0.0000 </r>
      </set>
      <set comment="kpoint 9">
       <r>   -3.8714    1.0000 </r>
       <r>   20.8388    0.0000 </r>
       <r>   20.8388    0.0000 </r>
       <r>   22.1348    0.0000 </r>
       <r>   22.3945    0.0000 </r>
       <r>   25.2861    0.0000 </r>
       <r>   25.2861    0.0000 </r>
       <r>   28.4279    0.0000 </r>
      </set>
      <set comment="kpoint 10">
       <r>   -3.5577    1.0000 </r>
       <r>   18.4024    0.0000 </r>
       <r>   19.9599    0.0000 </r>
       <r>   21.5915    0.0000 </r>
       <r>   22.9809    0.0000 </r>
       <r>   26.0262    0.0000 </r>
       <r>   26.4943    0.0000 </r>
       <r>   26.8854    0.0000 </r>
      </set>
      <set comment="kpoint 11">
       <r>   -2.9765    1.0000 </r>
       <r>   15.4723    0.0000 </r>
       <r>   19.3021    0.0000 </r>
       <r>   20.9681    0.0000 </r>
       <r>   23.6553    0.0000 </r>
       <r>   25.7600    0.0000 </r>
       <r>   26.4626    0.0000 </r>
       <r>   27.1169    0.0000 </r>
      </set>
      <set comment="kpoint 12">
       <r>   -2.1302    1.0000 </r>
       <r>   12.6274    0.0000 </r>
       <r>   18.8705    0.0000 </r>
       <r>   20.4759    0.0000 </r>
       <r>   22.9282    0.0000 </r>
       <r>   25.6936    0.0000 </r>
       <r>   26.3754    0.0000 </r>
       <r>   27.5426    0.0000 </r>
      </set>
      <set comment="kpoint 13">
       <r>   -1.0223    1.0000 </r>
       <r>    9.9500    1.0000 </r>
       <r>   18.6654    0.0000 </r>
       <r>   20.0711    0.0000 </r>
       <r>   21.9482    0.0000 </r>
       <r>   25.2723    0.0000 </r>
       <r>   25.6976    0.0000 </r>
       <r>   29.1928    0.0000 </r>
      </set>
      <set comment="kpoint 14">
       <r>    0.3421    1.0000 </r>
       <r>    7.4750    1.0000 </r>
       <r>   18.6834    0.0000 </r>
       <r>   19.5891    0.0000 </r>
       <r>   21.3939    0.0000 </r>
       <r>   24.2616    0.0000 </r>
       <r>   25.7468    0.0000 </r>
       <r>   29.0087    0.0000 </r>
      </set>
      <set comment="kpoint 15">
       <r>    1.9532    1.0000 </r>
       <r>    5.2257    1.0000 </r>
       <r>   18.9168    0.0000 </r>
       <r>   18.9861    0.0000 </r>
       <r>   21.3954    0.0000 </r>
       <r>   23.4482    0.0000 </r>
       <r>   25.8033    0.0000 </r>
       <r>   28.4171    0.0000 </r>
      </set>
      <set comment="kpoint 16">
       <r>    3.1163    1.0000 </r>
       <r>    3.9026    1.0000 </r>
       <r>   18.4385    0.0000 </r>
       <r>   19.3472    0.0000 </r>
       <r>   21.7985    0.0000 </r>
       <r>   22.8797    0.0000 </r>
       <r>   25.7391    0.0000 </r>
       <r>   28.3254    0.0000 </r>
      </set>
      <set comment="kpoint 17">
       <r>    1.3901    1.0000 </r>
       <r>    5.9484    1.0000 </r>
       <r>   18.0584    0.0000 </r>
       <r>   19.9317    0.0000 </r>
       <r>   22.4939    0.0000 </r>
       <r>   22.6069    0.0000 </r>
       <r>   25.5515    0.0000 </r>
       <r>   28.7686    0.0000 </r>
      </set>
      <set comment="kpoint 18">
       <r>   -0.1408    1.0000 </r>
       <r>    8.2755    1.0000 </r>
       <r>   17.8865    0.0000 </r>
       <r>   20.5744    0.0000 </r>
       <r>   22.7197    0.0000 </r>
       <r>   23.4317    0.0000 </r>
       <r>   25.3820    0.0000 </r>
       <r>   29.5611    0.0000 </r>
      </set>
      <set comment="kpoint 19">
       <r>   -1.4204    1.0000 </r>
       <r>   10.8199    0.9896 </r>
       <r>   17.9378    0.0000 </r>
       <r>   21.1533    0.0000 </r>
       <r>   23.3080    0.0000 </r>
       <r>   24.5662    0.0000 </r>
       <r>   25.3089    0.0000 </r>
       <r>   29.2718    0.0000 </r>
      </set>
      <set comment="kpoint 20">
       <r>   -2.4416    1.0000 </r>
       <r>   13.5562    0.0000 </r>
       <r>   18.2180    0.0000 </r>
       <r>   21.6913    0.0000 </r>
       <r>   24.1992    0.0000 </r>
       <r>   25.3140    0.0000 </r>
       <r>   25.7860    0.0000 </r>
       <r>   27.5040    0.0000 </r>
      </set>
      <set comment="kpoint 21">
       <r>   -3.1999    1.0000 </r>
       <r>   16.4367    0.0000 </r>
       <r>   18.7303    0.0000 </r>
       <r>   22.3074    0.0000 </r>
       <r>   24.3771    0.0000 </r>
       <r>   25.2707    0.0000 </r>
       <r>   26.4953    0.0000 </r>
       <r>   26.9898    0.0000 </r>
      </set>
      <set comment="kpoint 22">
       <r>   -3.6921    1.0000 </r>
       <r>   19.2146    0.0000 </r>
       <r>   19.6042    0.0000 </r>
       <r>   22.8981    0.0000 </r>
       <r>   23.4463    0.0000 </r>
       <r>   24.9022    0.0000 </r>
       <r>   25.7568    0.0000 </r>
       <r>   28.1641    0.0000 </r>
      </set>
      <set comment="kpoint 23">
       <r>   -3.3339    1.0000 </r>
       <r>   19.0057    0.0000 </r>
       <r>   19.0057    0.0000 </r>
       <r>   20.4129    0.0000 </r>
       <r>   21.3226    0.0000 </r>
       <r>   25.0016    0.0000 </r>
       <r>   27.7701    0.0000 </r>
       <r>   27.7701    0.0000 </r>
      </set>
      <set comment="kpoint 24">
       <r>   -2.8425    1.0000 </r>
       <r>   16.6833    0.0000 </r>
       <r>   18.2724    0.0000 </r>
       <r>   20.1612    0.0000 </r>
       <r>   21.3212    0.0000 </r>
       <r>   23.6561    0.0000 </r>
       <r>   28.5046    0.0000 </r>
       <r>   28.7622    0.0000 </r>
      </set>
      <set comment="kpoint 25">
       <r>   -2.0855    1.0000 </r>
       <r>   13.8581    0.0000 </r>
       <r>   17.7673    0.0000 </r>
       <r>   19.5406    0.0000 </r>
       <r>   20.9592    0.0000 </r>
       <r>   24.1707    0.0000 </r>
       <r>   28.4244    0.0000 </r>
       <r>   28.6777    0.0000 </r>
      </set>
      <set comment="kpoint 26">
       <r>   -1.0661    1.0000 </r>
       <r>   11.1417    0.0000 </r>
       <r>   17.4924    0.0000 </r>
       <r>   18.6944    0.0000 </r>
       <r>   20.2954    0.0000 </r>
       <r>   25.7720    0.0000 </r>
       <r>   27.3998    0.0000 </r>
       <r>   28.8285    0.0000 </r>
      </set>
      <set comment="kpoint 27">
       <r>    0.2113    1.0000 </r>
       <r>    8.6077    1.0000 </r>
       <r>   17.4474    0.0000 </r>
       <r>   17.6988    0.0000 </r>
       <r>   20.0884    0.0000 </r>
       <r>   26.3653    0.0000 </r>
       <r>   27.1585    0.0000 </r>
       <r>   29.4954    0.0000 </r>
      </set>
      <set comment="kpoint 28">
       <r>    1.7395    1.0000 </r>
       <r>    6.2869    1.0000 </r>
       <r>   16.7864    0.0000 </r>
       <r>   17.6305    0.0000 </r>
       <r>   20.2370    0.0000 </r>
       <r>   25.4818    0.0000 </r>
       <r>   27.5873    0.0000 </r>
       <r>   30.9458    0.0000 </r>
      </set>
      <set comment="kpoint 29">
       <r>    3.4656    1.0000 </r>
       <r>    4.2420    1.0000 </r>
       <r>   16.0601    0.0000 </r>
       <r>   18.0375    0.0000 </r>
       <r>   20.6681    0.0000 </r>
       <r>   24.8026    0.0000 </r>
       <r>   27.4811    0.0000 </r>
       <r>   31.0228    0.0000 </r>
      </set>
      <set comment="kpoint 30">
       <r>    2.3021    1.0000 </r>
       <r>    5.5636    1.0000 </r>
       <r>   15.5542    0.0000 </r>
       <r>   18.6604    0.0000 </r>
       <r>   21.3545    0.0000 </r>
       <r>   24.3534    0.0000 </r>
       <r>   27.2130    0.0000 </r>
       <r>   31.3674    0.0000 </r>
      </set>
      <set comment="kpoint 31">
       <r>    0.6934    1.0000 </r>
       <r>    7.8047    1.0000 </r>
       <r>   15.2825    0.0000 </r>
       <r>   19.4831    0.0000 </r>
       <r>   22.2780    0.0000 </r>
       <r>   24.1526    0.0000 </r>
       <r>   26.9505    0.0000 </r>
       <r>   30.9699    0.0000 </r>
      </set>
      <set comment="kpoint 32">
       <r>   -0.6687    1.0000 </r>
       <r>   10.2631    1.0000 </r>
       <r>   15.2540    0.0000 </r>
       <r>   20.4715    0.0000 </r>
       <r>   23.4146    0.0000 </r>
       <r>   24.2181    0.0000 </r>
       <r>   26.7417    0.0000 </r>
       <r>   28.7334    0.0000 </r>
      </set>
      <set comment="kpoint 33">
       <r>   -1.7747    1.0000 </r>
       <r>   12.8965    0.0000 </r>
       <r>   15.4865    0.0000 </r>
       <r>   21.5491    0.0000 </r>
       <r>   24.5367    0.0000 </r>
       <r>   24.7133    0.0000 </r>
       <r>   26.5192    0.0000 </r>
       <r>   26.7789    0.0000 </r>
      </set>
      <set comment="kpoint 34">
       <r>   -2.6197    1.0000 </r>
       <r>   15.3979    0.0000 </r>
       <r>   16.2418    0.0000 </r>
       <r>   22.5000    0.0000 </r>
       <r>   24.4847    0.0000 </r>
       <r>   25.9706    0.0000 </r>
       <r>   26.0032    0.0000 </r>
       <r>   26.0692    0.0000 </r>
      </set>
      <set comment="kpoint 35">
       <r>   -2.4412    1.0000 </r>
       <r>   17.4618    0.0000 </r>
       <r>   17.4618    0.0000 </r>
       <r>   18.7702    0.0000 </r>
       <r>   19.4946    0.0000 </r>
       <r>   21.9139    0.0000 </r>
       <r>   30.2880    0.0000 </r>
       <r>   30.2880    0.0000 </r>
      </set>
      <set comment="kpoint 36">
       <r>   -1.7743    1.0000 </r>
       <r>   15.2415    0.0000 </r>
       <r>   16.8796    0.0000 </r>
       <r>   18.1654    0.0000 </r>
       <r>   19.1000    0.0000 </r>
       <r>   21.5978    0.0000 </r>
       <r>   30.5567    0.0000 </r>
       <r>   31.0512    0.0000 </r>
      </set>
      <set comment="kpoint 37">
       <r>   -0.8447    1.0000 </r>
       <r>   12.5462    0.0000 </r>
       <r>   16.5288    0.0000 </r>
       <r>   16.8331    0.0000 </r>
       <r>   19.0165    0.0000 </r>
       <r>   22.9649    0.0000 </r>
       <r>   29.6918    0.0000 </r>
       <r>   31.2224    0.0000 </r>
      </set>
      <set comment="kpoint 38">
       <r>    0.3437    1.0000 </r>
       <r>    9.9741    1.0000 </r>
       <r>   15.5808    0.0000 </r>
       <r>   16.4098    0.0000 </r>
       <r>   18.9387    0.0000 </r>
       <r>   24.9401    0.0000 </r>
       <r>   28.6833    0.0000 </r>
       <r>   31.1469    0.0000 </r>
      </set>
      <set comment="kpoint 39">
       <r>    1.7848    1.0000 </r>
       <r>    7.5939    1.0000 </r>
       <r>   14.5151    0.0000 </r>
       <r>   16.5222    0.0000 </r>
       <r>   19.0802    0.0000 </r>
       <r>   27.0399    0.0000 </r>
       <r>   27.7694    0.0000 </r>
       <r>   30.9986    0.0000 </r>
      </set>
      <set comment="kpoint 40">
       <r>    3.4630    1.0000 </r>
       <r>    5.4411    1.0000 </r>
       <r>   13.6724    0.0000 </r>
       <r>   16.8642    0.0000 </r>
       <r>   19.4678    0.0000 </r>
       <r>   27.0303    0.0000 </r>
       <r>   28.6699    0.0000 </r>
       <r>   31.2528    0.0000 </r>
      </set>
      <set comment="kpoint 41">
       <r>    3.4654    1.0000 </r>
       <r>    5.4345    1.0000 </r>
       <r>   13.0688    0.0000 </r>
       <r>   17.4326    0.0000 </r>
       <r>   20.1019    0.0000 </r>
       <r>   26.5004    0.0000 </r>
       <r>   28.9948    0.0000 </r>
       <r>   32.4766    0.0000 </r>
      </set>
      <set comment="kpoint 42">
       <r>    1.7856    1.0000 </r>
       <r>    7.5758    1.0000 </r>
       <r>   12.7164    0.0000 </r>
       <r>   18.2208    0.0000 </r>
       <r>   20.9745    0.0000 </r>
       <r>   26.1974    0.0000 </r>
       <r>   28.7262    0.0000 </r>
       <r>   30.7788    0.0000 </r>
      </set>
      <set comment="kpoint 43">
       <r>    0.3437    1.0000 </r>
       <r>    9.9136    1.0000 </r>
       <r>   12.6441    0.0000 </r>
       <r>   19.2147    0.0000 </r>
       <r>   22.0690    0.0000 </r>
       <r>   26.1321    0.0000 </r>
       <r>   28.2934    0.0000 </r>
       <r>   28.4320    0.0000 </r>
      </set>
      <set comment="kpoint 44">
       <r>   -0.8450    1.0000 </r>
       <r>   12.0935    0.0000 </r>
       <r>   13.1762    0.0000 </r>
       <r>   20.3772    0.0000 </r>
       <r>   23.3487    0.0000 </r>
       <r>   26.1987    0.0000 </r>
       <r>   26.4154    0.0000 </r>
       <r>   27.6005    0.0000 </r>
      </set>
      <set comment="kpoint 45">
       <r>   -1.1981    1.0000 </r>
       <r>   16.2198    0.0000 </r>
       <r>   16.2198    0.0000 </r>
       <r>   16.5061    0.0000 </r>
       <r>   17.3978    0.0000 </r>
       <r>   20.1683    0.0000 </r>
       <r>   32.6838    0.0000 </r>
       <r>   32.7059    0.0000 </r>
      </set>
      <set comment="kpoint 46">
       <r>   -0.3593    1.0000 </r>
       <r>   14.0898    0.0000 </r>
       <r>   14.9710    0.0000 </r>
       <r>   15.7915    0.0000 </r>
       <r>   17.8060    0.0000 </r>
       <r>   20.4157    0.0000 </r>
       <r>   32.0491    0.0000 </r>
       <r>   33.3798    0.0000 </r>
      </set>
      <set comment="kpoint 47">
       <r>    0.7384    1.0000 </r>
       <r>   11.5480    0.0000 </r>
       <r>   13.5656    0.0000 </r>
       <r>   15.5959    0.0000 </r>
       <r>   17.9523    0.0000 </r>
       <r>   22.0731    0.0000 </r>
       <r>   31.1350    0.0000 </r>
       <r>   33.3967    0.0000 </r>
      </set>
      <set comment="kpoint 48">
       <r>    2.0893    1.0000 </r>
       <r>    9.1323    1.0000 </r>
       <r>   12.3823    0.0000 </r>
       <r>   15.6329    0.0000 </r>
       <r>   18.0883    0.0000 </r>
       <r>   24.2675    0.0000 </r>
       <r>   30.2304    0.0000 </r>
       <r>   33.0150    0.0000 </r>
      </set>
      <set comment="kpoint 49">
       <r>    3.6830    1.0000 </r>
       <r>    6.9152    1.0000 </r>
       <r>   11.4391    0.0000 </r>
       <r>   15.9019    0.0000 </r>
       <r>   18.4227    0.0000 </r>
       <r>   26.6576    0.0000 </r>
       <r>   29.4565    0.0000 </r>
       <r>   32.4355    0.0000 </r>
      </set>
      <set comment="kpoint 50">
       <r>    4.8559    1.0000 </r>
       <r>    5.5736    1.0000 </r>
       <r>   10.7501    1.0000 </r>
       <r>   16.4010    0.0000 </r>
       <r>   18.9929    0.0000 </r>
       <r>   28.8657    0.0000 </r>
       <r>   28.9980    0.0000 </r>
       <r>   31.8059    0.0000 </r>
      </set>
      <set comment="kpoint 51">
       <r>    3.1305    1.0000 </r>
       <r>    7.5611    1.0000 </r>
       <r>   10.3489    1.0000 </r>
       <r>   17.1268    0.0000 </r>
       <r>   19.8015    0.0000 </r>
       <r>   28.4800    0.0000 </r>
       <r>   30.3835    0.0000 </r>
       <r>   30.8350    0.0000 </r>
      </set>
      <set comment="kpoint 52">
       <r>    1.6123    1.0000 </r>
       <r>    9.4191    1.0000 </r>
       <r>   10.5875    1.0000 </r>
       <r>   18.0717    0.0000 </r>
       <r>   20.8370    0.0000 </r>
       <r>   28.1712    0.0000 </r>
       <r>   28.5538    0.0000 </r>
       <r>   29.6477    0.0000 </r>
      </set>
      <set comment="kpoint 53">
       <r>    0.3880    1.0000 </r>
       <r>   13.2159    0.0000 </r>
       <r>   15.2856    0.0000 </r>
       <r>   15.2856    0.0000 </r>
       <r>   16.3490    0.0000 </r>
       <r>   19.1422    0.0000 </r>
       <r>   33.9774    0.0000 </r>
       <r>   34.8345    0.0000 </r>
      </set>
      <set comment="kpoint 54">
       <r>    1.3933    1.0000 </r>
       <r>   11.6990    0.0000 </r>
       <r>   13.3145    0.0000 </r>
       <r>   15.0125    0.0000 </r>
       <r>   16.9451    0.0000 </r>
       <r>   19.6195    0.0000 </r>
       <r>   33.5701    0.0000 </r>
       <r>   35.3694    0.0000 </r>
      </set>
      <set comment="kpoint 55">
       <r>    2.6505    1.0000 </r>
       <r>   10.3797    1.0000 </r>
       <r>   10.9536    0.0709 </r>
       <r>   14.9727    0.0000 </r>
       <r>   17.2660    0.0000 </r>
       <r>   21.4705    0.0000 </r>
       <r>   32.7601    0.0000 </r>
       <r>   35.1382    0.0000 </r>
      </set>
      <set comment="kpoint 56">
       <r>    4.1474    1.0000 </r>
       <r>    8.5963    1.0000 </r>
       <r>    9.4471    1.0000 </r>
       <r>   15.1658    0.0000 </r>
       <r>   17.5809    0.0000 </r>
       <r>   23.8463    0.0000 </r>
       <r>   31.9870    0.0000 </r>
       <r>   34.4423    0.0000 </r>
      </set>
      <set comment="kpoint 57">
       <r>    5.8304    1.0000 </r>
       <r>    6.5793    1.0000 </r>
       <r>    8.6827    1.0000 </r>
       <r>   15.5910    0.0000 </r>
       <r>   18.0914    0.0000 </r>
       <r>   26.4303    0.0000 </r>
       <r>   31.3305    0.0000 </r>
       <r>   33.4500    0.0000 </r>
      </set>
      <set comment="kpoint 58">
       <r>    4.7196    1.0000 </r>
       <r>    7.4054    1.0000 </r>
       <r>    8.5830    1.0000 </r>
       <r>   16.2462    0.0000 </r>
       <r>   18.8323    0.0000 </r>
       <r>   29.0266    0.0000 </r>
       <r>   30.5832    0.0000 </r>
       <r>   31.4694    0.0000 </r>
      </set>
      <set comment="kpoint 59">
       <r>    2.3039    1.0000 </r>
       <r>   10.0938    1.0000 </r>
       <r>   14.6619    0.0000 </r>
       <r>   14.6619    0.0000 </r>
       <r>   15.6434    0.0000 </r>
       <r>   18.4858    0.0000 </r>
       <r>   35.2792    0.0000 </r>
       <r>   36.6515    0.0000 </r>
      </set>
      <set comment="kpoint 60">
       <r>    3.4608    1.0000 </r>
       <r>    8.7226    1.0000 </r>
       <r>   12.8153    0.0000 </r>
       <r>   14.5446    0.0000 </r>
       <r>   16.4296    0.0000 </r>
       <r>   19.1428    0.0000 </r>
       <r>   35.0644    0.0000 </r>
       <r>   36.9185    0.0000 </r>
      </set>
      <set comment="kpoint 61">
       <r>    4.8323    1.0000 </r>
       <r>    7.6275    1.0000 </r>
       <r>   10.5771    1.0000 </r>
       <r>   14.6608    0.0000 </r>
       <r>   16.9229    0.0000 </r>
       <r>   21.1659    0.0000 </r>
       <r>   34.3756    0.0000 </r>
       <r>   36.2895    0.0000 </r>
      </set>
      <set comment="kpoint 62">
       <r>    6.0614    1.0000 </r>
       <r>    7.1468    1.0000 </r>
       <r>    8.5075    1.0000 </r>
       <r>   15.0100    0.0000 </r>
       <r>   17.4113    0.0000 </r>
       <r>   23.7035    0.0000 </r>
       <r>   33.3968    0.0000 </r>
       <r>   34.7254    0.0000 </r>
      </set>
      <set comment="kpoint 63">
       <r>    4.4914    1.0000 </r>
       <r>    7.2915    1.0000 </r>
       <r>   14.3498    0.0000 </r>
       <r>   14.3498    0.0000 </r>
       <r>   15.2891    0.0000 </r>
       <r>   18.1581    0.0000 </r>
       <r>   36.2190    0.0000 </r>
       <r>   37.8566    0.0000 </r>
      </set>
      <set comment="kpoint 64">
       <r>    5.3893    1.0000 </r>
       <r>    6.4864    1.0000 </r>
       <r>   12.6501    0.0000 </r>
       <r>   14.3886    0.0000 </r>
       <r>   16.2575    0.0000 </r>
       <r>   18.9834    0.0000 </r>
       <r>   35.9015    0.0000 </r>
       <r>   37.5305    0.0000 </r>
      </set>
      <set comment="kpoint 65">
       <r>   -3.1551    1.0000 </r>
       <r>   17.3286    0.0000 </r>
       <r>   17.9066    0.0000 </r>
       <r>   22.1635    0.0000 </r>
       <r>   22.3379    0.0000 </r>
       <r>   25.3570    0.0000 </r>
       <r>   26.9760    0.0000 </r>
       <r>   27.3762    0.0000 </r>
      </set>
      <set comment="kpoint 66">
       <r>   -2.4860    1.0000 </r>
       <r>   14.6800    0.0000 </r>
       <r>   17.1061    0.0000 </r>
       <r>   21.4007    0.0000 </r>
       <r>   22.7921    0.0000 </r>
       <r>   24.9955    0.0000 </r>
       <r>   27.1696    0.0000 </r>
       <r>   27.4128    0.0000 </r>
      </set>
      <set comment="kpoint 67">
       <r>   -1.5530    1.0000 </r>
       <r>   11.9182    0.0000 </r>
       <r>   16.7349    0.0000 </r>
       <r>   20.4565    0.0000 </r>
       <r>   22.3077    0.0000 </r>
       <r>   25.6938    0.0000 </r>
       <r>   26.5895    0.0000 </r>
       <r>   27.7664    0.0000 </r>
      </set>
      <set comment="kpoint 68">
       <r>   -0.3603    1.0000 </r>
       <r>    9.3181    1.0000 </r>
       <r>   16.6063    0.0000 </r>
       <r>   19.4258    0.0000 </r>
       <r>   22.0152    0.0000 </r>
       <r>   24.8259    0.0000 </r>
       <r>   26.9732    0.0000 </r>
       <r>   29.1660    0.0000 </r>
      </set>
      <set comment="kpoint 69">
       <r>    1.0863    1.0000 </r>
       <r>    6.9223    1.0000 </r>
       <r>   16.7075    0.0000 </r>
       <r>   18.4823    0.0000 </r>
       <r>   22.0206    0.0000 </r>
       <r>   23.8902    0.0000 </r>
       <r>   27.1591    0.0000 </r>
       <r>   30.5528    0.0000 </r>
      </set>
      <set comment="kpoint 70">
       <r>    2.7704    1.0000 </r>
       <r>    4.7610    1.0000 </r>
       <r>   16.9991    0.0000 </r>
       <r>   17.7548    0.0000 </r>
       <r>   22.2112    0.0000 </r>
       <r>   23.2272    0.0000 </r>
       <r>   27.2765    0.0000 </r>
       <r>   30.2407    0.0000 </r>
      </set>
      <set comment="kpoint 71">
       <r>   -2.2633    1.0000 </r>
       <r>   15.7120    0.0000 </r>
       <r>   16.3893    0.0000 </r>
       <r>   19.9942    0.0000 </r>
       <r>   20.8188    0.0000 </r>
       <r>   22.7961    0.0000 </r>
       <r>   28.9849    0.0000 </r>
       <r>   29.6695    0.0000 </r>
      </set>
      <set comment="kpoint 72">
       <r>   -1.4198    1.0000 </r>
       <r>   13.2123    0.0000 </r>
       <r>   15.7039    0.0000 </r>
       <r>   18.6770    0.0000 </r>
       <r>   21.0542    0.0000 </r>
       <r>   23.6106    0.0000 </r>
       <r>   28.1873    0.0000 </r>
       <r>   30.1338    0.0000 </r>
      </set>
      <set comment="kpoint 73">
       <r>   -0.3158    1.0000 </r>
       <r>   10.5905    1.0000 </r>
       <r>   15.4751    0.0000 </r>
       <r>   17.3912    0.0000 </r>
       <r>   20.9439    0.0000 </r>
       <r>   25.3337    0.0000 </r>
       <r>   27.2101    0.0000 </r>
       <r>   30.2838    0.0000 </r>
      </set>
      <set comment="kpoint 74">
       <r>    1.0438    1.0000 </r>
       <r>    8.1396    1.0000 </r>
       <r>   15.4652    0.0000 </r>
       <r>   16.3099    0.0000 </r>
       <r>   20.9941    0.0000 </r>
       <r>   25.8584    0.0000 </r>
       <r>   27.6491    0.0000 </r>
       <r>   30.4942    0.0000 </r>
      </set>
      <set comment="kpoint 75">
       <r>    2.6494    1.0000 </r>
       <r>    5.9034    1.0000 </r>
       <r>   15.2214    0.0000 </r>
       <r>   15.9177    0.0000 </r>
       <r>   21.2688    0.0000 </r>
       <r>   25.1275    0.0000 </r>
       <r>   28.9248    0.0000 </r>
       <r>   31.2683    0.0000 </r>
      </set>
      <set comment="kpoint 76">
       <r>    3.8148    1.0000 </r>
       <r>    4.5788    1.0000 </r>
       <r>   14.6037    0.0000 </r>
       <r>   16.3678    0.0000 </r>
       <r>   21.7669    0.0000 </r>
       <r>   24.5312    0.0000 </r>
       <r>   29.1448    0.0000 </r>
       <r>   32.4395    0.0000 </r>
      </set>
      <set comment="kpoint 77">
       <r>    2.0885    1.0000 </r>
       <r>    6.6188    1.0000 </r>
       <r>   14.1763    0.0000 </r>
       <r>   17.0996    0.0000 </r>
       <r>   22.4590    0.0000 </r>
       <r>   24.1760    0.0000 </r>
       <r>   28.8614    0.0000 </r>
       <r>   31.1813    0.0000 </r>
      </set>
      <set comment="kpoint 78">
       <r>    0.5627    1.0000 </r>
       <r>    8.9235    1.0000 </r>
       <r>   13.9901    0.0000 </r>
       <r>   18.0595    0.0000 </r>
       <r>   23.2173    0.0000 </r>
       <r>   24.1754    0.0000 </r>
       <r>   27.9866    0.0000 </r>
       <r>   29.6315    0.0000 </r>
      </set>
      <set comment="kpoint 79">
       <r>   -0.7126    1.0000 </r>
       <r>   11.4109    0.0000 </r>
       <r>   14.0729    0.0000 </r>
       <r>   19.2185    0.0000 </r>
       <r>   23.6846    0.0000 </r>
       <r>   24.7182    0.0000 </r>
       <r>   26.3971    0.0000 </r>
       <r>   28.9994    0.0000 </r>
      </set>
      <set comment="kpoint 80">
       <r>   -1.7303    1.0000 </r>
       <r>   13.7531    0.0000 </r>
       <r>   14.7187    0.0000 </r>
       <r>   20.5051    0.0000 </r>
       <r>   23.6424    0.0000 </r>
       <r>   24.5412    0.0000 </r>
       <r>   26.3333    0.0000 </r>
       <r>   28.4026    0.0000 </r>
      </set>
      <set comment="kpoint 81">
       <r>   -1.0213    1.0000 </r>
       <r>   14.4036    0.0000 </r>
       <r>   15.1223    0.0000 </r>
       <r>   16.7861    0.0000 </r>
       <r>   19.5285    0.0000 </r>
       <r>   21.3656    0.0000 </r>
       <r>   30.3680    0.0000 </r>
       <r>   32.3045    0.0000 </r>
      </set>
      <set comment="kpoint 82">
       <r>   -0.0074    1.0000 </r>
       <r>   12.0564    0.0000 </r>
       <r>   14.5421    0.0000 </r>
       <r>   15.3874    0.0000 </r>
       <r>   19.9011    0.0000 </r>
       <r>   22.5977    0.0000 </r>
       <r>   29.4609    0.0000 </r>
       <r>   32.7583    0.0000 </r>
      </set>
      <set comment="kpoint 83">
       <r>    1.2628    1.0000 </r>
       <r>    9.5858    1.0000 </r>
       <r>   13.9717    0.0000 </r>
       <r>   14.6485    0.0000 </r>
       <r>   19.9933    0.0000 </r>
       <r>   24.6295    0.0000 </r>
       <r>   28.5089    0.0000 </r>
       <r>   32.6886    0.0000 </r>
      </set>
      <set comment="kpoint 84">
       <r>    2.7818    1.0000 </r>
       <r>    7.2931    1.0000 </r>
       <r>   13.0154    0.0000 </r>
       <r>   14.7814    0.0000 </r>
       <r>   20.2359    0.0000 </r>
       <r>   26.6616    0.0000 </r>
       <r>   27.9113    0.0000 </r>
       <r>   32.3296    0.0000 </r>
      </set>
      <set comment="kpoint 85">
       <r>    4.5043    1.0000 </r>
       <r>    5.2547    1.0000 </r>
       <r>   12.2516    0.0000 </r>
       <r>   15.2082    0.0000 </r>
       <r>   20.6957    0.0000 </r>
       <r>   26.7327    0.0000 </r>
       <r>   29.4159    0.0000 </r>
       <r>   31.6794    0.0000 </r>
      </set>
      <set comment="kpoint 86">
       <r>    3.3436    1.0000 </r>
       <r>    6.5606    1.0000 </r>
       <r>   11.7349    0.0000 </r>
       <r>   15.8806    0.0000 </r>
       <r>   21.3793    0.0000 </r>
       <r>   26.3057    0.0000 </r>
       <r>   30.2066    0.0000 </r>
       <r>   31.0833    0.0000 </r>
      </set>
      <set comment="kpoint 87">
       <r>    1.7428    1.0000 </r>
       <r>    8.7395    1.0000 </r>
       <r>   11.5010    0.0000 </r>
       <r>   16.7868    0.0000 </r>
       <r>   22.2729    0.0000 </r>
       <r>   26.0337    0.0000 </r>
       <r>   28.2303    0.0000 </r>
       <r>   31.0305    0.0000 </r>
      </set>
      <set comment="kpoint 88">
       <r>    0.3877    1.0000 </r>
       <r>   10.7585    1.0000 </r>
       <r>   11.8900    0.0000 </r>
       <r>   17.9121    0.0000 </r>
       <r>   23.3292    0.0000 </r>
       <r>   25.6119    0.0000 </r>
       <r>   26.4849    0.0000 </r>
       <r>   30.2549    0.0000 </r>
      </set>
      <set comment="kpoint 89">
       <r>    0.5633    1.0000 </r>
       <r>   13.3276    0.0000 </r>
       <r>   13.4161    0.0000 </r>
       <r>   14.3039    0.0000 </r>
       <r>   18.5401    0.0000 </r>
       <r>   20.4226    0.0000 </r>
       <r>   31.8318    0.0000 </r>
       <r>   34.6622    0.0000 </r>
      </set>
      <set comment="kpoint 90">
       <r>    1.7418    1.0000 </r>
       <r>   11.2070    0.0000 </r>
       <r>   12.0574    0.0000 </r>
       <r>   13.8503    0.0000 </r>
       <r>   19.0843    0.0000 </r>
       <r>   21.8636    0.0000 </r>
       <r>   30.9880    0.0000 </r>
       <r>   34.8923    0.0000 </r>
      </set>
      <set comment="kpoint 91">
       <r>    3.1689    1.0000 </r>
       <r>    8.9065    1.0000 </r>
       <r>   10.9443    0.1141 </r>
       <r>   13.9324    0.0000 </r>
       <r>   19.3527    0.0000 </r>
       <r>   24.0968    0.0000 </r>
       <r>   30.1435    0.0000 </r>
       <r>   34.2845    0.0000 </r>
      </set>
      <set comment="kpoint 92">
       <r>    4.8262    1.0000 </r>
       <r>    6.7843    1.0000 </r>
       <r>   10.0849    1.0000 </r>
       <r>   14.2842    0.0000 </r>
       <r>   19.7676    0.0000 </r>
       <r>   26.5428    0.0000 </r>
       <r>   29.4651    0.0000 </r>
       <r>   32.9261    0.0000 </r>
      </set>
      <set comment="kpoint 93">
       <r>    4.8433    1.0000 </r>
       <r>    6.7201    1.0000 </r>
       <r>    9.5137    1.0000 </r>
       <r>   14.8830    0.0000 </r>
       <r>   20.3957    0.0000 </r>
       <r>   28.4272    0.0000 </r>
       <r>   29.4912    0.0000 </r>
       <r>   30.8961    0.0000 </r>
      </set>
      <set comment="kpoint 94">
       <r>    3.1741    1.0000 </r>
       <r>    8.4128    1.0000 </r>
       <r>    9.5878    1.0000 </r>
       <r>   15.7205    0.0000 </r>
       <r>   21.2402    0.0000 </r>
       <r>   28.1915    0.0000 </r>
       <r>   28.5100    0.0000 </r>
       <r>   31.6514    0.0000 </r>
      </set>
      <set comment="kpoint 95">
       <r>    2.4773    1.0000 </r>
       <r>   10.2556    1.0000 </r>
       <r>   12.7553    0.0000 </r>
       <r>   13.6106    0.0000 </r>
       <r>   17.8750    0.0000 </r>
       <r>   19.8009    0.0000 </r>
       <r>   33.4324    0.0000 </r>
       <r>   36.6092    0.0000 </r>
      </set>
      <set comment="kpoint 96">
       <r>    3.8049    1.0000 </r>
       <r>    9.0493    1.0000 </r>
       <r>   10.7511    1.0000 </r>
       <r>   13.3502    0.0000 </r>
       <r>   18.5912    0.0000 </r>
       <r>   21.4155    0.0000 </r>
       <r>   32.7096    0.0000 </r>
       <r>   35.7523    0.0000 </r>
      </set>
      <set comment="kpoint 97">
       <r>    5.3416    1.0000 </r>
       <r>    8.0759    1.0000 </r>
       <r>    8.6592    1.0000 </r>
       <r>   13.6038    0.0000 </r>
       <r>   19.0293    0.0000 </r>
       <r>   23.8192    0.0000 </r>
       <r>   31.9888    0.0000 </r>
       <r>   33.7961    0.0000 </r>
      </set>
      <set comment="kpoint 98">
       <r>    6.5629    1.0000 </r>
       <r>    6.7335    1.0000 </r>
       <r>    7.9265    1.0000 </r>
       <r>   14.1211    0.0000 </r>
       <r>   19.6096    0.0000 </r>
       <r>   26.4484    0.0000 </r>
       <r>   31.2948    0.0000 </r>
       <r>   31.4555    0.0000 </r>
      </set>
      <set comment="kpoint 99">
       <r>    4.6620    1.0000 </r>
       <r>    7.4607    1.0000 </r>
       <r>   12.4242    0.0000 </r>
       <r>   13.2842    0.0000 </r>
       <r>   17.5411    0.0000 </r>
       <r>   19.4883    0.0000 </r>
       <r>   34.9997    0.0000 </r>
       <r>   36.5619    0.0000 </r>
      </set>
      <set comment="kpoint 100">
       <r>    5.7254    1.0000 </r>
       <r>    6.8285    1.0000 </r>
       <r>   10.5783    1.0000 </r>
       <r>   13.1862    0.0000 </r>
       <r>   18.4262    0.0000 </r>
       <r>   21.2647    0.0000 </r>
       <r>   34.2829    0.0000 </r>
       <r>   34.6935    0.0000 </r>
      </set>
      <set comment="kpoint 101">
       <r>   -0.4918    1.0000 </r>
       <r>   12.4266    0.0000 </r>
       <r>   13.4497    0.0000 </r>
       <r>   17.2515    0.0000 </r>
       <r>   22.4384    0.0000 </r>
       <r>   23.5903    0.0000 </r>
       <r>   27.2199    0.0000 </r>
       <r>   31.3648    0.0000 </r>
      </set>
      <set comment="kpoint 102">
       <r>    0.6946    1.0000 </r>
       <r>   10.2444    1.0000 </r>
       <r>   12.9393    0.0000 </r>
       <r>   15.9589    0.0000 </r>
       <r>   22.7893    0.0000 </r>
       <r>   24.9020    0.0000 </r>
       <r>   26.4428    0.0000 </r>
       <r>   31.9427    0.0000 </r>
      </set>
      <set comment="kpoint 103">
       <r>    2.1334    1.0000 </r>
       <r>    7.9118    1.0000 </r>
       <r>   13.0070    0.0000 </r>
       <r>   14.8869    0.0000 </r>
       <r>   22.9163    0.0000 </r>
       <r>   24.8735    0.0000 </r>
       <r>   27.7391    0.0000 </r>
       <r>   32.0416    0.0000 </r>
      </set>
      <set comment="kpoint 104">
       <r>    3.8095    1.0000 </r>
       <r>    5.7741    1.0000 </r>
       <r>   13.3108    0.0000 </r>
       <r>   14.0886    0.0000 </r>
       <r>   23.1173    0.0000 </r>
       <r>   24.3225    0.0000 </r>
       <r>   29.8568    0.0000 </r>
       <r>   31.5052    0.0000 </r>
      </set>
      <set comment="kpoint 105">
       <r>    1.0884    1.0000 </r>
       <r>   11.4278    0.0000 </r>
       <r>   12.4499    0.0000 </r>
       <r>   13.9626    0.0000 </r>
       <r>   21.4861    0.0000 </r>
       <r>   22.8167    0.0000 </r>
       <r>   28.5432    0.0000 </r>
       <r>   34.1525    0.0000 </r>
      </set>
      <set comment="kpoint 106">
       <r>    2.4370    1.0000 </r>
       <r>    9.4050    1.0000 </r>
       <r>   12.0541    0.0000 </r>
       <r>   12.8186    0.0000 </r>
       <r>   22.0517    0.0000 </r>
       <r>   24.5152    0.0000 </r>
       <r>   27.6600    0.0000 </r>
       <r>   34.1821    0.0000 </r>
      </set>
      <set comment="kpoint 107">
       <r>    4.0282    1.0000 </r>
       <r>    7.2347    1.0000 </r>
       <r>   11.6990    0.0000 </r>
       <r>   12.4700    0.0000 </r>
       <r>   22.3972    0.0000 </r>
       <r>   26.1216    0.0000 </r>
       <r>   27.6068    0.0000 </r>
       <r>   32.6142    0.0000 </r>
      </set>
      <set comment="kpoint 108">
       <r>    5.1959    1.0000 </r>
       <r>    5.9101    1.0000 </r>
       <r>   11.0600    0.0000 </r>
       <r>   12.9397    0.0000 </r>
       <r>   22.8999    0.0000 </r>
       <r>   25.8808    0.0000 </r>
       <r>   29.3886    0.0000 </r>
       <r>   30.6821    0.0000 </r>
      </set>
      <set comment="kpoint 109">
       <r>    3.4744    1.0000 </r>
       <r>    7.8971    1.0000 </r>
       <r>   10.6672    1.0000 </r>
       <r>   13.7025    0.0000 </r>
       <r>   23.5647    0.0000 </r>
       <r>   25.4793    0.0000 </r>
       <r>   27.8183    0.0000 </r>
       <r>   32.1818    0.0000 </r>
      </set>
      <set comment="kpoint 110">
       <r>    1.9604    1.0000 </r>
       <r>    9.7548    1.0000 </r>
       <r>   10.8996    0.5235 </r>
       <r>   14.7145    0.0000 </r>
       <r>   24.2653    0.0000 </r>
       <r>   24.7282    0.0000 </r>
       <r>   26.2542    0.0000 </r>
       <r>   33.3989    0.0000 </r>
      </set>
      <set comment="kpoint 111">
       <r>    2.9967    1.0000 </r>
       <r>   10.7091    1.0000 </r>
       <r>   10.7604    1.0000 </r>
       <r>   11.9327    0.0000 </r>
       <r>   20.8391    0.0000 </r>
       <r>   22.2692    0.0000 </r>
       <r>   30.1759    0.0000 </r>
       <r>   35.3514    0.0000 </r>
      </set>
      <set comment="kpoint 112">
       <r>    4.4908    1.0000 </r>
       <r>    8.8800    1.0000 </r>
       <r>    9.7486    1.0000 </r>
       <r>   11.6882    0.0000 </r>
       <r>   21.5905    0.0000 </r>
       <r>   24.1636    0.0000 </r>
       <r>   29.3708    0.0000 </r>
       <r>   33.3172    0.0000 </r>
      </set>
      <set comment="kpoint 113">
       <r>    6.1717    1.0000 </r>
       <r>    6.8998    1.0000 </r>
       <r>    9.0076    1.0000 </r>
       <r>   12.0806    0.0000 </r>
       <r>   22.1106    0.0000 </r>
       <r>   26.5502    0.0000 </r>
       <r>   28.7249    0.0000 </r>
       <r>   30.9378    0.0000 </r>
      </set>
      <set comment="kpoint 114">
       <r>    5.0570    1.0000 </r>
       <r>    7.7416    1.0000 </r>
       <r>    8.9101    1.0000 </r>
       <r>   12.7637    0.0000 </r>
       <r>   22.7798    0.0000 </r>
       <r>   27.6269    0.0000 </r>
       <r>   27.9622    0.0000 </r>
       <r>   30.2249    0.0000 </r>
      </set>
      <set comment="kpoint 115">
       <r>    5.1729    1.0000 </r>
       <r>    7.9636    1.0000 </r>
       <r>   10.4264    1.0000 </r>
       <r>   11.5591    0.0000 </r>
       <r>   20.5130    0.0000 </r>
       <r>   21.9871    0.0000 </r>
       <r>   32.0191    0.0000 </r>
       <r>   33.9146    0.0000 </r>
      </set>
      <set comment="kpoint 116">
       <r>    6.3976    1.0000 </r>
       <r>    7.4899    1.0000 </r>
       <r>    8.7698    1.0000 </r>
       <r>   11.5104    0.0000 </r>
       <r>   21.4345    0.0000 </r>
       <r>   24.0369    0.0000 </r>
       <r>   31.0388    0.0000 </r>
       <r>   31.6714    0.0000 </r>
      </set>
      <set comment="kpoint 117">
       <r>    3.8589    1.0000 </r>
       <r>    9.0848    1.0000 </r>
       <r>   10.1998    1.0000 </r>
       <r>   11.6693    0.0000 </r>
       <r>   24.1086    0.0000 </r>
       <r>   24.7357    0.0000 </r>
       <r>   26.9483    0.0000 </r>
       <r>   32.8096    0.0000 </r>
      </set>
      <set comment="kpoint 118">
       <r>    5.5110    1.0000 </r>
       <r>    7.3912    1.0000 </r>
       <r>   10.0942    1.0000 </r>
       <r>   10.8550    0.9064 </r>
       <r>   24.6117    0.0000 </r>
       <r>   25.6433    0.0000 </r>
       <r>   27.4805    0.0000 </r>
       <r>   30.4813    0.0000 </r>
      </set>
      <set comment="kpoint 119">
       <r>    6.0206    1.0000 </r>
       <r>    8.7496    1.0000 </r>
       <r>    8.7549    1.0000 </r>
       <r>   10.0118    1.0000 </r>
       <r>   23.7936    0.0000 </r>
       <r>   24.6937    0.0000 </r>
       <r>   28.5588    0.0000 </r>
       <r>   30.9040    0.0000 </r>
      </set>
      <set comment="kpoint 120">
       <r>    7.1882    1.0000 </r>
       <r>    7.4059    1.0000 </r>
       <r>    8.5386    1.0000 </r>
       <r>   10.0818    1.0000 </r>
       <r>   24.6420    0.0000 </r>
       <r>   26.5868    0.0000 </r>
       <r>   27.3317    0.0000 </r>
       <r>   29.2670    0.0000 </r>
      </set>
     </set>
    </set>
   </array>
  </eigenvalues>
  <separator name="orbital magnetization" >
   <v name="MAGDIPOLOUT">      0.00000000      0.00000000      0.00000000</v>
  </separator>
  <dos>
   <i name="efermi">     10.90167268 </i>
   <total>
    <array>
     <dimension dim="1">gridpoints</dimension>
     <dimension dim="2">spin</dimension>
     <field>energy</field>
     <field>total</field>
     <field>integrated</field>
     <set>
      <set comment="spin 1">
       <r>    -6.1463     0.0000     0.0000 </r>
       <r>    -5.9926     0.0000     0.0000 </r>
       <r>    -5.8389     0.0000     0.0000 </r>
       <r>    -5.6853     0.0000     0.0000 </r>
       <r>    -5.5316     0.0000     0.0000 </r>
       <r>    -5.3780     0.0000     0.0000 </r>
       <r>    -5.2243     0.0000     0.0000 </r>
       <r>    -5.0706     0.0000     0.0000 </r>
       <r>    -4.9170     0.0000     0.0000 </r>
       <r>    -4.7633     0.0000     0.0000 </r>
       <r>    -4.6097     0.0000     0.0000 </r>
       <r>    -4.4560     0.0000     0.0000 </r>
       <r>    -4.3023     0.0000     0.0000 </r>
       <r>    -4.1487     0.0000     0.0000 </r>
       <r>    -3.9950     0.0040     0.0006 </r>
       <r>    -3.8414     0.0487     0.0081 </r>
       <r>    -3.6877     0.0306     0.0128 </r>
       <r>    -3.5340     0.0986     0.0280 </r>
       <r>    -3.3804     0.0478     0.0353 </r>
       <r>    -3.2267     0.0436     0.0420 </r>
       <r>    -3.0730     0.1618     0.0669 </r>
       <r>    -2.9194     0.0901     0.0807 </r>
       <r>    -2.7657     0.1246     0.0999 </r>
       <r>    -2.6121     0.0289     0.1043 </r>
       <r>    -2.4584     0.2006     0.1351 </r>
       <r>    -2.3047     0.1305     0.1552 </r>
       <r>    -2.1511     0.1099     0.1721 </r>
       <r>    -1.9974     0.1562     0.1961 </r>
       <r>    -1.8438     0.0349     0.2015 </r>
       <r>    -1.6901     0.2606     0.2415 </r>
       <r>    -1.5364     0.1395     0.2629 </r>
       <r>    -1.3828     0.2960     0.3084 </r>
       <r>    -1.2291     0.0450     0.3153 </r>
       <r>    -1.0755     0.0672     0.3257 </r>
       <r>    -0.9218     0.2308     0.3611 </r>
       <r>    -0.7681     0.1480     0.3839 </r>
       <r>    -0.6145     0.2914     0.4287 </r>
       <r>    -0.4608     0.0819     0.4412 </r>
       <r>    -0.3072     0.3863     0.5006 </r>
       <r>    -0.1535     0.1268     0.5201 </r>
       <r>     0.0002     0.1675     0.5458 </r>
       <r>     0.1538     0.0817     0.5584 </r>
       <r>     0.3075     0.1323     0.5787 </r>
       <r>     0.4612     0.3471     0.6320 </r>
       <r>     0.6148     0.2632     0.6725 </r>
       <r>     0.7685     0.3886     0.7322 </r>
       <r>     0.9221     0.0288     0.7366 </r>
       <r>     1.0758     0.2555     0.7759 </r>
       <r>     1.2295     0.2392     0.8126 </r>
       <r>     1.3831     0.2279     0.8476 </r>
       <r>     1.5368     0.1111     0.8647 </r>
       <r>     1.6904     0.0796     0.8769 </r>
       <r>     1.8441     0.6042     0.9698 </r>
       <r>     1.9978     0.1731     0.9964 </r>
       <r>     2.1514     0.4174     1.0605 </r>
       <r>     2.3051     0.1283     1.0802 </r>
       <r>     2.4587     0.2437     1.1177 </r>
       <r>     2.6124     0.1595     1.1422 </r>
       <r>     2.7661     0.3816     1.2008 </r>
       <r>     2.9197     0.2273     1.2358 </r>
       <r>     3.0734     0.1060     1.2521 </r>
       <r>     3.2270     0.4322     1.3185 </r>
       <r>     3.3807     0.1780     1.3458 </r>
       <r>     3.5344     0.5614     1.4321 </r>
       <r>     3.6880     0.0685     1.4426 </r>
       <r>     3.8417     0.5267     1.5235 </r>
       <r>     3.9954     0.2870     1.5676 </r>
       <r>     4.1490     0.2011     1.5985 </r>
       <r>     4.3027     0.1328     1.6189 </r>
       <r>     4.4563     0.0805     1.6313 </r>
       <r>     4.6100     0.5041     1.7088 </r>
       <r>     4.7637     0.2728     1.7507 </r>
       <r>     4.9173     0.6263     1.8469 </r>
       <r>     5.0710     0.0696     1.8576 </r>
       <r>     5.2246     0.3460     1.9108 </r>
       <r>     5.3783     0.4246     1.9761 </r>
       <r>     5.5320     0.3943     2.0366 </r>
       <r>     5.6856     0.2220     2.0708 </r>
       <r>     5.8393     0.3247     2.1207 </r>
       <r>     5.9929     0.5040     2.1981 </r>
       <r>     6.1466     0.1737     2.2248 </r>
       <r>     6.3003     0.2015     2.2558 </r>
       <r>     6.4539     0.1285     2.2755 </r>
       <r>     6.6076     0.4587     2.3460 </r>
       <r>     6.7613     0.4555     2.4160 </r>
       <r>     6.9149     0.5159     2.4952 </r>
       <r>     7.0686     0.2176     2.5287 </r>
       <r>     7.2222     0.1937     2.5585 </r>
       <r>     7.3759     0.4262     2.6240 </r>
       <r>     7.5296     0.5225     2.7042 </r>
       <r>     7.6832     0.3595     2.7595 </r>
       <r>     7.8369     0.1813     2.7873 </r>
       <r>     7.9905     0.5350     2.8695 </r>
       <r>     8.1442     0.3080     2.9169 </r>
       <r>     8.2979     0.1561     2.9409 </r>
       <r>     8.4515     0.1075     2.9574 </r>
       <r>     8.6052     0.2916     3.0022 </r>
       <r>     8.7588     0.7145     3.1120 </r>
       <r>     8.9125     0.5835     3.2016 </r>
       <r>     9.0662     0.6343     3.2991 </r>
       <r>     9.2198     0.2228     3.3333 </r>
       <r>     9.3735     0.2152     3.3664 </r>
       <r>     9.5271     0.4258     3.4318 </r>
       <r>     9.6808     0.3366     3.4835 </r>
       <r>     9.8345     0.2706     3.5251 </r>
       <r>     9.9881     0.2569     3.5646 </r>
       <r>    10.1418     0.5730     3.6527 </r>
       <r>    10.2955     0.4543     3.7225 </r>
       <r>    10.4491     0.2871     3.7666 </r>
       <r>    10.6028     0.3225     3.8161 </r>
       <r>    10.7564     0.6353     3.9138 </r>
       <r>    10.9101     0.5900     4.0044 </r>
       <r>    11.0638     0.3852     4.0636 </r>
       <r>    11.2174     0.2887     4.1080 </r>
       <r>    11.3711     0.1042     4.1240 </r>
       <r>    11.5247     0.5763     4.2125 </r>
       <r>    11.6784     0.4713     4.2849 </r>
       <r>    11.8321     0.5308     4.3665 </r>
       <r>    11.9857     0.3667     4.4228 </r>
       <r>    12.1394     0.7662     4.5406 </r>
       <r>    12.2930     0.1817     4.5685 </r>
       <r>    12.4467     0.3360     4.6201 </r>
       <r>    12.6004     0.3622     4.6758 </r>
       <r>    12.7540     0.3734     4.7332 </r>
       <r>    12.9077     0.5100     4.8115 </r>
       <r>    13.0613     0.7171     4.9217 </r>
       <r>    13.2150     0.3096     4.9693 </r>
       <r>    13.3687     0.6951     5.0761 </r>
       <r>    13.5223     0.2852     5.1199 </r>
       <r>    13.6760     0.5227     5.2002 </r>
       <r>    13.8297     0.3539     5.2546 </r>
       <r>    13.9833     0.6417     5.3532 </r>
       <r>    14.1370     0.7328     5.4658 </r>
       <r>    14.2906     0.3624     5.5215 </r>
       <r>    14.4443     0.3355     5.5731 </r>
       <r>    14.5980     0.4717     5.6455 </r>
       <r>    14.7516     0.7970     5.7680 </r>
       <r>    14.9053     0.4542     5.8378 </r>
       <r>    15.0589     0.4127     5.9012 </r>
       <r>    15.2126     0.3964     5.9621 </r>
       <r>    15.3663     0.5750     6.0505 </r>
       <r>    15.5199     0.6966     6.1575 </r>
       <r>    15.6736     0.5563     6.2430 </r>
       <r>    15.8272     0.4240     6.3082 </r>
       <r>    15.9809     0.5912     6.3990 </r>
       <r>    16.1346     0.1480     6.4217 </r>
       <r>    16.2882     0.2199     6.4555 </r>
       <r>    16.4419     0.7123     6.5650 </r>
       <r>    16.5956     0.3851     6.6242 </r>
       <r>    16.7492     0.5477     6.7083 </r>
       <r>    16.9029     0.6804     6.8129 </r>
       <r>    17.0565     0.3992     6.8742 </r>
       <r>    17.2102     0.4501     6.9434 </r>
       <r>    17.3639     0.3187     6.9924 </r>
       <r>    17.5175     0.5520     7.0772 </r>
       <r>    17.6712     0.2887     7.1215 </r>
       <r>    17.8248     0.4286     7.1874 </r>
       <r>    17.9785     0.5492     7.2718 </r>
       <r>    18.1322     0.6253     7.3679 </r>
       <r>    18.2858     0.3617     7.4235 </r>
       <r>    18.4395     0.3107     7.4712 </r>
       <r>    18.5931     0.4957     7.5474 </r>
       <r>    18.7468     0.6966     7.6544 </r>
       <r>    18.9005     0.2261     7.6892 </r>
       <r>    19.0541     0.7137     7.7988 </r>
       <r>    19.2078     0.6135     7.8931 </r>
       <r>    19.3614     0.4645     7.9645 </r>
       <r>    19.5151     0.5933     8.0556 </r>
       <r>    19.6688     0.4916     8.1312 </r>
       <r>    19.8224     0.3249     8.1811 </r>
       <r>    19.9761     0.5618     8.2674 </r>
       <r>    20.1298     0.6191     8.3625 </r>
       <r>    20.2834     0.4593     8.4331 </r>
       <r>    20.4371     0.5476     8.5173 </r>
       <r>    20.5907     0.6786     8.6215 </r>
       <r>    20.7444     0.2944     8.6668 </r>
       <r>    20.8981     0.3088     8.7142 </r>
       <r>    21.0517     0.7098     8.8233 </r>
       <r>    21.2054     0.3607     8.8787 </r>
       <r>    21.3590     0.6667     8.9812 </r>
       <r>    21.5127     1.0001     9.1349 </r>
       <r>    21.6664     0.4936     9.2107 </r>
       <r>    21.8200     0.3376     9.2626 </r>
       <r>    21.9737     0.4300     9.3287 </r>
       <r>    22.1273     0.9818     9.4795 </r>
       <r>    22.2810     0.6286     9.5761 </r>
       <r>    22.4347     0.7320     9.6886 </r>
       <r>    22.5883     0.5018     9.7657 </r>
       <r>    22.7420     0.3110     9.8135 </r>
       <r>    22.8957     0.8686     9.9470 </r>
       <r>    23.0493     0.5523    10.0318 </r>
       <r>    23.2030     0.3018    10.0782 </r>
       <r>    23.3566     0.4544    10.1480 </r>
       <r>    23.5103     0.4302    10.2141 </r>
       <r>    23.6640     0.6783    10.3184 </r>
       <r>    23.8176     0.4702    10.3906 </r>
       <r>    23.9713     0.3745    10.4481 </r>
       <r>    24.1249     0.3986    10.5094 </r>
       <r>    24.2786     1.1545    10.6868 </r>
       <r>    24.4323     0.4680    10.7587 </r>
       <r>    24.5859     0.8155    10.8840 </r>
       <r>    24.7396     0.9563    11.0310 </r>
       <r>    24.8932     0.7008    11.1387 </r>
       <r>    25.0469     0.4818    11.2127 </r>
       <r>    25.2006     0.2001    11.2434 </r>
       <r>    25.3542     0.6401    11.3418 </r>
       <r>    25.5079     0.4666    11.4135 </r>
       <r>    25.6615     0.4537    11.4832 </r>
       <r>    25.8152     0.9197    11.6245 </r>
       <r>    25.9689     0.4586    11.6950 </r>
       <r>    26.1225     0.5055    11.7727 </r>
       <r>    26.2762     0.3969    11.8337 </r>
       <r>    26.4299     0.7903    11.9551 </r>
       <r>    26.5835     1.2495    12.1471 </r>
       <r>    26.7372     0.6391    12.2453 </r>
       <r>    26.8908     0.2836    12.2889 </r>
       <r>    27.0445     0.6853    12.3942 </r>
       <r>    27.1982     0.7182    12.5046 </r>
       <r>    27.3518     0.6090    12.5982 </r>
       <r>    27.5055     0.6335    12.6955 </r>
       <r>    27.6591     0.7796    12.8153 </r>
       <r>    27.8128     0.7817    12.9354 </r>
       <r>    27.9665     0.4182    12.9997 </r>
       <r>    28.1201     0.2012    13.0306 </r>
       <r>    28.2738     0.5503    13.1151 </r>
       <r>    28.4274     0.5079    13.1932 </r>
       <r>    28.5811     0.9475    13.3388 </r>
       <r>    28.7348     0.5880    13.4291 </r>
       <r>    28.8884     0.6623    13.5309 </r>
       <r>    29.0421     0.7524    13.6465 </r>
       <r>    29.1957     0.4472    13.7153 </r>
       <r>    29.3494     0.3547    13.7698 </r>
       <r>    29.5031     1.0571    13.9322 </r>
       <r>    29.6567     0.4985    14.0088 </r>
       <r>    29.8104     0.2185    14.0424 </r>
       <r>    29.9641     0.1844    14.0707 </r>
       <r>    30.1177     0.1232    14.0897 </r>
       <r>    30.2714     0.9916    14.2420 </r>
       <r>    30.4250     0.4254    14.3074 </r>
       <r>    30.5787     0.6004    14.3997 </r>
       <r>    30.7324     0.2745    14.4418 </r>
       <r>    30.8860     0.3022    14.4883 </r>
       <r>    31.0397     1.0634    14.6517 </r>
       <r>    31.1933     0.7138    14.7614 </r>
       <r>    31.3470     0.6259    14.8575 </r>
       <r>    31.5007     0.3732    14.9149 </r>
       <r>    31.6543     0.2429    14.9522 </r>
       <r>    31.8080     0.3191    15.0012 </r>
       <r>    31.9616     0.3142    15.0495 </r>
       <r>    32.1153     0.6313    15.1465 </r>
       <r>    32.2690     0.2075    15.1784 </r>
       <r>    32.4226     0.3531    15.2326 </r>
       <r>    32.5763     0.2996    15.2787 </r>
       <r>    32.7300     0.5511    15.3634 </r>
       <r>    32.8836     0.4141    15.4270 </r>
       <r>    33.0373     0.2335    15.4629 </r>
       <r>    33.1909     0.0247    15.4667 </r>
       <r>    33.3446     0.1756    15.4937 </r>
       <r>    33.4983     0.5091    15.5719 </r>
       <r>    33.6519     0.1010    15.5874 </r>
       <r>    33.8056     0.1131    15.6048 </r>
       <r>    33.9592     0.1630    15.6298 </r>
       <r>    34.1129     0.0424    15.6364 </r>
       <r>    34.2666     0.3458    15.6895 </r>
       <r>    34.4202     0.3003    15.7357 </r>
       <r>    34.5739     0.0781    15.7476 </r>
       <r>    34.7275     0.1902    15.7769 </r>
       <r>    34.8812     0.1312    15.7970 </r>
       <r>    35.0349     0.2141    15.8299 </r>
       <r>    35.1885     0.1741    15.8567 </r>
       <r>    35.3422     0.0865    15.8700 </r>
       <r>    35.4958     0.1288    15.8898 </r>
       <r>    35.6495     0.0004    15.8898 </r>
       <r>    35.8032     0.1710    15.9161 </r>
       <r>    35.9568     0.0574    15.9249 </r>
       <r>    36.1105     0.0027    15.9253 </r>
       <r>    36.2642     0.0427    15.9319 </r>
       <r>    36.4178     0.0729    15.9431 </r>
       <r>    36.5715     0.0697    15.9538 </r>
       <r>    36.7251     0.1381    15.9750 </r>
       <r>    36.8788     0.0126    15.9770 </r>
       <r>    37.0325     0.0804    15.9893 </r>
       <r>    37.1861     0.0001    15.9893 </r>
       <r>    37.3398     0.0000    15.9893 </r>
       <r>    37.4934     0.0068    15.9904 </r>
       <r>    37.6471     0.0394    15.9964 </r>
       <r>    37.8008     0.0013    15.9966 </r>
       <r>    37.9544     0.0218    16.0000 </r>
       <r>    38.1081     0.0001    16.0000 </r>
       <r>    38.2617     0.0000    16.0000 </r>
       <r>    38.4154     0.0000    16.0000 </r>
       <r>    38.5691     0.0000    16.0000 </r>
       <r>    38.7227     0.0000    16.0000 </r>
       <r>    38.8764     0.0000    16.0000 </r>
       <r>    39.0301     0.0000    16.0000 </r>
       <r>    39.1837     0.0000    16.0000 </r>
       <r>    39.3374     0.0000    16.0000 </r>
       <r>    39.4910     0.0000    16.0000 </r>
       <r>    39.6447     0.0000    16.0000 </r>
       <r>    39.7984     0.0000    16.0000 </r>
       <r>    39.9520     0.0000    16.0000 </r>
      </set>
     </set>
    </array>
   </total>
  </dos>
 </calculation>
 <structure name="finalpos" >
  <crystal>
   <varray name="basis" >
    <v>       2.32392105       0.00000000       1.34171532 </v>
    <v>       0.77464035       2.19101355       1.34171532 </v>
    <v>       0.00000000       0.00000000       2.68343262 </v>
   </varray>
   <i name="volume">     13.66334794 </i>
   <varray name="rec_basis" >
    <v>       0.43030722      -0.15213659       0.00000000 </v>
    <v>       0.00000000       0.45640977       0.00000000 </v>
    <v>      -0.21515345      -0.15213648       0.37265702 </v>
   </varray>
  </crystal>
  <varray name="positions" >
   <v>       0.00000000       0.00000000       0.00000000 </v>
  </varray>
 </structure>
</modeling>
