unknown system                          
           1
     2.323921    0.000000    1.341715
     0.774640    2.191014    1.341715
     0.000000    0.000000    2.683433
   Si
     1
Direct configuration=     1
   0.00000000  0.00000000  0.00000000
