unknown system                          
   1.00000000000000     
     2.792529   -0.000000    0.000000
     0.000000    2.792529    0.000000
     0.000000    0.000000    2.792529
   Fe
     2
Direct
  0.000000  0.000000  0.000000
  0.500000  0.500000  0.500000
 
   32   32   32
 0.18387301134E+03 0.17835755786E+03 0.16272907156E+03 0.13950885910E+03 0.11220023685E+03
 0.84480057589E+02 0.59456097581E+02 0.39186323338E+02 0.24523730537E+02 0.15229294183E+02
 0.10248500175E+02 0.80599641665E+01 0.70476572823E+01 0.63607314359E+01 0.59387283039E+01
 0.57220139375E+01 0.56566405030E+01 0.57220139375E+01 0.59387283039E+01 0.63607314359E+01
 0.70476572823E+01 0.80599641665E+01 0.10248500175E+02 0.15229294183E+02 0.24523730537E+02
 0.39186323338E+02 0.59456097581E+02 0.84480057589E+02 0.11220023685E+03 0.13950885910E+03
 0.16272907156E+03 0.17835755786E+03 0.17835755786E+03 0.17303218421E+03 0.15793448581E+03
 0.13548073182E+03 0.10903803737E+03 0.82156961405E+02 0.57859229735E+02 0.38165569855E+02
 0.23928945348E+02 0.14927823233E+02 0.10127856846E+02 0.80259805588E+01 0.70315308567E+01
 0.63523935765E+01 0.59358776229E+01 0.57220088605E+01 0.56574714484E+01 0.57220088605E+01
 0.59358776229E+01 0.63523935765E+01 0.70315308567E+01 0.80259805588E+01 0.10127856846E+02
 0.14927823233E+02 0.23928945348E+02 0.38165569855E+02 0.57859229735E+02 0.82156961405E+02
 0.10903803737E+03 0.13548073182E+03 0.15793448581E+03 0.17303218421E+03 0.16272907156E+03
 0.15793448581E+03 0.14432053574E+03 0.12401417280E+03 0.10000684499E+03 0.75499133401E+02
 0.53270883406E+02 0.35232444117E+02 0.22227563936E+02 0.14075287209E+02 0.97934625352E+01
 0.79313413858E+01 0.69830624478E+01 0.63278599321E+01 0.59277194225E+01 0.57222235424E+01
 0.56601284825E+01 0.57222235424E+01 0.59277194225E+01 0.63278599321E+01 0.69830624478E+01
 0.79313413858E+01 0.97934625352E+01 0.14075287209E+02 0.22227563936E+02 0.35232444117E+02
 0.53270883406E+02 0.75499133401E+02 0.10000684499E+03 0.12401417280E+03 0.14432053574E+03
 0.15793448581E+03 0.13950885910E+03 0.13548073182E+03 0.12401417280E+03 0.10683080993E+03
 0.86393603067E+02 0.65404975520E+02 0.46289249694E+02 0.30777004306E+02 0.19671017635E+02
 0.12825132715E+02 0.93219028647E+01 0.77913984023E+01 0.69028283077E+01 0.62886646995E+01
 0.59152921959E+01 0.57231578383E+01 0.56649123747E+01 0.57231578383E+01 0.59152921959E+01
 0.62886646995E+01 0.69028283077E+01 0.77913984023E+01 0.93219028647E+01 0.12825132715E+02
 0.19671017635E+02 0.30777004306E+02 0.46289249694E+02 0.65404975520E+02 0.86393603067E+02
 0.10683080993E+03 0.12401417280E+03 0.13548073182E+03 0.11220023685E+03 0.10903803737E+03
 0.10000684499E+03 0.86393603067E+02 0.70088835461E+02 0.53242382531E+02 0.37861611706E+02
 0.25434253082E+02 0.16666986536E+02 0.11413522637E+02 0.88157069978E+01 0.76102072943E+01
 0.67938910060E+01 0.62375101705E+01 0.58998952123E+01 0.57251225109E+01 0.56718076462E+01
 0.57251225109E+01 0.58998952123E+01 0.62375101705E+01 0.67938910060E+01 0.76102072943E+01
 0.88157069978E+01 0.11413522637E+02 0.16666986536E+02 0.25434253082E+02 0.37861611706E+02
 0.53242382531E+02 0.70088835461E+02 0.86393603067E+02 0.10000684499E+03 0.10903803737E+03
 0.84480057589E+02 0.82156961405E+02 0.75499133401E+02 0.65404975520E+02 0.53242382531E+02
 0.40634319868E+02 0.29155902593E+02 0.20000112119E+02 0.13713116407E+02 0.10101602092E+02
 0.83566790003E+01 0.73824171310E+01 0.66630320675E+01 0.61780697425E+01 0.58826031106E+01
 0.57277871054E+01 0.56800685791E+01 0.57277871054E+01 0.58826031106E+01 0.61780697425E+01
 0.66630320675E+01 0.73824171310E+01 0.83566790003E+01 0.10101602092E+02 0.13713116407E+02
 0.20000112119E+02 0.29155902593E+02 0.40634319868E+02 0.53242382531E+02 0.65404975520E+02
 0.75499133401E+02 0.82156961405E+02 0.59456097581E+02 0.57859229735E+02 0.53270883406E+02
 0.46289249694E+02 0.37861611706E+02 0.29155902593E+02 0.21331698680E+02 0.15255070593E+02
 0.11261544174E+02 0.90773306042E+01 0.79446513350E+01 0.71237939378E+01 0.65201990134E+01
 0.61143427000E+01 0.58638924739E+01 0.57300309100E+01 0.56881494695E+01 0.57300309100E+01
 0.58638924739E+01 0.61143427000E+01 0.65201990134E+01 0.71237939378E+01 0.79446513350E+01
 0.90773306042E+01 0.11261544174E+02 0.15255070593E+02 0.21331698680E+02 0.29155902593E+02
 0.37861611706E+02 0.46289249694E+02 0.53270883406E+02 0.57859229735E+02 0.39186323338E+02
 0.38165569855E+02 0.35232444117E+02 0.30777004306E+02 0.25434253082E+02 0.20000112119E+02
 0.15255070593E+02 0.11735992895E+02 0.95536364004E+01 0.83533929468E+01 0.75193378395E+01
 0.68574422377E+01 0.63762300209E+01 0.60497969700E+01 0.58435820060E+01 0.57302437123E+01
 0.56941035019E+01 0.57302437123E+01 0.58435820060E+01 0.60497969700E+01 0.63762300209E+01
 0.68574422377E+01 0.75193378395E+01 0.83533929468E+01 0.95536364004E+01 0.11735992895E+02
 0.15255070593E+02 0.20000112119E+02 0.25434253082E+02 0.30777004306E+02 0.35232444117E+02
 0.38165569855E+02 0.24523730537E+02 0.23928945348E+02 0.22227563936E+02 0.19671017635E+02
 0.16666986536E+02 0.13713116407E+02 0.11261544174E+02 0.95536364004E+01 0.85061488264E+01
 0.77486450120E+01 0.71061999828E+01 0.66053206163E+01 0.62400830097E+01 0.59867533989E+01
 0.58211503473E+01 0.57269722195E+01 0.56963001087E+01 0.57269722195E+01 0.58211503473E+01
 0.59867533989E+01 0.62400830097E+01 0.66053206163E+01 0.71061999828E+01 0.77486450120E+01
 0.85061488264E+01 0.95536364004E+01 0.11261544174E+02 0.13713116407E+02 0.16666986536E+02
 0.19671017635E+02 0.22227563936E+02 0.23928945348E+02 0.15229294183E+02 0.14927823233E+02
 0.14075287209E+02 0.12825132715E+02 0.11413522637E+02 0.10101602092E+02 0.90773306042E+01
 0.83533929468E+01 0.77486450120E+01 0.71979177965E+01 0.67391916789E+01 0.63823265879E+01
 0.61170517431E+01 0.59263459071E+01 0.57962889338E+01 0.57195958673E+01 0.56941035019E+01
 0.57195958673E+01 0.57962889338E+01 0.59263459071E+01 0.61170517431E+01 0.63823265879E+01
 0.67391916789E+01 0.71979177965E+01 0.77486450120E+01 0.83533929468E+01 0.90773306042E+01
 0.10101602092E+02 0.11413522637E+02 0.12825132715E+02 0.14075287209E+02 0.14927823233E+02
 0.10248500175E+02 0.10127856846E+02 0.97934625352E+01 0.93219028647E+01 0.88157069978E+01
 0.83566790003E+01 0.79446513350E+01 0.75193378395E+01 0.71061999828E+01 0.67391916789E+01
 0.64349730886E+01 0.61942444427E+01 0.60087490723E+01 0.58690444876E+01 0.57694028828E+01
 0.57086763416E+01 0.56881494695E+01 0.57086763416E+01 0.57694028828E+01 0.58690444876E+01
 0.60087490723E+01 0.61942444427E+01 0.64349730886E+01 0.67391916789E+01 0.71061999828E+01
 0.75193378395E+01 0.79446513350E+01 0.83566790003E+01 0.88157069978E+01 0.93219028647E+01
 0.97934625352E+01 0.10127856846E+02 0.80599641665E+01 0.80259805588E+01 0.79313413858E+01
 0.77913984023E+01 0.76102072943E+01 0.73824171310E+01 0.71237939378E+01 0.68574422377E+01
 0.66053206163E+01 0.63823265879E+01 0.61942444427E+01 0.60397517964E+01 0.59145836441E+01
 0.58154131658E+01 0.57417946251E+01 0.56957943258E+01 0.56800685791E+01 0.56957943258E+01
 0.57417946251E+01 0.58154131658E+01 0.59145836441E+01 0.60397517964E+01 0.61942444427E+01
 0.63823265879E+01 0.66053206163E+01 0.68574422377E+01 0.71237939378E+01 0.73824171310E+01
 0.76102072943E+01 0.77913984023E+01 0.79313413858E+01 0.80259805588E+01 0.70476572823E+01
 0.70315308567E+01 0.69830624478E+01 0.69028283077E+01 0.67938910060E+01 0.66630320675E+01
 0.65201990134E+01 0.63762300209E+01 0.62400830097E+01 0.61170517431E+01 0.60087490723E+01
 0.59145836441E+01 0.58337484694E+01 0.57666854701E+01 0.57154444158E+01 0.56829677885E+01
 0.56718076462E+01 0.56829677885E+01 0.57154444158E+01 0.57666854701E+01 0.58337484694E+01
 0.59145836441E+01 0.60087490723E+01 0.61170517431E+01 0.62400830097E+01 0.63762300209E+01
 0.65201990134E+01 0.66630320675E+01 0.67938910060E+01 0.69028283077E+01 0.69830624478E+01
 0.70315308567E+01 0.63607314359E+01 0.63523935765E+01 0.63278599321E+01 0.62886646995E+01
 0.62375101705E+01 0.61780697425E+01 0.61143427000E+01 0.60497969700E+01 0.59867533989E+01
 0.59263459071E+01 0.58690444876E+01 0.58154131658E+01 0.57666854701E+01 0.57248904083E+01
 0.56925238251E+01 0.56719674199E+01 0.56649123747E+01 0.56719674199E+01 0.56925238251E+01
 0.57248904083E+01 0.57666854701E+01 0.58154131658E+01 0.58690444876E+01 0.59263459071E+01
 0.59867533989E+01 0.60497969700E+01 0.61143427000E+01 0.61780697425E+01 0.62375101705E+01
 0.62886646995E+01 0.63278599321E+01 0.63523935765E+01 0.59387283039E+01 0.59358776229E+01
 0.59277194225E+01 0.59152921959E+01 0.58998952123E+01 0.58826031106E+01 0.58638924739E+01
 0.58435820060E+01 0.58211503473E+01 0.57962889338E+01 0.57694028828E+01 0.57417946251E+01
 0.57154444158E+01 0.56925238251E+01 0.56749035894E+01 0.56638744179E+01 0.56601284825E+01
 0.56638744179E+01 0.56749035894E+01 0.56925238251E+01 0.57154444158E+01 0.57417946251E+01
 0.57694028828E+01 0.57962889338E+01 0.58211503473E+01 0.58435820060E+01 0.58638924739E+01
 0.58826031106E+01 0.58998952123E+01 0.59152921959E+01 0.59277194225E+01 0.59358776229E+01
 0.57220139375E+01 0.57220088605E+01 0.57222235424E+01 0.57231578383E+01 0.57251225109E+01
 0.57277871054E+01 0.57300309100E+01 0.57302437123E+01 0.57269722195E+01 0.57195958673E+01
 0.57086763416E+01 0.56957943258E+01 0.56829677885E+01 0.56719674199E+01 0.56638744179E+01
 0.56590552942E+01 0.56574714484E+01 0.56590552942E+01 0.56638744179E+01 0.56719674199E+01
 0.56829677885E+01 0.56957943258E+01 0.57086763416E+01 0.57195958673E+01 0.57269722195E+01
 0.57302437123E+01 0.57300309100E+01 0.57277871054E+01 0.57251225109E+01 0.57231578383E+01
 0.57222235424E+01 0.57220088605E+01 0.56566405030E+01 0.56574714484E+01 0.56601284825E+01
 0.56649123747E+01 0.56718076462E+01 0.56800685791E+01 0.56881494695E+01 0.56941035019E+01
 0.56963001087E+01 0.56941035019E+01 0.56881494695E+01 0.56800685791E+01 0.56718076462E+01
 0.56649123747E+01 0.56601284825E+01 0.56574714484E+01 0.56566405030E+01 0.56574714484E+01
 0.56601284825E+01 0.56649123747E+01 0.56718076462E+01 0.56800685791E+01 0.56881494695E+01
 0.56941035019E+01 0.56963001087E+01 0.56941035019E+01 0.56881494695E+01 0.56800685791E+01
 0.56718076462E+01 0.56649123747E+01 0.56601284825E+01 0.56574714484E+01 0.57220139375E+01
 0.57220088605E+01 0.57222235424E+01 0.57231578383E+01 0.57251225109E+01 0.57277871054E+01
 0.57300309100E+01 0.57302437123E+01 0.57269722195E+01 0.57195958673E+01 0.57086763416E+01
 0.56957943258E+01 0.56829677885E+01 0.56719674199E+01 0.56638744179E+01 0.56590552942E+01
 0.56574714484E+01 0.56590552942E+01 0.56638744179E+01 0.56719674199E+01 0.56829677885E+01
 0.56957943258E+01 0.57086763416E+01 0.57195958673E+01 0.57269722195E+01 0.57302437123E+01
 0.57300309100E+01 0.57277871054E+01 0.57251225109E+01 0.57231578383E+01 0.57222235424E+01
 0.57220088605E+01 0.59387283039E+01 0.59358776229E+01 0.59277194225E+01 0.59152921959E+01
 0.58998952123E+01 0.58826031106E+01 0.58638924739E+01 0.58435820060E+01 0.58211503473E+01
 0.57962889338E+01 0.57694028828E+01 0.57417946251E+01 0.57154444158E+01 0.56925238251E+01
 0.56749035894E+01 0.56638744179E+01 0.56601284825E+01 0.56638744179E+01 0.56749035894E+01
 0.56925238251E+01 0.57154444158E+01 0.57417946251E+01 0.57694028828E+01 0.57962889338E+01
 0.58211503473E+01 0.58435820060E+01 0.58638924739E+01 0.58826031106E+01 0.58998952123E+01
 0.59152921959E+01 0.59277194225E+01 0.59358776229E+01 0.63607314359E+01 0.63523935765E+01
 0.63278599321E+01 0.62886646995E+01 0.62375101705E+01 0.61780697425E+01 0.61143427000E+01
 0.60497969700E+01 0.59867533989E+01 0.59263459071E+01 0.58690444876E+01 0.58154131658E+01
 0.57666854701E+01 0.57248904083E+01 0.56925238251E+01 0.56719674199E+01 0.56649123747E+01
 0.56719674199E+01 0.56925238251E+01 0.57248904083E+01 0.57666854701E+01 0.58154131658E+01
 0.58690444876E+01 0.59263459071E+01 0.59867533989E+01 0.60497969700E+01 0.61143427000E+01
 0.61780697425E+01 0.62375101705E+01 0.62886646995E+01 0.63278599321E+01 0.63523935765E+01
 0.70476572823E+01 0.70315308567E+01 0.69830624478E+01 0.69028283077E+01 0.67938910060E+01
 0.66630320675E+01 0.65201990134E+01 0.63762300209E+01 0.62400830097E+01 0.61170517431E+01
 0.60087490723E+01 0.59145836441E+01 0.58337484694E+01 0.57666854701E+01 0.57154444158E+01
 0.56829677885E+01 0.56718076462E+01 0.56829677885E+01 0.57154444158E+01 0.57666854701E+01
 0.58337484694E+01 0.59145836441E+01 0.60087490723E+01 0.61170517431E+01 0.62400830097E+01
 0.63762300209E+01 0.65201990134E+01 0.66630320675E+01 0.67938910060E+01 0.69028283077E+01
 0.69830624478E+01 0.70315308567E+01 0.80599641665E+01 0.80259805588E+01 0.79313413858E+01
 0.77913984023E+01 0.76102072943E+01 0.73824171310E+01 0.71237939378E+01 0.68574422377E+01
 0.66053206163E+01 0.63823265879E+01 0.61942444427E+01 0.60397517964E+01 0.59145836441E+01
 0.58154131658E+01 0.57417946251E+01 0.56957943258E+01 0.56800685791E+01 0.56957943258E+01
 0.57417946251E+01 0.58154131658E+01 0.59145836441E+01 0.60397517964E+01 0.61942444427E+01
 0.63823265879E+01 0.66053206163E+01 0.68574422377E+01 0.71237939378E+01 0.73824171310E+01
 0.76102072943E+01 0.77913984023E+01 0.79313413858E+01 0.80259805588E+01 0.10248500175E+02
 0.10127856846E+02 0.97934625352E+01 0.93219028647E+01 0.88157069978E+01 0.83566790003E+01
 0.79446513350E+01 0.75193378395E+01 0.71061999828E+01 0.67391916789E+01 0.64349730886E+01
 0.61942444427E+01 0.60087490723E+01 0.58690444876E+01 0.57694028828E+01 0.57086763416E+01
 0.56881494695E+01 0.57086763416E+01 0.57694028828E+01 0.58690444876E+01 0.60087490723E+01
 0.61942444427E+01 0.64349730886E+01 0.67391916789E+01 0.71061999828E+01 0.75193378395E+01
 0.79446513350E+01 0.83566790003E+01 0.88157069978E+01 0.93219028647E+01 0.97934625352E+01
 0.10127856846E+02 0.15229294183E+02 0.14927823233E+02 0.14075287209E+02 0.12825132715E+02
 0.11413522637E+02 0.10101602092E+02 0.90773306042E+01 0.83533929468E+01 0.77486450120E+01
 0.71979177965E+01 0.67391916789E+01 0.63823265879E+01 0.61170517431E+01 0.59263459071E+01
 0.57962889338E+01 0.57195958673E+01 0.56941035019E+01 0.57195958673E+01 0.57962889338E+01
 0.59263459071E+01 0.61170517431E+01 0.63823265879E+01 0.67391916789E+01 0.71979177965E+01
 0.77486450120E+01 0.83533929468E+01 0.90773306042E+01 0.10101602092E+02 0.11413522637E+02
 0.12825132715E+02 0.14075287209E+02 0.14927823233E+02 0.24523730537E+02 0.23928945348E+02
 0.22227563936E+02 0.19671017635E+02 0.16666986536E+02 0.13713116407E+02 0.11261544174E+02
 0.95536364004E+01 0.85061488264E+01 0.77486450120E+01 0.71061999828E+01 0.66053206163E+01
 0.62400830097E+01 0.59867533989E+01 0.58211503473E+01 0.57269722195E+01 0.56963001087E+01
 0.57269722195E+01 0.58211503473E+01 0.59867533989E+01 0.62400830097E+01 0.66053206163E+01
 0.71061999828E+01 0.77486450120E+01 0.85061488264E+01 0.95536364004E+01 0.11261544174E+02
 0.13713116407E+02 0.16666986536E+02 0.19671017635E+02 0.22227563936E+02 0.23928945348E+02
 0.39186323338E+02 0.38165569855E+02 0.35232444117E+02 0.30777004306E+02 0.25434253082E+02
 0.20000112119E+02 0.15255070593E+02 0.11735992895E+02 0.95536364004E+01 0.83533929468E+01
 0.75193378395E+01 0.68574422377E+01 0.63762300209E+01 0.60497969700E+01 0.58435820060E+01
 0.57302437123E+01 0.56941035019E+01 0.57302437123E+01 0.58435820060E+01 0.60497969700E+01
 0.63762300209E+01 0.68574422377E+01 0.75193378395E+01 0.83533929468E+01 0.95536364004E+01
 0.11735992895E+02 0.15255070593E+02 0.20000112119E+02 0.25434253082E+02 0.30777004306E+02
 0.35232444117E+02 0.38165569855E+02 0.59456097581E+02 0.57859229735E+02 0.53270883406E+02
 0.46289249694E+02 0.37861611706E+02 0.29155902593E+02 0.21331698680E+02 0.15255070593E+02
 0.11261544174E+02 0.90773306042E+01 0.79446513350E+01 0.71237939378E+01 0.65201990134E+01
 0.61143427000E+01 0.58638924739E+01 0.57300309100E+01 0.56881494695E+01 0.57300309100E+01
 0.58638924739E+01 0.61143427000E+01 0.65201990134E+01 0.71237939378E+01 0.79446513350E+01
 0.90773306042E+01 0.11261544174E+02 0.15255070593E+02 0.21331698680E+02 0.29155902593E+02
 0.37861611706E+02 0.46289249694E+02 0.53270883406E+02 0.57859229735E+02 0.84480057589E+02
 0.82156961405E+02 0.75499133401E+02 0.65404975520E+02 0.53242382531E+02 0.40634319868E+02
 0.29155902593E+02 0.20000112119E+02 0.13713116407E+02 0.10101602092E+02 0.83566790003E+01
 0.73824171310E+01 0.66630320675E+01 0.61780697425E+01 0.58826031106E+01 0.57277871054E+01
 0.56800685791E+01 0.57277871054E+01 0.58826031106E+01 0.61780697425E+01 0.66630320675E+01
 0.73824171310E+01 0.83566790003E+01 0.10101602092E+02 0.13713116407E+02 0.20000112119E+02
 0.29155902593E+02 0.40634319868E+02 0.53242382531E+02 0.65404975520E+02 0.75499133401E+02
 0.82156961405E+02 0.11220023685E+03 0.10903803737E+03 0.10000684499E+03 0.86393603067E+02
 0.70088835461E+02 0.53242382531E+02 0.37861611706E+02 0.25434253082E+02 0.16666986536E+02
 0.11413522637E+02 0.88157069978E+01 0.76102072943E+01 0.67938910060E+01 0.62375101705E+01
 0.58998952123E+01 0.57251225109E+01 0.56718076462E+01 0.57251225109E+01 0.58998952123E+01
 0.62375101705E+01 0.67938910060E+01 0.76102072943E+01 0.88157069978E+01 0.11413522637E+02
 0.16666986536E+02 0.25434253082E+02 0.37861611706E+02 0.53242382531E+02 0.70088835461E+02
 0.86393603067E+02 0.10000684499E+03 0.10903803737E+03 0.13950885910E+03 0.13548073182E+03
 0.12401417280E+03 0.10683080993E+03 0.86393603067E+02 0.65404975520E+02 0.46289249694E+02
 0.30777004306E+02 0.19671017635E+02 0.12825132715E+02 0.93219028647E+01 0.77913984023E+01
 0.69028283077E+01 0.62886646995E+01 0.59152921959E+01 0.57231578383E+01 0.56649123747E+01
 0.57231578383E+01 0.59152921959E+01 0.62886646995E+01 0.69028283077E+01 0.77913984023E+01
 0.93219028647E+01 0.12825132715E+02 0.19671017635E+02 0.30777004306E+02 0.46289249694E+02
 0.65404975520E+02 0.86393603067E+02 0.10683080993E+03 0.12401417280E+03 0.13548073182E+03
 0.16272907156E+03 0.15793448581E+03 0.14432053574E+03 0.12401417280E+03 0.10000684499E+03
 0.75499133401E+02 0.53270883406E+02 0.35232444117E+02 0.22227563936E+02 0.14075287209E+02
 0.97934625352E+01 0.79313413858E+01 0.69830624478E+01 0.63278599321E+01 0.59277194225E+01
 0.57222235424E+01 0.56601284825E+01 0.57222235424E+01 0.59277194225E+01 0.63278599321E+01
 0.69830624478E+01 0.79313413858E+01 0.97934625352E+01 0.14075287209E+02 0.22227563936E+02
 0.35232444117E+02 0.53270883406E+02 0.75499133401E+02 0.10000684499E+03 0.12401417280E+03
 0.14432053574E+03 0.15793448581E+03 0.17835755786E+03 0.17303218421E+03 0.15793448581E+03
 0.13548073182E+03 0.10903803737E+03 0.82156961405E+02 0.57859229735E+02 0.38165569855E+02
 0.23928945348E+02 0.14927823233E+02 0.10127856846E+02 0.80259805588E+01 0.70315308567E+01
 0.63523935765E+01 0.59358776229E+01 0.57220088605E+01 0.56574714484E+01 0.57220088605E+01
 0.59358776229E+01 0.63523935765E+01 0.70315308567E+01 0.80259805588E+01 0.10127856846E+02
 0.14927823233E+02 0.23928945348E+02 0.38165569855E+02 0.57859229735E+02 0.82156961405E+02
 0.10903803737E+03 0.13548073182E+03 0.15793448581E+03 0.17303218421E+03 0.17835755786E+03
 0.17303218421E+03 0.15793448581E+03 0.13548073182E+03 0.10903803737E+03 0.82156961405E+02
 0.57859229735E+02 0.38165569855E+02 0.23928945348E+02 0.14927823233E+02 0.10127856846E+02
 0.80259805588E+01 0.70315308567E+01 0.63523935765E+01 0.59358776229E+01 0.57220088605E+01
 0.56574714484E+01 0.57220088605E+01 0.59358776229E+01 0.63523935765E+01 0.70315308567E+01
 0.80259805588E+01 0.10127856846E+02 0.14927823233E+02 0.23928945348E+02 0.38165569855E+02
 0.57859229735E+02 0.82156961405E+02 0.10903803737E+03 0.13548073182E+03 0.15793448581E+03
 0.17303218421E+03 0.17303218421E+03 0.16788887271E+03 0.15329983399E+03 0.13158140337E+03
 0.10597107472E+03 0.79898999598E+02 0.56304342347E+02 0.37171143182E+02 0.23350724636E+02
 0.14636690494E+02 0.10013046970E+02 0.79942636039E+01 0.70162460955E+01 0.63449311970E+01
 0.59338479200E+01 0.57227748890E+01 0.56590552942E+01 0.57227748890E+01 0.59338479200E+01
 0.63449311970E+01 0.70162460955E+01 0.79942636039E+01 0.10013046970E+02 0.14636690494E+02
 0.23350724636E+02 0.37171143182E+02 0.56304342347E+02 0.79898999598E+02 0.10597107472E+03
 0.13158140337E+03 0.15329983399E+03 0.16788887271E+03 0.15793448581E+03 0.15329983399E+03
 0.14013346896E+03 0.12047653014E+03 0.97208951335E+02 0.73427011009E+02 0.51837435627E+02
 0.34315328604E+02 0.21698407363E+02 0.13814615926E+02 0.96954194250E+01 0.79056730815E+01
 0.69703132950E+01 0.63229595293E+01 0.59280629496E+01 0.57252070477E+01 0.56638744179E+01
 0.57252070477E+01 0.59280629496E+01 0.63229595293E+01 0.69703132950E+01 0.79056730815E+01
 0.96954194250E+01 0.13814615926E+02 0.21698407363E+02 0.34315328604E+02 0.51837435627E+02
 0.73427011009E+02 0.97208951335E+02 0.12047653014E+03 0.14013346896E+03 0.15329983399E+03
 0.13548073182E+03 0.13158140337E+03 0.12047653014E+03 0.10382179167E+03 0.83993906221E+02
 0.63613204239E+02 0.45043686768E+02 0.29982523189E+02 0.19220600477E+02 0.12612628680E+02
 0.92489876346E+01 0.77732645113E+01 0.68942843717E+01 0.62878123097E+01 0.59193080829E+01
 0.57295429504E+01 0.56719674199E+01 0.57295429504E+01 0.59193080829E+01 0.62878123097E+01
 0.68942843717E+01 0.77732645113E+01 0.92489876346E+01 0.12612628680E+02 0.19220600477E+02
 0.29982523189E+02 0.45043686768E+02 0.63613204239E+02 0.83993906221E+02 0.10382179167E+03
 0.12047653014E+03 0.13158140337E+03 0.10903803737E+03 0.10597107472E+03 0.97208951335E+02
 0.83993906221E+02 0.68156958522E+02 0.51789002773E+02 0.36850182415E+02 0.24796716168E+02
 0.16317887996E+02 0.11261081938E+02 0.87712555339E+01 0.75981362420E+01 0.67910455727E+01
 0.62418538279E+01 0.59085168975E+01 0.57357361806E+01 0.56829677885E+01 0.57357361806E+01
 0.59085168975E+01 0.62418538279E+01 0.67910455727E+01 0.75981362420E+01 0.87712555339E+01
 0.11261081938E+02 0.16317887996E+02 0.24796716168E+02 0.36850182415E+02 0.51789002773E+02
 0.68156958522E+02 0.83993906221E+02 0.97208951335E+02 0.10597107472E+03 0.82156961405E+02
 0.79898999598E+02 0.73427011009E+02 0.63613204239E+02 0.51789002773E+02 0.39538093409E+02
 0.28399481530E+02 0.19536737218E+02 0.13475275622E+02 0.10011254945E+02 0.83367573673E+01
 0.73773769345E+01 0.66669813723E+01 0.61883221583E+01 0.58963704628E+01 0.57431048024E+01
 0.56957943258E+01 0.57431048024E+01 0.58963704628E+01 0.61883221583E+01 0.66669813723E+01
 0.73773769345E+01 0.83367573673E+01 0.10011254945E+02 0.13475275622E+02 0.19536737218E+02
 0.28399481530E+02 0.39538093409E+02 0.51789002773E+02 0.63613204239E+02 0.73427011009E+02
 0.79898999598E+02 0.57859229735E+02 0.56304342347E+02 0.51837435627E+02 0.45043686768E+02
 0.36850182415E+02 0.28399481530E+02 0.20823345878E+02 0.14961269967E+02 0.11127928105E+02
 0.90387185611E+01 0.79379510544E+01 0.71270291814E+01 0.65314738609E+01 0.61307747687E+01
 0.58830212826E+01 0.57502783517E+01 0.57086763416E+01 0.57502783517E+01 0.58830212826E+01
 0.61307747687E+01 0.65314738609E+01 0.71270291814E+01 0.79379510544E+01 0.90387185611E+01
 0.11127928105E+02 0.14961269967E+02 0.20823345879E+02 0.28399481530E+02 0.36850182415E+02
 0.45043686768E+02 0.51837435627E+02 0.56304342347E+02 0.38165569855E+02 0.37171143182E+02
 0.34315328604E+02 0.29982523189E+02 0.24796716168E+02 0.19536737218E+02 0.14961269967E+02
 0.11584640389E+02 0.94999658781E+01 0.83449047920E+01 0.75219886787E+01 0.68693302123E+01
 0.63947791585E+01 0.60723354384E+01 0.58681026353E+01 0.57555481569E+01 0.57195958673E+01
 0.57555481569E+01 0.58681026353E+01 0.60723354384E+01 0.63947791585E+01 0.68693302123E+01
 0.75219886787E+01 0.83449047920E+01 0.94999658781E+01 0.11584640389E+02 0.14961269967E+02
 0.19536737218E+02 0.24796716168E+02 0.29982523189E+02 0.34315328604E+02 0.37171143182E+02
 0.23928945348E+02 0.23350724636E+02 0.21698407363E+02 0.19220600477E+02 0.16317887996E+02
 0.13475275622E+02 0.11127928105E+02 0.94999658781E+01 0.84960035850E+01 0.77510183547E+01
 0.71184495348E+01 0.66253901753E+01 0.62654150344E+01 0.60151385048E+01 0.58510504401E+01
 0.57574895771E+01 0.57269722195E+01 0.57574895771E+01 0.58510504401E+01 0.60151385048E+01
 0.62654150344E+01 0.66253901753E+01 0.71184495348E+01 0.77510183547E+01 0.84960035850E+01
 0.94999658781E+01 0.11127928105E+02 0.13475275622E+02 0.16317887996E+02 0.19220600477E+02
 0.21698407363E+02 0.23350724636E+02 0.14927823233E+02 0.14636690494E+02 0.13814615926E+02
 0.12612628680E+02 0.11261081938E+02 0.10011254945E+02 0.90387185611E+01 0.83449047920E+01
 0.77510183547E+01 0.72102948542E+01 0.67600746693E+01 0.64095311470E+01 0.61484538171E+01
 0.59602719224E+01 0.58315902848E+01 0.57555481569E+01 0.57302437123E+01 0.57555481569E+01
 0.58315902848E+01 0.59602719224E+01 0.61484538171E+01 0.64095311470E+01 0.67600746693E+01
 0.72102948542E+01 0.77510183547E+01 0.83449047920E+01 0.90387185611E+01 0.10011254945E+02
 0.11261081938E+02 0.12612628680E+02 0.13814615926E+02 0.14636690494E+02 0.10127856846E+02
 0.10013046970E+02 0.96954194250E+01 0.92489876346E+01 0.87712555339E+01 0.83367573673E+01
 0.79379510544E+01 0.75219886787E+01 0.71184495348E+01 0.67600746693E+01 0.64628413371E+01
 0.62273178237E+01 0.60454750291E+01 0.59082211205E+01 0.58101372754E+01 0.57502783517E+01
 0.57300309100E+01 0.57502783517E+01 0.58101372754E+01 0.59082211205E+01 0.60454750291E+01
 0.62273178237E+01 0.64628413371E+01 0.67600746693E+01 0.71184495348E+01 0.75219886787E+01
 0.79379510544E+01 0.83367573673E+01 0.87712555339E+01 0.92489876346E+01 0.96954194250E+01
 0.10013046970E+02 0.80259805588E+01 0.79942636039E+01 0.79056730815E+01 0.77732645113E+01
 0.75981362420E+01 0.73773769345E+01 0.71270291814E+01 0.68693302123E+01 0.66253901753E+01
 0.64095311470E+01 0.62273178237E+01 0.60774841123E+01 0.59559433345E+01 0.58595342218E+01
 0.57878967457E+01 0.57431048024E+01 0.57277871054E+01 0.57431048024E+01 0.57878967457E+01
 0.58595342218E+01 0.59559433345E+01 0.60774841123E+01 0.62273178237E+01 0.64095311470E+01
 0.66253901753E+01 0.68693302123E+01 0.71270291814E+01 0.73773769345E+01 0.75981362420E+01
 0.77732645113E+01 0.79056730815E+01 0.79942636039E+01 0.70315308567E+01 0.70162460955E+01
 0.69703132950E+01 0.68942843717E+01 0.67910455727E+01 0.66669813723E+01 0.65314738609E+01
 0.63947791585E+01 0.62654150344E+01 0.61484538171E+01 0.60454750291E+01 0.59559433345E+01
 0.58790942141E+01 0.58153386798E+01 0.57666193200E+01 0.57357361806E+01 0.57251225109E+01
 0.57357361806E+01 0.57666193200E+01 0.58153386798E+01 0.58790942141E+01 0.59559433345E+01
 0.60454750291E+01 0.61484538171E+01 0.62654150344E+01 0.63947791585E+01 0.65314738609E+01
 0.66669813723E+01 0.67910455727E+01 0.68942843717E+01 0.69703132950E+01 0.70162460955E+01
 0.63523935765E+01 0.63449311970E+01 0.63229595293E+01 0.62878123097E+01 0.62418538279E+01
 0.61883221583E+01 0.61307747687E+01 0.60723354384E+01 0.60151385048E+01 0.59602719224E+01
 0.59082211205E+01 0.58595342218E+01 0.58153386798E+01 0.57774632419E+01 0.57481513015E+01
 0.57295429504E+01 0.57231578383E+01 0.57295429504E+01 0.57481513015E+01 0.57774632419E+01
 0.58153386798E+01 0.58595342218E+01 0.59082211205E+01 0.59602719224E+01 0.60151385048E+01
 0.60723354384E+01 0.61307747687E+01 0.61883221583E+01 0.62418538279E+01 0.62878123097E+01
 0.63229595293E+01 0.63449311970E+01 0.59358776229E+01 0.59338479200E+01 0.59280629496E+01
 0.59193080829E+01 0.59085168975E+01 0.58963704628E+01 0.58830212826E+01 0.58681026353E+01
 0.58510504401E+01 0.58315902848E+01 0.58101372754E+01 0.57878967457E+01 0.57666193200E+01
 0.57481513015E+01 0.57340157327E+01 0.57252070477E+01 0.57222235424E+01 0.57252070477E+01
 0.57340157327E+01 0.57481513015E+01 0.57666193200E+01 0.57878967457E+01 0.58101372754E+01
 0.58315902848E+01 0.58510504401E+01 0.58681026353E+01 0.58830212826E+01 0.58963704628E+01
 0.59085168975E+01 0.59193080829E+01 0.59280629496E+01 0.59338479200E+01 0.57220088605E+01
 0.57227748890E+01 0.57252070477E+01 0.57295429504E+01 0.57357361806E+01 0.57431048024E+01
 0.57502783517E+01 0.57555481569E+01 0.57574895771E+01 0.57555481569E+01 0.57502783517E+01
 0.57431048024E+01 0.57357361806E+01 0.57295429504E+01 0.57252070477E+01 0.57227748890E+01
 0.57220088605E+01 0.57227748890E+01 0.57252070477E+01 0.57295429504E+01 0.57357361806E+01
 0.57431048024E+01 0.57502783517E+01 0.57555481569E+01 0.57574895771E+01 0.57555481569E+01
 0.57502783517E+01 0.57431048024E+01 0.57357361806E+01 0.57295429504E+01 0.57252070477E+01
 0.57227748890E+01 0.56574714484E+01 0.56590552942E+01 0.56638744179E+01 0.56719674199E+01
 0.56829677885E+01 0.56957943258E+01 0.57086763416E+01 0.57195958673E+01 0.57269722195E+01
 0.57302437123E+01 0.57300309100E+01 0.57277871054E+01 0.57251225109E+01 0.57231578383E+01
 0.57222235424E+01 0.57220088605E+01 0.57220139375E+01 0.57220088605E+01 0.57222235424E+01
 0.57231578383E+01 0.57251225109E+01 0.57277871054E+01 0.57300309100E+01 0.57302437123E+01
 0.57269722195E+01 0.57195958673E+01 0.57086763416E+01 0.56957943258E+01 0.56829677885E+01
 0.56719674199E+01 0.56638744179E+01 0.56590552942E+01 0.57220088605E+01 0.57227748890E+01
 0.57252070477E+01 0.57295429504E+01 0.57357361806E+01 0.57431048024E+01 0.57502783517E+01
 0.57555481569E+01 0.57574895771E+01 0.57555481569E+01 0.57502783517E+01 0.57431048024E+01
 0.57357361806E+01 0.57295429504E+01 0.57252070477E+01 0.57227748890E+01 0.57220088605E+01
 0.57227748890E+01 0.57252070477E+01 0.57295429504E+01 0.57357361806E+01 0.57431048024E+01
 0.57502783517E+01 0.57555481569E+01 0.57574895771E+01 0.57555481569E+01 0.57502783517E+01
 0.57431048024E+01 0.57357361806E+01 0.57295429504E+01 0.57252070477E+01 0.57227748890E+01
 0.59358776229E+01 0.59338479200E+01 0.59280629496E+01 0.59193080829E+01 0.59085168975E+01
 0.58963704628E+01 0.58830212826E+01 0.58681026353E+01 0.58510504401E+01 0.58315902848E+01
 0.58101372754E+01 0.57878967457E+01 0.57666193200E+01 0.57481513015E+01 0.57340157327E+01
 0.57252070477E+01 0.57222235424E+01 0.57252070477E+01 0.57340157327E+01 0.57481513015E+01
 0.57666193200E+01 0.57878967457E+01 0.58101372754E+01 0.58315902848E+01 0.58510504401E+01
 0.58681026353E+01 0.58830212826E+01 0.58963704628E+01 0.59085168975E+01 0.59193080829E+01