   2   2   1   0
  0.1136426E+02  0.2832634E-09  0.2832634E-09  0.2832634E-09  0.5000000E-15
  1.000000000000000E-004
  CAR 
 unknown system                          
     27.74126742     -4.08666040  301      6.43655790      1.00000000
     -4.087  0.0000E+00  0.0000E+00  0.0000E+00  0.0000E+00
     -3.981  0.0000E+00  0.0000E+00  0.0000E+00  0.0000E+00
     -3.874  0.0000E+00  0.0000E+00  0.0000E+00  0.0000E+00
     -3.768 -0.2288E-33 -0.2288E-33 -0.2428E-34 -0.2428E-34
     -3.662 -0.1211E-29 -0.1211E-29 -0.1285E-30 -0.1285E-30
     -3.556 -0.3636E-26 -0.3636E-26 -0.3859E-27 -0.3859E-27
     -3.450 -0.6183E-23 -0.6183E-23 -0.6564E-24 -0.6564E-24
     -3.344 -0.5953E-20 -0.5953E-20 -0.6322E-21 -0.6322E-21
     -3.238 -0.3131E-17 -0.3131E-17 -0.3328E-18 -0.3328E-18
     -3.132 -0.9595E-15 -0.9595E-15 -0.1021E-15 -0.1021E-15
     -3.026 -0.1645E-12 -0.1645E-12 -0.1756E-13 -0.1756E-13
     -2.920 -0.1578E-10 -0.1578E-10 -0.1691E-11 -0.1691E-11
     -2.814 -0.8397E-09 -0.8397E-09 -0.9078E-10 -0.9078E-10
     -2.707 -0.2448E-07 -0.2448E-07 -0.2688E-08 -0.2688E-08
     -2.601 -0.3815E-06 -0.3815E-06 -0.4316E-07 -0.4316E-07
     -2.495 -0.3000E-05 -0.3000E-05 -0.3615E-06 -0.3615E-06
     -2.389 -0.9891E-05 -0.9891E-05 -0.1411E-05 -0.1411E-05
     -2.283  0.1925E-05  0.1925E-05 -0.1207E-05 -0.1207E-05
     -2.177  0.8875E-04  0.8875E-04  0.8209E-05  0.8209E-05
     -2.071  0.2007E-03  0.2007E-03  0.2950E-04  0.2950E-04
     -1.965  0.1747E-03  0.1747E-03  0.4803E-04  0.4803E-04
     -1.859  0.4636E-04  0.4636E-04  0.5295E-04  0.5295E-04
     -1.753 -0.3498E-04 -0.3498E-04  0.4924E-04  0.4924E-04
     -1.647 -0.1259E-04 -0.1259E-04  0.4790E-04  0.4790E-04
     -1.540  0.2302E-03  0.2302E-03  0.7232E-04  0.7232E-04
     -1.434  0.5823E-03  0.5823E-03  0.1341E-03  0.1341E-03
     -1.328  0.5523E-03  0.5523E-03  0.1927E-03  0.1927E-03
     -1.222  0.1803E-03  0.1803E-03  0.2118E-03  0.2118E-03
     -1.116 -0.4690E-04 -0.4690E-04  0.2069E-03  0.2069E-03
     -1.010  0.1089E-04  0.1089E-04  0.2080E-03  0.2080E-03
     -0.904  0.3376E-03  0.3376E-03  0.2438E-03  0.2438E-03
     -0.798  0.6283E-03  0.6283E-03  0.3105E-03  0.3105E-03
     -0.692  0.4505E-03  0.4505E-03  0.3583E-03  0.3583E-03
     -0.586  0.7031E-04  0.7031E-04  0.3657E-03  0.3657E-03
     -0.479 -0.5362E-04 -0.5362E-04  0.3601E-03  0.3601E-03
     -0.373  0.2178E-03  0.2178E-03  0.3832E-03  0.3832E-03
     -0.267  0.7147E-03  0.7147E-03  0.4590E-03  0.4590E-03
     -0.161  0.7686E-03  0.7686E-03  0.5405E-03  0.5405E-03
     -0.055  0.2694E-03  0.2694E-03  0.5691E-03  0.5691E-03
      0.051  0.3910E-04  0.3910E-04  0.5733E-03  0.5733E-03
      0.157  0.5691E-03  0.5691E-03  0.6336E-03  0.6336E-03
      0.263  0.1224E-02  0.1224E-02  0.7635E-03  0.7635E-03
      0.369  0.9754E-03  0.9754E-03  0.8669E-03  0.8669E-03
      0.475  0.2305E-03  0.2305E-03  0.8914E-03  0.8914E-03
      0.581 -0.2500E-04 -0.2500E-04  0.8887E-03  0.8887E-03
      0.688  0.2685E-03  0.2685E-03  0.9172E-03  0.9172E-03
      0.794  0.6069E-03  0.6069E-03  0.9816E-03  0.9816E-03
      0.900  0.6885E-03  0.6885E-03  0.1055E-02  0.1055E-02
      1.006  0.7898E-03  0.7898E-03  0.1138E-02  0.1138E-02
      1.112  0.8936E-03  0.8936E-03  0.1233E-02  0.1233E-02
      1.218  0.7067E-03  0.7067E-03  0.1308E-02  0.1308E-02
      1.324  0.6462E-03  0.6462E-03  0.1377E-02  0.1377E-02
      1.430  0.1307E-02  0.1307E-02  0.1515E-02  0.1515E-02
      1.536  0.2224E-02  0.2224E-02  0.1751E-02  0.1751E-02
      1.642  0.2692E-02  0.2692E-02  0.2037E-02  0.2037E-02
      1.748  0.2483E-02  0.2483E-02  0.2300E-02  0.2300E-02
      1.855  0.1792E-02  0.1792E-02  0.2491E-02  0.2491E-02
      1.961  0.1581E-02  0.1581E-02  0.2658E-02  0.2658E-02
      2.067  0.2735E-02  0.2735E-02  0.2948E-02  0.2948E-02
      2.173  0.4291E-02  0.4291E-02  0.3404E-02  0.3404E-02
      2.279  0.5055E-02  0.5055E-02  0.3940E-02  0.3940E-02
      2.385  0.5238E-02  0.5238E-02  0.4496E-02  0.4496E-02
      2.491  0.5401E-02  0.5401E-02  0.5069E-02  0.5069E-02
      2.597  0.5484E-02  0.5484E-02  0.5651E-02  0.5651E-02
      2.703  0.4594E-02  0.4594E-02  0.6138E-02  0.6138E-02
      2.809  0.3009E-02  0.3009E-02  0.6457E-02  0.6457E-02
      2.915  0.2556E-02  0.2556E-02  0.6728E-02  0.6728E-02
      3.022  0.3598E-02  0.3598E-02  0.7110E-02  0.7110E-02
      3.128  0.4016E-02  0.4016E-02  0.7536E-02  0.7536E-02
      3.234  0.4080E-02  0.4080E-02  0.7969E-02  0.7969E-02
      3.340  0.5521E-02  0.5521E-02  0.8555E-02  0.8555E-02
      3.446  0.7402E-02  0.7402E-02  0.9340E-02  0.9340E-02
      3.552  0.8346E-02  0.8346E-02  0.1023E-01  0.1023E-01
      3.658  0.7984E-02  0.7984E-02  0.1107E-01  0.1107E-01
      3.764  0.6822E-02  0.6822E-02  0.1180E-01  0.1180E-01
      3.870  0.5921E-02  0.5921E-02  0.1242E-01  0.1242E-01
      3.976  0.5969E-02  0.5969E-02  0.1306E-01  0.1306E-01
      4.083  0.6535E-02  0.6535E-02  0.1375E-01  0.1375E-01
      4.189  0.7596E-02  0.7596E-02  0.1456E-01  0.1456E-01
      4.295  0.9240E-02  0.9240E-02  0.1554E-01  0.1554E-01
      4.401  0.9901E-02  0.9901E-02  0.1659E-01  0.1659E-01
      4.507  0.8289E-02  0.8289E-02  0.1747E-01  0.1747E-01
      4.613  0.4817E-02  0.4817E-02  0.1798E-01  0.1798E-01
      4.719  0.2257E-02  0.2257E-02  0.1822E-01  0.1822E-01
      4.825  0.2364E-02  0.2364E-02  0.1847E-01  0.1847E-01
      4.931  0.3607E-02  0.3607E-02  0.1885E-01  0.1885E-01
      5.037  0.3906E-02  0.3906E-02  0.1927E-01  0.1927E-01
      5.143  0.3011E-02  0.3011E-02  0.1958E-01  0.1958E-01
      5.250  0.2082E-02  0.2082E-02  0.1981E-01  0.1981E-01
      5.356  0.1308E-02  0.1308E-02  0.1994E-01  0.1994E-01
      5.462  0.3639E-03  0.3639E-03  0.1998E-01  0.1998E-01
      5.568 -0.1270E-03 -0.1270E-03  0.1997E-01  0.1997E-01
      5.674  0.8172E-03  0.8172E-03  0.2006E-01  0.2006E-01
      5.780  0.3588E-02  0.3588E-02  0.2044E-01  0.2044E-01
      5.886  0.7731E-02  0.7731E-02  0.2126E-01  0.2126E-01
      5.992  0.1145E-01  0.1145E-01  0.2247E-01  0.2247E-01
      6.098  0.1205E-01  0.1205E-01  0.2375E-01  0.2375E-01
      6.204  0.9922E-02  0.9922E-02  0.2480E-01  0.2480E-01
      6.310  0.8099E-02  0.8099E-02  0.2566E-01  0.2566E-01
      6.417  0.7878E-02  0.7878E-02  0.2650E-01  0.2650E-01
      6.523  0.8837E-02  0.8837E-02  0.2744E-01  0.2744E-01
      6.629  0.9469E-02  0.9469E-02  0.2844E-01  0.2844E-01
      6.735  0.8751E-02  0.8751E-02  0.2937E-01  0.2937E-01
      6.841  0.7097E-02  0.7097E-02  0.3012E-01  0.3012E-01
      6.947  0.5804E-02  0.5804E-02  0.3074E-01  0.3074E-01
      7.053  0.5329E-02  0.5329E-02  0.3130E-01  0.3130E-01
      7.159  0.5051E-02  0.5051E-02  0.3184E-01  0.3184E-01
      7.265  0.5660E-02  0.5660E-02  0.3244E-01  0.3244E-01
      7.371  0.7564E-02  0.7564E-02  0.3324E-01  0.3324E-01
      7.477  0.8799E-02  0.8799E-02  0.3418E-01  0.3418E-01
      7.584  0.7285E-02  0.7285E-02  0.3495E-01  0.3495E-01
      7.690  0.3993E-02  0.3993E-02  0.3537E-01  0.3537E-01
      7.796  0.1505E-02  0.1505E-02  0.3553E-01  0.3553E-01
      7.902  0.8729E-03  0.8729E-03  0.3563E-01  0.3563E-01
      8.008  0.9187E-03  0.9187E-03  0.3572E-01  0.3572E-01
      8.114  0.5374E-03  0.5374E-03  0.3578E-01  0.3578E-01
      8.220  0.4657E-04  0.4657E-04  0.3578E-01  0.3578E-01
      8.326 -0.1740E-03 -0.1740E-03  0.3577E-01  0.3577E-01
      8.432  0.8174E-05  0.8174E-05  0.3577E-01  0.3577E-01
      8.538  0.1098E-02  0.1098E-02  0.3588E-01  0.3588E-01
      8.645  0.2529E-02  0.2529E-02  0.3615E-01  0.3615E-01
      8.751  0.2663E-02  0.2663E-02  0.3643E-01  0.3643E-01
      8.857  0.1955E-02  0.1955E-02  0.3664E-01  0.3664E-01
      8.963  0.1672E-02  0.1672E-02  0.3682E-01  0.3682E-01
      9.069  0.1506E-02  0.1506E-02  0.3698E-01  0.3698E-01
      9.175  0.8409E-03  0.8409E-03  0.3707E-01  0.3707E-01
      9.281  0.1975E-03  0.1975E-03  0.3709E-01  0.3709E-01
      9.387  0.4661E-03  0.4661E-03  0.3714E-01  0.3714E-01
      9.493  0.1146E-02  0.1146E-02  0.3726E-01  0.3726E-01
      9.599  0.1008E-02  0.1008E-02  0.3737E-01  0.3737E-01
      9.705  0.3793E-03  0.3793E-03  0.3741E-01  0.3741E-01
      9.812  0.3234E-03  0.3234E-03  0.3744E-01  0.3744E-01
      9.918  0.5047E-03  0.5047E-03  0.3749E-01  0.3749E-01
     10.024  0.4175E-03  0.4175E-03  0.3754E-01  0.3754E-01
     10.130  0.8223E-03  0.8223E-03  0.3763E-01  0.3763E-01
     10.236  0.1695E-02  0.1695E-02  0.3781E-01  0.3781E-01
     10.342  0.1554E-02  0.1554E-02  0.3797E-01  0.3797E-01
     10.448  0.6533E-03  0.6533E-03  0.3804E-01  0.3804E-01
     10.554  0.4057E-03  0.4057E-03  0.3808E-01  0.3808E-01
     10.660  0.5663E-03  0.5663E-03  0.3814E-01  0.3814E-01
     10.766  0.5676E-03  0.5676E-03  0.3820E-01  0.3820E-01
     10.872  0.5654E-03  0.5654E-03  0.3826E-01  0.3826E-01
     10.979  0.7540E-03  0.7540E-03  0.3834E-01  0.3834E-01
     11.085  0.1440E-02  0.1440E-02  0.3850E-01  0.3850E-01
     11.191  0.1820E-02  0.1820E-02  0.3869E-01  0.3869E-01
     11.297  0.1014E-02  0.1014E-02  0.3880E-01  0.3880E-01
     11.403  0.1518E-03  0.1518E-03  0.3881E-01  0.3881E-01
     11.509  0.1795E-03  0.1795E-03  0.3883E-01  0.3883E-01
     11.615  0.5321E-03  0.5321E-03  0.3889E-01  0.3889E-01
     11.721  0.5379E-03  0.5379E-03  0.3895E-01  0.3895E-01
     11.827  0.5237E-03  0.5237E-03  0.3900E-01  0.3900E-01
     11.933  0.8014E-03  0.8014E-03  0.3909E-01  0.3909E-01
     12.039  0.9353E-03  0.9353E-03  0.3919E-01  0.3919E-01
     12.146  0.7916E-03  0.7916E-03  0.3927E-01  0.3927E-01
     12.252  0.7002E-03  0.7002E-03  0.3934E-01  0.3934E-01
     12.358  0.5792E-03  0.5792E-03  0.3941E-01  0.3941E-01
     12.464  0.2414E-03  0.2414E-03  0.3943E-01  0.3943E-01
     12.570 -0.8263E-05 -0.8263E-05  0.3943E-01  0.3943E-01
     12.676 -0.3248E-04 -0.3248E-04  0.3943E-01  0.3943E-01
     12.782  0.6764E-04  0.6764E-04  0.3943E-01  0.3943E-01
     12.888  0.1927E-03  0.1927E-03  0.3945E-01  0.3945E-01
     12.994  0.1838E-03  0.1838E-03  0.3947E-01  0.3947E-01
     13.100  0.5550E-04  0.5550E-04  0.3948E-01  0.3948E-01
     13.207 -0.3846E-04 -0.3846E-04  0.3948E-01  0.3948E-01
     13.313 -0.2773E-04 -0.2773E-04  0.3947E-01  0.3947E-01
     13.419  0.2193E-03  0.2193E-03  0.3950E-01  0.3950E-01
     13.525  0.7027E-03  0.7027E-03  0.3957E-01  0.3957E-01
     13.631  0.1061E-02  0.1061E-02  0.3968E-01  0.3968E-01
     13.737  0.1049E-02  0.1049E-02  0.3979E-01  0.3979E-01
     13.843  0.7149E-03  0.7149E-03  0.3987E-01  0.3987E-01
     13.949  0.2754E-03  0.2754E-03  0.3990E-01  0.3990E-01
     14.055  0.1089E-04  0.1089E-04  0.3990E-01  0.3990E-01
     14.161 -0.4738E-04 -0.4738E-04  0.3990E-01  0.3990E-01
     14.267 -0.6311E-04 -0.6311E-04  0.3989E-01  0.3989E-01
     14.374 -0.4569E-04 -0.4569E-04  0.3988E-01  0.3988E-01
     14.480  0.2664E-03  0.2664E-03  0.3991E-01  0.3991E-01
     14.586  0.1135E-02  0.1135E-02  0.4003E-01  0.4003E-01
     14.692  0.2303E-02  0.2303E-02  0.4028E-01  0.4028E-01
     14.798  0.2880E-02  0.2880E-02  0.4058E-01  0.4058E-01
     14.904  0.2172E-02  0.2172E-02  0.4081E-01  0.4081E-01
     15.010  0.7872E-03  0.7872E-03  0.4090E-01  0.4090E-01
     15.116 -0.4539E-04 -0.4539E-04  0.4089E-01  0.4089E-01
     15.222 -0.4630E-04 -0.4630E-04  0.4089E-01  0.4089E-01
     15.328  0.4615E-03  0.4615E-03  0.4094E-01  0.4094E-01
     15.434  0.1030E-02  0.1030E-02  0.4105E-01  0.4105E-01
     15.541  0.1423E-02  0.1423E-02  0.4120E-01  0.4120E-01
     15.647  0.1943E-02  0.1943E-02  0.4140E-01  0.4140E-01
     15.753  0.2391E-02  0.2391E-02  0.4166E-01  0.4166E-01
     15.859  0.2373E-02  0.2373E-02  0.4191E-01  0.4191E-01
     15.965  0.1666E-02  0.1666E-02  0.4208E-01  0.4208E-01
     16.071  0.7482E-03  0.7482E-03  0.4216E-01  0.4216E-01
     16.177  0.7192E-03  0.7192E-03  0.4224E-01  0.4224E-01
     16.283  0.1433E-02  0.1433E-02  0.4239E-01  0.4239E-01
     16.389  0.2039E-02  0.2039E-02  0.4261E-01  0.4261E-01
     16.495  0.1929E-02  0.1929E-02  0.4281E-01  0.4281E-01
     16.601  0.1314E-02  0.1314E-02  0.4295E-01  0.4295E-01
     16.708  0.7836E-03  0.7836E-03  0.4304E-01  0.4304E-01
     16.814  0.3638E-03  0.3638E-03  0.4307E-01  0.4307E-01
     16.920  0.2189E-03  0.2189E-03  0.4310E-01  0.4310E-01
     17.026  0.3296E-03  0.3296E-03  0.4313E-01  0.4313E-01
     17.132  0.2472E-03  0.2472E-03  0.4316E-01  0.4316E-01
     17.238  0.2055E-03  0.2055E-03  0.4318E-01  0.4318E-01
     17.344  0.8074E-03  0.8074E-03  0.4327E-01  0.4327E-01
     17.450  0.1846E-02  0.1846E-02  0.4346E-01  0.4346E-01
     17.556  0.2480E-02  0.2480E-02  0.4373E-01  0.4373E-01
     17.662  0.2215E-02  0.2215E-02  0.4396E-01  0.4396E-01
     17.769  0.1657E-02  0.1657E-02  0.4414E-01  0.4414E-01
     17.875  0.1388E-02  0.1388E-02  0.4428E-01  0.4428E-01
     17.981  0.1118E-02  0.1118E-02  0.4440E-01  0.4440E-01
     18.087  0.1398E-02  0.1398E-02  0.4455E-01  0.4455E-01
     18.193  0.2544E-02  0.2544E-02  0.4482E-01  0.4482E-01
     18.299  0.3017E-02  0.3017E-02  0.4514E-01  0.4514E-01
     18.405  0.2058E-02  0.2058E-02  0.4536E-01  0.4536E-01
     18.511  0.9680E-03  0.9680E-03  0.4546E-01  0.4546E-01
     18.617  0.4678E-03  0.4678E-03  0.4551E-01  0.4551E-01
     18.723  0.1361E-03  0.1361E-03  0.4553E-01  0.4553E-01
     18.829 -0.8130E-04 -0.8130E-04  0.4552E-01  0.4552E-01
     18.936 -0.4449E-04 -0.4449E-04  0.4551E-01  0.4551E-01
     19.042  0.4558E-03  0.4558E-03  0.4556E-01  0.4556E-01
     19.148  0.1239E-02  0.1239E-02  0.4569E-01  0.4569E-01
     19.254  0.1424E-02  0.1424E-02  0.4584E-01  0.4584E-01
     19.360  0.8758E-03  0.8758E-03  0.4594E-01  0.4594E-01
     19.466  0.6697E-03  0.6697E-03  0.4601E-01  0.4601E-01
     19.572  0.1643E-02  0.1643E-02  0.4618E-01  0.4618E-01
     19.678  0.2436E-02  0.2436E-02  0.4644E-01  0.4644E-01
     19.784  0.1484E-02  0.1484E-02  0.4660E-01  0.4660E-01
     19.890  0.2681E-03  0.2681E-03  0.4663E-01  0.4663E-01
     19.996  0.4662E-03  0.4662E-03  0.4667E-01  0.4667E-01
     20.103  0.1420E-02  0.1420E-02  0.4683E-01  0.4683E-01
     20.209  0.1629E-02  0.1629E-02  0.4700E-01  0.4700E-01
     20.315  0.1388E-02  0.1388E-02  0.4715E-01  0.4715E-01
     20.421  0.1910E-02  0.1910E-02  0.4735E-01  0.4735E-01
     20.527  0.2186E-02  0.2186E-02  0.4758E-01  0.4758E-01
     20.633  0.1265E-02  0.1265E-02  0.4771E-01  0.4771E-01
     20.739  0.4594E-03  0.4594E-03  0.4776E-01  0.4776E-01
     20.845  0.4386E-03  0.4386E-03  0.4781E-01  0.4781E-01
     20.951  0.6287E-03  0.6287E-03  0.4788E-01  0.4788E-01
     21.057  0.5396E-03  0.5396E-03  0.4793E-01  0.4793E-01
     21.163  0.2701E-03  0.2701E-03  0.4796E-01  0.4796E-01
     21.270  0.6257E-03  0.6257E-03  0.4803E-01  0.4803E-01
     21.376  0.1504E-02  0.1504E-02  0.4819E-01  0.4819E-01
     21.482  0.1658E-02  0.1658E-02  0.4836E-01  0.4836E-01
     21.588  0.1263E-02  0.1263E-02  0.4850E-01  0.4850E-01
     21.694  0.1243E-02  0.1243E-02  0.4863E-01  0.4863E-01
     21.800  0.1131E-02  0.1131E-02  0.4875E-01  0.4875E-01
     21.906  0.7720E-03  0.7720E-03  0.4883E-01  0.4883E-01
     22.012  0.6428E-03  0.6428E-03  0.4890E-01  0.4890E-01
     22.118  0.9760E-03  0.9760E-03  0.4900E-01  0.4900E-01
     22.224  0.1380E-02  0.1380E-02  0.4915E-01  0.4915E-01
     22.331  0.1226E-02  0.1226E-02  0.4928E-01  0.4928E-01
     22.437  0.7076E-03  0.7076E-03  0.4936E-01  0.4936E-01
     22.543  0.1855E-03  0.1855E-03  0.4937E-01  0.4937E-01
     22.649 -0.1147E-03 -0.1147E-03  0.4936E-01  0.4936E-01
     22.755  0.1125E-03  0.1125E-03  0.4937E-01  0.4937E-01
     22.861  0.1259E-02  0.1259E-02  0.4951E-01  0.4951E-01
     22.967  0.2697E-02  0.2697E-02  0.4979E-01  0.4979E-01
     23.073  0.2563E-02  0.2563E-02  0.5007E-01  0.5007E-01
     23.179  0.9513E-03  0.9513E-03  0.5017E-01  0.5017E-01
     23.285 -0.8045E-04 -0.8045E-04  0.5016E-01  0.5016E-01
     23.391  0.2336E-03  0.2336E-03  0.5018E-01  0.5018E-01
     23.498  0.1260E-02  0.1260E-02  0.5032E-01  0.5032E-01
     23.604  0.1657E-02  0.1657E-02  0.5049E-01  0.5049E-01
     23.710  0.1188E-02  0.1188E-02  0.5062E-01  0.5062E-01
     23.816  0.1025E-02  0.1025E-02  0.5073E-01  0.5073E-01
     23.922  0.1215E-02  0.1215E-02  0.5086E-01  0.5086E-01
     24.028  0.1039E-02  0.1039E-02  0.5097E-01  0.5097E-01
     24.134  0.5031E-03  0.5031E-03  0.5102E-01  0.5102E-01
     24.240  0.5718E-03  0.5718E-03  0.5108E-01  0.5108E-01
     24.346  0.1639E-02  0.1639E-02  0.5125E-01  0.5125E-01
     24.452  0.2242E-02  0.2242E-02  0.5149E-01  0.5149E-01
     24.558  0.1817E-02  0.1817E-02  0.5169E-01  0.5169E-01
     24.665  0.1844E-02  0.1844E-02  0.5188E-01  0.5188E-01
     24.771  0.2200E-02  0.2200E-02  0.5211E-01  0.5211E-01
     24.877  0.1450E-02  0.1450E-02  0.5227E-01  0.5227E-01
     24.983  0.2459E-03  0.2459E-03  0.5229E-01  0.5229E-01
     25.089  0.1054E-03  0.1054E-03  0.5231E-01  0.5231E-01
     25.195  0.1134E-02  0.1134E-02  0.5243E-01  0.5243E-01
     25.301  0.1839E-02  0.1839E-02  0.5262E-01  0.5262E-01
     25.407  0.1141E-02  0.1141E-02  0.5274E-01  0.5274E-01
     25.513  0.5114E-03  0.5114E-03  0.5280E-01  0.5280E-01
     25.619  0.1206E-02  0.1206E-02  0.5292E-01  0.5292E-01
     25.725  0.2023E-02  0.2023E-02  0.5314E-01  0.5314E-01
     25.832  0.1539E-02  0.1539E-02  0.5330E-01  0.5330E-01
     25.938  0.4410E-03  0.4410E-03  0.5335E-01  0.5335E-01
     26.044 -0.6240E-04 -0.6240E-04  0.5334E-01  0.5334E-01
     26.150 -0.6783E-04 -0.6783E-04  0.5334E-01  0.5334E-01
     26.256 -0.1611E-04 -0.1611E-04  0.5333E-01  0.5333E-01
     26.362 -0.1791E-05 -0.1791E-05  0.5333E-01  0.5333E-01
     26.468 -0.1047E-06 -0.1047E-06  0.5333E-01  0.5333E-01
     26.574 -0.3345E-08 -0.3345E-08  0.5333E-01  0.5333E-01
     26.680 -0.5949E-10 -0.5949E-10  0.5333E-01  0.5333E-01
     26.786 -0.5939E-12 -0.5939E-12  0.5333E-01  0.5333E-01
     26.893 -0.3345E-14 -0.3345E-14  0.5333E-01  0.5333E-01
     26.999 -0.1079E-16 -0.1079E-16  0.5333E-01  0.5333E-01
     27.105  0.0000E+00  0.0000E+00  0.5333E-01  0.5333E-01
     27.211  0.0000E+00  0.0000E+00  0.5333E-01  0.5333E-01
     27.317  0.0000E+00  0.0000E+00  0.5333E-01  0.5333E-01
     27.423  0.0000E+00  0.0000E+00  0.5333E-01  0.5333E-01
     27.529  0.0000E+00  0.0000E+00  0.5333E-01  0.5333E-01
     27.635  0.0000E+00  0.0000E+00  0.5333E-01  0.5333E-01
     27.741  0.0000E+00  0.0000E+00  0.5333E-01  0.5333E-01
     27.74126742     -4.08666040  301      6.43655790      1.00000000
     -4.087  0.0000E+00  0.0000E+00  0.0000E+00  0.0000E+00  0.0000E+00  0.0000E+00  0.0000E+00  0.0000E+00  0.0000E+00  0.0000E+00  0.0000E+00  0.0000E+00  0.0000E+00  0.0000E+00  0.0000E+00  0.0000E+00  0.0000E+00  0.0000E+00
     -3.981  0.0000E+00  0.0000E+00  0.0000E+00  0.0000E+00  0.0000E+00  0.0000E+00  0.0000E+00  0.0000E+00  0.0000E+00  0.0000E+00  0.0000E+00  0.0000E+00  0.0000E+00  0.0000E+00  0.0000E+00  0.0000E+00  0.0000E+00  0.0000E+00
     -3.874  0.0000E+00  0.0000E+00  0.0000E+00  0.0000E+00  0.0000E+00  0.0000E+00  0.0000E+00  0.0000E+00  0.0000E+00  0.0000E+00  0.0000E+00  0.0000E+00  0.0000E+00  0.0000E+00  0.0000E+00  0.0000E+00  0.0000E+00  0.0000E+00
     -3.768 -0.2532E-31 -0.2618E-31 -0.2103E-33 -0.2125E-33 -0.2103E-33 -0.2125E-33 -0.2103E-33 -0.2125E-33 -0.4463E-35 -0.4954E-35 -0.4463E-35 -0.4954E-35 -0.3929E-61 -0.1654E-60 -0.4463E-35 -0.4954E-35 -0.3949E-61 -0.1387E-61
     -3.662 -0.1340E-27 -0.1386E-27 -0.1113E-29 -0.1125E-29 -0.1113E-29 -0.1125E-29 -0.1113E-29 -0.1125E-29 -0.2363E-31 -0.2622E-31 -0.2363E-31 -0.2622E-31 -0.2080E-57 -0.8757E-57 -0.2363E-31 -0.2622E-31 -0.2090E-57 -0.7339E-58
     -3.556 -0.4023E-24 -0.4159E-24 -0.3341E-26 -0.3377E-26 -0.3341E-26 -0.3377E-26 -0.3341E-26 -0.3377E-26 -0.7092E-28 -0.7871E-28 -0.7092E-28 -0.7871E-28 -0.6242E-54 -0.2628E-53 -0.7092E-28 -0.7871E-28 -0.6274E-54 -0.2203E-54
     -3.450 -0.6841E-21 -0.7073E-21 -0.5682E-23 -0.5743E-23 -0.5682E-23 -0.5743E-23 -0.5682E-23 -0.5743E-23 -0.1206E-24 -0.1339E-24 -0.1206E-24 -0.1339E-24 -0.1062E-50 -0.4470E-50 -0.1206E-24 -0.1339E-24 -0.1067E-50 -0.3747E-51
     -3.344 -0.6586E-18 -0.6809E-18 -0.5470E-20 -0.5528E-20 -0.5470E-20 -0.5528E-20 -0.5470E-20 -0.5528E-20 -0.1161E-21 -0.1289E-21 -0.1161E-21 -0.1289E-21 -0.1022E-47 -0.4303E-47 -0.1161E-21 -0.1289E-21 -0.1027E-47 -0.3607E-48
     -3.238 -0.3464E-15 -0.3581E-15 -0.2877E-17 -0.2908E-17 -0.2877E-17 -0.2908E-17 -0.2877E-17 -0.2908E-17 -0.6107E-19 -0.6778E-19 -0.6107E-19 -0.6778E-19 -0.5375E-45 -0.2263E-44 -0.6107E-19 -0.6778E-19 -0.5403E-45 -0.1897E-45
     -3.132 -0.1062E-12 -0.1098E-12 -0.8818E-15 -0.8911E-15 -0.8818E-15 -0.8911E-15 -0.8818E-15 -0.8911E-15 -0.1872E-16 -0.2077E-16 -0.1872E-16 -0.2077E-16 -0.2003E-34 -0.3737E-34 -0.1872E-16 -0.2077E-16 -0.6010E-34 -0.1121E-33
     -3.026 -0.1820E-10 -0.1882E-10 -0.1512E-12 -0.1528E-12 -0.1512E-12 -0.1528E-12 -0.1512E-12 -0.1528E-12 -0.3209E-14 -0.3562E-14 -0.3209E-14 -0.3562E-14 -0.1118E-30 -0.2085E-30 -0.3209E-14 -0.3562E-14 -0.3353E-30 -0.6255E-30
     -2.920 -0.1746E-08 -0.1805E-08 -0.1450E-10 -0.1465E-10 -0.1450E-10 -0.1465E-10 -0.1450E-10 -0.1465E-10 -0.3077E-12 -0.3416E-12 -0.3077E-12 -0.3416E-12 -0.3537E-27 -0.6597E-27 -0.3077E-12 -0.3416E-12 -0.1061E-26 -0.1979E-26
     -2.814 -0.9290E-07 -0.9605E-07 -0.7717E-09 -0.7798E-09 -0.7717E-09 -0.7798E-09 -0.7717E-09 -0.7798E-09 -0.1638E-10 -0.1818E-10 -0.1638E-10 -0.1818E-10 -0.6341E-24 -0.1183E-23 -0.1638E-10 -0.1818E-10 -0.1902E-23 -0.3548E-23
     -2.707 -0.2709E-05 -0.2801E-05 -0.2250E-07 -0.2274E-07 -0.2250E-07 -0.2274E-07 -0.2250E-07 -0.2274E-07 -0.4776E-09 -0.5301E-09 -0.4776E-09 -0.5301E-09 -0.6436E-21 -0.1200E-20 -0.4776E-09 -0.5301E-09 -0.1931E-20 -0.3601E-20
     -2.601 -0.4221E-04 -0.4364E-04 -0.3506E-06 -0.3543E-06 -0.3506E-06 -0.3543E-06 -0.3506E-06 -0.3543E-06 -0.7441E-08 -0.8259E-08 -0.7441E-08 -0.8259E-08 -0.3585E-18 -0.6687E-18 -0.7441E-08 -0.8259E-08 -0.1075E-17 -0.2006E-17
     -2.495 -0.3319E-03 -0.3432E-03 -0.2757E-05 -0.2786E-05 -0.2757E-05 -0.2786E-05 -0.2757E-05 -0.2786E-05 -0.5852E-07 -0.6495E-07 -0.5852E-07 -0.6495E-07 -0.1154E-15 -0.2153E-15 -0.5852E-07 -0.6495E-07 -0.3463E-15 -0.6460E-15
     -2.389 -0.1094E-02 -0.1131E-02 -0.9090E-05 -0.9186E-05 -0.9090E-05 -0.9186E-05 -0.9090E-05 -0.9186E-05 -0.1929E-06 -0.2141E-06 -0.1929E-06 -0.2141E-06 -0.2089E-13 -0.3896E-13 -0.1929E-06 -0.2141E-06 -0.6266E-13 -0.1169E-12
     -2.283  0.2130E-03  0.2202E-03  0.1769E-05  0.1788E-05  0.1769E-05  0.1788E-05  0.1769E-05  0.1788E-05  0.3754E-07  0.4167E-07  0.3755E-07  0.4167E-07 -0.2115E-11 -0.3944E-11  0.3754E-07  0.4167E-07 -0.6344E-11 -0.1183E-10
     -2.177  0.9820E-02  0.1015E-01  0.8156E-04  0.8242E-04  0.8156E-04  0.8242E-04  0.8155E-04  0.8241E-04  0.1731E-05  0.1921E-05  0.1731E-05  0.1921E-05 -0.1189E-09 -0.2218E-09  0.1731E-05  0.1921E-05 -0.3567E-09 -0.6655E-09
     -2.071  0.2220E-01  0.2296E-01  0.1844E-03  0.1864E-03  0.1844E-03  0.1864E-03  0.1840E-03  0.1860E-03  0.3904E-05  0.4333E-05  0.3914E-05  0.4345E-05 -0.3669E-08 -0.6845E-08  0.3904E-05  0.4333E-05 -0.1101E-07 -0.2053E-07
     -1.965  0.1933E-01  0.1999E-01  0.1606E-03  0.1623E-03  0.1606E-03  0.1623E-03  0.1540E-03  0.1558E-03  0.3245E-05  0.3600E-05  0.3412E-05  0.3786E-05 -0.6070E-07 -0.1132E-06  0.3245E-05  0.3600E-05 -0.1821E-06 -0.3397E-06
     -1.859  0.5188E-02  0.5360E-02  0.4316E-04  0.4348E-04  0.4316E-04  0.4348E-04 -0.1204E-04 -0.1071E-04 -0.4551E-06 -0.5249E-06  0.9433E-06  0.1039E-05 -0.5108E-06 -0.9529E-06 -0.4551E-06 -0.5249E-06 -0.1533E-05 -0.2859E-05
     -1.753 -0.3657E-02 -0.3795E-02 -0.3013E-04 -0.3093E-04 -0.3013E-04 -0.3093E-04 -0.2311E-03 -0.2283E-03 -0.5632E-05 -0.6323E-05 -0.5404E-06 -0.6291E-06 -0.1860E-05 -0.3470E-05 -0.5632E-05 -0.6323E-05 -0.5580E-05 -0.1041E-04
     -1.647 -0.1356E-02 -0.1405E-02 -0.1122E-04 -0.1143E-04 -0.1122E-04 -0.1143E-04 -0.4564E-04 -0.4522E-04 -0.1094E-05 -0.1226E-05 -0.2213E-06 -0.2506E-06 -0.3186E-06 -0.5943E-06 -0.1093E-05 -0.1226E-05 -0.9557E-06 -0.1783E-05
     -1.540  0.2370E-01  0.2462E-01  0.1948E-03  0.2009E-03  0.1948E-03  0.2009E-03  0.1864E-02  0.1839E-02  0.4558E-04  0.5119E-04  0.3312E-05  0.3918E-05  0.1544E-04  0.2881E-04  0.4559E-04  0.5120E-04  0.4634E-04  0.8643E-04
     -1.434  0.6000E-01  0.6231E-01  0.4923E-03  0.5076E-03  0.4931E-03  0.5085E-03  0.4684E-02  0.4623E-02  0.1143E-03  0.1284E-03  0.8383E-05  0.9912E-05  0.3875E-04  0.7227E-04  0.1146E-03  0.1287E-03  0.1164E-03  0.2171E-03
     -1.328  0.5692E-01  0.5911E-01  0.4559E-03  0.4704E-03  0.4678E-03  0.4823E-03  0.4443E-02  0.4385E-02  0.1053E-03  0.1182E-03  0.7727E-05  0.9129E-05  0.3624E-04  0.6754E-04  0.1087E-03  0.1221E-03  0.1107E-03  0.2065E-03
     -1.222  0.1867E-01  0.1939E-01  0.7273E-04  0.7736E-04  0.1532E-03  0.1577E-03  0.1459E-02  0.1439E-02  0.1282E-04  0.1399E-04  0.9684E-06  0.1098E-05  0.8399E-05  0.1525E-04  0.3610E-04  0.4039E-04  0.3850E-04  0.7182E-04
     -1.116 -0.4593E-02 -0.4776E-02 -0.2463E-03 -0.2479E-03 -0.3845E-04 -0.4028E-04 -0.3528E-03 -0.3525E-03 -0.6773E-04 -0.7713E-04 -0.4896E-05 -0.5911E-05 -0.1244E-04 -0.2430E-04 -0.7595E-05 -0.8929E-05 -0.2957E-05 -0.5516E-05
     -1.010  0.8517E-03  0.8904E-03  0.2438E-03  0.2444E-03  0.7786E-05  0.8746E-05  0.6002E-04  0.6400E-04  0.6857E-04  0.7822E-04  0.4948E-05  0.5988E-05  0.1131E-04  0.2232E-04  0.2912E-06  0.7809E-06 -0.5104E-05 -0.9522E-05
     -0.904  0.3223E-01  0.3353E-01  0.2500E-02  0.2512E-02  0.2723E-03  0.2876E-03  0.2454E-02  0.2467E-02  0.6934E-03  0.7902E-03  0.5008E-04  0.6052E-04  0.1223E-03  0.2399E-03  0.4891E-04  0.5921E-04 -0.1322E-05 -0.2486E-05
     -0.798  0.6007E-01  0.6249E-01  0.4586E-02  0.4608E-02  0.5063E-03  0.5344E-03  0.4568E-02  0.4592E-02  0.1271E-02  0.1449E-02  0.9161E-04  0.1107E-03  0.2244E-03  0.4397E-03  0.9105E-04  0.1101E-03 -0.1369E-05 -0.2928E-05
     -0.692  0.4313E-01  0.4485E-01  0.3322E-02  0.3338E-02  0.3540E-03  0.3738E-03  0.3200E-02  0.3227E-02  0.9187E-03  0.1047E-02  0.6419E-04  0.7746E-04  0.1597E-03  0.3123E-03  0.6013E-04  0.7287E-04 -0.1145E-04 -0.2485E-04
     -0.586  0.7013E-02  0.7231E-02  0.6802E-03  0.6806E-03  0.1315E-04  0.1449E-04  0.1726E-03  0.2206E-03  0.1792E-03  0.2030E-03  0.3118E-05  0.3301E-05  0.2082E-04  0.3745E-04 -0.1379E-04 -0.1584E-04 -0.4783E-04 -0.1038E-03
     -0.479 -0.4915E-02 -0.5156E-02 -0.2761E-03 -0.2797E-03 -0.8461E-04 -0.8851E-04 -0.6198E-03 -0.5912E-03 -0.8221E-04 -0.9477E-04 -0.1533E-04 -0.1895E-04 -0.2136E-04 -0.4414E-04 -0.2678E-04 -0.3191E-04 -0.3239E-04 -0.7031E-04
     -0.373  0.1871E-01  0.1993E-01  0.3520E-03  0.3746E-03  0.4741E-03  0.4966E-03  0.4086E-02  0.3758E-02  0.1672E-03  0.1984E-03  0.7918E-04  0.9891E-04  0.1103E-03  0.2408E-03  0.2036E-03  0.2397E-03  0.3519E-03  0.7639E-03
     -0.267  0.6197E-01  0.6585E-01  0.1528E-02  0.1599E-02  0.1564E-02  0.1636E-02  0.1262E-01  0.1165E-01  0.6114E-03  0.7225E-03  0.2680E-03  0.3343E-03  0.3431E-03  0.7445E-03  0.6374E-03  0.7523E-03  0.1046E-02  0.2271E-02
     -0.161  0.6684E-01  0.7099E-01  0.1663E-02  0.1736E-02  0.1764E-02  0.1842E-02  0.1339E-01  0.1237E-01  0.5555E-03  0.6606E-03  0.3080E-03  0.3837E-03  0.3385E-03  0.7316E-03  0.6980E-03  0.8244E-03  0.1113E-02  0.2416E-02
     -0.055  0.2389E-01  0.2535E-01  0.4448E-03  0.4563E-03  0.7358E-03  0.7641E-03  0.4585E-02  0.4237E-02 -0.1468E-03 -0.1617E-03  0.1350E-03  0.1670E-03  0.4246E-04  0.8293E-04  0.2708E-03  0.3185E-03  0.4146E-03  0.8977E-03
      0.051  0.3084E-02  0.3275E-02  0.2219E-03  0.2364E-03  0.4095E-04  0.4501E-04  0.6757E-03  0.6295E-03  0.2812E-03  0.3257E-03  0.5028E-05  0.7043E-05  0.6873E-04  0.1549E-03  0.2144E-04  0.2699E-04  0.2754E-04  0.6118E-04
      0.157  0.4444E-01  0.4729E-01  0.3172E-02  0.3391E-02  0.3334E-03  0.3889E-03  0.1030E-01  0.9569E-02  0.4342E-02  0.5023E-02  0.1046E-04  0.2535E-04  0.1079E-02  0.2431E-02  0.2680E-03  0.3385E-03  0.4332E-03  0.9624E-03
      0.263  0.9615E-01  0.1023E+00  0.6598E-02  0.7050E-02  0.8213E-03  0.9403E-03  0.2211E-01  0.2053E-01  0.8888E-02  0.1028E-01  0.4701E-04  0.8322E-04  0.2226E-02  0.5015E-02  0.5970E-03  0.7486E-03  0.9757E-03  0.2163E-02
      0.369  0.7676E-01  0.8170E-01  0.5233E-02  0.5590E-02  0.6128E-03  0.7029E-03  0.1764E-01  0.1637E-01  0.7054E-02  0.8151E-02  0.3611E-04  0.6156E-04  0.1780E-02  0.4009E-02  0.4235E-03  0.5266E-03  0.7781E-03  0.1724E-02
      0.475  0.1833E-01  0.1956E-01  0.1222E-02  0.1302E-02  0.7118E-06  0.9208E-05  0.4223E-02  0.3908E-02  0.1694E-02  0.1931E-02 -0.2543E-05 -0.7090E-05  0.4566E-03  0.1027E-02 -0.4717E-04 -0.7062E-04  0.1739E-03  0.3842E-03
      0.581 -0.2007E-02 -0.2207E-02 -0.1683E-03 -0.1652E-03  0.1627E-03  0.1756E-03 -0.4516E-03 -0.4046E-03 -0.3912E-03 -0.4241E-03  0.1195E-04  0.2352E-04 -0.1349E-03 -0.3149E-03  0.1743E-03  0.2310E-03 -0.1216E-05 -0.4965E-05
      0.688  0.1975E-01  0.2035E-01  0.1402E-02  0.1580E-02  0.1891E-02  0.2065E-02  0.4430E-02  0.4283E-02  0.8785E-03  0.1312E-02  0.1394E-03  0.2689E-03 -0.1303E-03 -0.3399E-03  0.1882E-02  0.2481E-02  0.3475E-03  0.7426E-03
      0.794  0.4450E-01  0.4590E-01  0.3552E-02  0.3880E-02  0.3549E-02  0.3881E-02  0.9494E-02  0.9314E-02  0.3516E-02  0.4643E-02  0.2660E-03  0.5122E-03  0.2171E-03  0.4255E-03  0.3467E-02  0.4584E-02  0.6106E-03  0.1172E-02
      0.900  0.4757E-01  0.4931E-01  0.5346E-02  0.5495E-02  0.2762E-02  0.3039E-02  0.9069E-02  0.9122E-02  0.8898E-02  0.1085E-01  0.2277E-03  0.4367E-03  0.1715E-02  0.4035E-02  0.2529E-02  0.3376E-02  0.3356E-03  0.4327E-03
      1.006  0.4801E-01  0.5318E-01  0.6927E-02  0.6792E-02  0.1024E-02  0.1189E-02  0.1160E-01  0.9833E-02  0.1521E-01  0.1797E-01  0.1211E-03  0.2287E-03  0.3870E-02  0.9623E-02  0.8205E-03  0.1047E-02  0.7434E-03  0.2675E-02
      1.112  0.4945E-01  0.6194E-01  0.5398E-02  0.5260E-02  0.2843E-03  0.4348E-03  0.2137E-01  0.1442E-01  0.1238E-01  0.1452E-01  0.4724E-04  0.8342E-04  0.3893E-02  0.1049E-01  0.6652E-03  0.5558E-03  0.2799E-02  0.1085E-01
      1.218  0.3657E-01  0.5218E-01  0.1467E-02  0.1523E-02  0.2928E-04  0.1613E-03  0.2505E-01  0.1512E-01  0.3001E-02  0.3327E-02 -0.2280E-04 -0.6245E-04  0.1880E-02  0.6181E-02  0.9995E-03  0.7919E-03  0.4076E-02  0.1567E-01