    2    2  300    2
  0.1136426E+02  0.2832634E-09  0.2832634E-09  0.2832634E-09  0.5000000E-15
  1.000000000000000E-004
  CAR 
 unknown system                          
     16     20     16
 
  0.6250000E-01  0.6250000E-01  0.6250000E-01  0.1562500E-01
    1       -2.086660     -2.086660   1.000000   1.000000
    2        1.989659      1.989659   1.000000   1.000000
    3        1.989659      1.989659   1.000000   1.000000
    4        4.547200      4.547200   1.000000   1.000000
    5        4.547200      4.547200   1.000000   1.000000
    6        4.748018      4.748018   1.000000   1.000000
    7        6.466531      6.466531   0.374740   0.374740
    8        6.466531      6.466531   0.374740   0.374740
    9        7.103333      7.103333  -0.000013  -0.000013
   10        7.428244      7.428244  -0.000000  -0.000000
   11        7.428244      7.428244  -0.000000  -0.000000
   12       16.270808     16.270808   0.000000   0.000000
   13       16.270808     16.270808   0.000000   0.000000
   14       16.658067     16.658067   0.000000   0.000000
   15       23.511295     23.511295   0.000000   0.000000
   16       23.511295     23.511295   0.000000   0.000000
 
  0.1875000E+00  0.6250000E-01  0.6250000E-01  0.4687500E-01
    1       -1.440250     -1.440250   1.000000   1.000000
    2        2.243945      2.243945   1.000000   1.000000
    3        2.265156      2.265156   1.000000   1.000000
    4        4.443832      4.443832   1.000000   1.000000
    5        4.502484      4.502484   1.000000   1.000000
    6        4.973295      4.973295   1.000000   1.000000
    7        6.188177      6.188177   1.035414   1.035414
    8        6.506549      6.506549   0.222991   0.222991
    9        6.598510      6.598510   0.007497   0.007497
   10        6.897358      6.897358  -0.002657  -0.002657
   11        7.392766      7.392766  -0.000000  -0.000000
   12       13.511374     13.511374   0.000000   0.000000
   13       17.431421     17.431421   0.000000   0.000000
   14       17.702669     17.702669   0.000000   0.000000
   15       23.762758     23.762758   0.000000   0.000000
   16       25.239722     25.239722   0.000000   0.000000
 
  0.3125000E+00  0.6250000E-01  0.6250000E-01  0.4687500E-01
    1       -0.258459     -0.258459   1.000000   1.000000
    2        2.506740      2.506740   1.000000   1.000000
    3        2.758209      2.758209   1.000000   1.000000
    4        4.435482      4.435482   1.000000   1.000000
    5        4.443880      4.443880   1.000000   1.000000
    6        5.144637      5.144637   1.000000   1.000000
    7        5.717571      5.717571   1.000002   1.000002
    8        6.029011      6.029011   1.007063   1.007063
    9        6.222062      6.222062   1.031106   1.031106
   10        6.769646      6.769646  -0.020077  -0.020077
   11        7.124618      7.124618  -0.000006  -0.000006
   12       10.585480     10.585480  -0.000000  -0.000000
   13       19.305407     19.305407   0.000000   0.000000
   14       19.587019     19.587019   0.000000   0.000000
   15       24.340440     24.340440   0.000000   0.000000
   16       25.663842     25.663842   0.000000   0.000000
 
  0.4375000E+00  0.6250000E-01  0.6250000E-01  0.4687500E-01
    1        1.149864      1.149864   1.000000   1.000000
    2        2.283556      2.283556   1.000000   1.000000
    3        3.287229      3.287229   1.000000   1.000000
    4        4.343147      4.343147   1.000000   1.000000
    5        4.560139      4.560139   1.000000   1.000000
    6        5.014714      5.014714   1.000000   1.000000
    7        5.310195      5.310195   1.000000   1.000000
    8        5.749107      5.749107   1.000007   1.000007
    9        6.074736      6.074736   1.014084   1.014084
   10        6.749471      6.749471  -0.024706  -0.024706
   11        6.966449      6.966449  -0.000579  -0.000579
   12        8.607972      8.607972  -0.000000  -0.000000
   13       21.428068     21.428068   0.000000   0.000000
   14       21.900660     21.900660   0.000000   0.000000
   15       23.521992     23.521992   0.000000   0.000000
   16       24.467854     24.467854   0.000000   0.000000
 
  0.1875000E+00  0.1875000E+00  0.6250000E-01  0.4687500E-01
    1       -0.834957     -0.834957   1.000000   1.000000
    2        2.425309      2.425309   1.000000   1.000000
    3        2.569152      2.569152   1.000000   1.000000
    4        4.197708      4.197708   1.000000   1.000000
    5        4.369565      4.369565   1.000000   1.000000
    6        5.103796      5.103796   1.000000   1.000000
    7        6.090644      6.090644   1.017278   1.017278
    8        6.266356      6.266356   1.001970   1.001970
    9        6.528918      6.528918   0.151598   0.151598
   10        6.575649      6.575649   0.041722   0.041722
   11        7.494323      7.494323  -0.000000  -0.000000
   12       13.659044     13.659044   0.000000   0.000000
   13       15.367346     15.367346   0.000000   0.000000
   14       18.517767     18.517767   0.000000   0.000000
   15       24.619877     24.619877   0.000000   0.000000
   16       25.741267     25.741267   0.000000   0.000000
 
  0.3125000E+00  0.1875000E+00  0.6250000E-01  0.9375000E-01
    1        0.236935      0.236935   1.000000   1.000000
    2        2.583845      2.583845   1.000000   1.000000
    3        3.042763      3.042763   1.000000   1.000000
    4        4.044551      4.044551   1.000000   1.000000
    5        4.266932      4.266932   1.000000   1.000000
    6        4.761227      4.761227   1.000000   1.000000
    7        6.016200      6.016200   1.005675   1.005675
    8        6.096887      6.096887   1.018619   1.018619
    9        6.333502      6.333502   0.878373   0.878373
   10        6.711953      6.711953  -0.032580  -0.032580
   11        7.418176      7.418176  -0.000000  -0.000000
   12       11.109074     11.109074  -0.000000  -0.000000
   13       16.425928     16.425928   0.000000   0.000000
   14       20.138326     20.138326   0.000000   0.000000
   15       22.967112     22.967112   0.000000   0.000000
   16       25.251303     25.251303   0.000000   0.000000
 
  0.4375000E+00  0.1875000E+00  0.6250000E-01  0.9375000E-01
    1        1.431601      1.431601   1.000000   1.000000
    2        2.326416      2.326416   1.000000   1.000000
    3        3.433466      3.433466   1.000000   1.000000
    4        4.013959      4.013959   1.000000   1.000000
    5        4.322973      4.322973   1.000000   1.000000
    6        4.456754      4.456754   1.000000   1.000000
    7        5.809821      5.809821   1.000043   1.000043
    8        5.907299      5.907299   1.000588   1.000588
    9        6.575965      6.575965   0.041166   0.041166
   10        7.054104      7.054104  -0.000057  -0.000057
   11        7.285053      7.285053  -0.000000  -0.000000
   12        8.849432      8.849432  -0.000000  -0.000000
   13       18.289733     18.289733   0.000000   0.000000
   14       20.480279     20.480279   0.000000   0.000000
   15       22.164771     22.164771   0.000000   0.000000
   16       24.370136     24.370136   0.000000   0.000000
 
  0.3125000E+00  0.3125000E+00  0.6250000E-01  0.4687500E-01
    1        0.991181      0.991181   1.000000   1.000000
    2        2.409756      2.409756   1.000000   1.000000
    3        3.702170      3.702170   1.000000   1.000000
    4        3.742502      3.742502   1.000000   1.000000
    5        4.216324      4.216324   1.000000   1.000000
    6        4.359782      4.359782   1.000000   1.000000
    7        5.906686      5.906686   1.000579   1.000579
    8        6.420169      6.420169   0.569092   0.569092
    9        6.619375      6.619375  -0.013761  -0.013761
   10        6.891110      6.891110  -0.003007  -0.003007
   11        7.586880      7.586880  -0.000000  -0.000000
   12       10.842192     10.842192  -0.000000  -0.000000
   13       14.789422     14.789422   0.000000   0.000000
   14       20.050107     20.050107   0.000000   0.000000
   15       21.379605     21.379605   0.000000   0.000000
   16       25.704357     25.704357   0.000000   0.000000
 
  0.4375000E+00  0.3125000E+00  0.6250000E-01  0.9375000E-01
    1        1.628821      1.628821   1.000000   1.000000
    2        2.078878      2.078878   1.000000   1.000000
    3        3.645009      3.645009   1.000000   1.000000
    4        3.812774      3.812774   1.000000   1.000000
    5        4.234204      4.234204   1.000000   1.000000
    6        4.926328      4.926328   1.000000   1.000000
    7        5.913297      5.913297   1.000678   1.000678
    8        6.455039      6.455039   0.422168   0.422168
    9        6.787387      6.787387  -0.016254  -0.016254
   10        7.467939      7.467939  -0.000000  -0.000000
   11        7.598269      7.598269  -0.000000  -0.000000
   12        9.037589      9.037589  -0.000000  -0.000000
   13       15.664460     15.664460   0.000000   0.000000
   14       17.571587     17.571587   0.000000   0.000000
   15       22.991830     22.991830   0.000000   0.000000
   16       24.738554     24.738554   0.000000   0.000000
 
  0.4375000E+00  0.4375000E+00  0.6250000E-01  0.4687500E-01
    1        1.680671      1.680671   1.000000   1.000000
    2        1.811901      1.811901   1.000000   1.000000
    3        3.434018      3.434018   1.000000   1.000000
    4        3.493601      3.493601   1.000000   1.000000
    5        5.250320      5.250320   1.000000   1.000000
    6        5.752991      5.752991   1.000007   1.000007
    7        6.197733      6.197733   1.035307   1.035307
    8        6.590059      6.590059   0.018739   0.018739
    9        6.759420      6.759420  -0.022405  -0.022405
   10        7.575026      7.575026  -0.000000  -0.000000
   11        7.979117      7.979117  -0.000000  -0.000000
   12        8.602939      8.602939  -0.000000  -0.000000
   13       14.632160     14.632160   0.000000   0.000000
   14       15.465903     15.465903   0.000000   0.000000
   15       24.007101     24.007101   0.000000   0.000000
   16       24.751795     24.751795   0.000000   0.000000
 
  0.1875000E+00  0.1875000E+00  0.1875000E+00  0.1562500E-01
    1       -0.250771     -0.250771   1.000000   1.000000
    2        2.736687      2.736687   1.000000   1.000000
    3        2.736687      2.736687   1.000000   1.000000
    4        4.069841      4.069841   1.000000   1.000000
    5        4.069841      4.069841   1.000000   1.000000
    6        4.629223      4.629223   1.000000   1.000000
    7        6.312125      6.312125   0.929713   0.929713
    8        6.417926      6.417926   0.578459   0.578459
    9        6.417926      6.417926   0.578459   0.578459
   10        7.003835      7.003835  -0.000226  -0.000226
   11        7.003835      7.003835  -0.000226  -0.000226
   12       14.698859     14.698859   0.000000   0.000000
   13       14.698859     14.698859   0.000000   0.000000
   14       16.646641     16.646641   0.000000   0.000000
   15       25.578645     25.578645   0.000000   0.000000
   16       25.578645     25.578645   0.000000   0.000000
 
  0.3125000E+00  0.1875000E+00  0.1875000E+00  0.4687500E-01
    1        0.756514      0.756514   1.000000   1.000000
    2        2.988382      2.988382   1.000000   1.000000
    3        3.015903      3.015903   1.000000   1.000000
    4        3.874498      3.874498   1.000000   1.000000
    5        3.926976      3.926976   1.000000   1.000000
    6        4.184710      4.184710   1.000000   1.000000
    7        6.191939      6.191939   1.035457   1.035457
    8        6.493809      6.493809   0.268406   0.268406
    9        6.518801      6.518801   0.182482   0.182482
   10        6.934629      6.934629  -0.001209  -0.001209
   11        7.198064      7.198064  -0.000001  -0.000001
   12       11.882674     11.882674  -0.000000  -0.000000
   13       16.335060     16.335060   0.000000   0.000000
   14       17.507101     17.507101   0.000000   0.000000
   15       22.858794     22.858794   0.000000   0.000000
   16       23.886921     23.886921   0.000000   0.000000
 
  0.4375000E+00  0.1875000E+00  0.1875000E+00  0.4687500E-01
    1        1.815702      1.815702   1.000000   1.000000
    2        2.595864      2.595864   1.000000   1.000000
    3        3.295082      3.295082   1.000000   1.000000
    4        3.678044      3.678044   1.000000   1.000000
    5        4.038077      4.038077   1.000000   1.000000
    6        4.349275      4.349275   1.000000   1.000000
    7        5.951773      5.951773   1.001616   1.001616
    8        6.252539      6.252539   1.014724   1.014724
    9        6.339658      6.339658   0.861464   0.861464
   10        7.255745      7.255745  -0.000000  -0.000000
   11        7.869784      7.869784  -0.000000  -0.000000
   12        9.486388      9.486388  -0.000000  -0.000000
   13       18.270711     18.270711   0.000000   0.000000
   14       19.144620     19.144620   0.000000   0.000000
   15       20.446705     20.446705   0.000000   0.000000
   16       21.330971     21.330971   0.000000   0.000000
 
  0.3125000E+00  0.3125000E+00  0.1875000E+00  0.4687500E-01
    1        1.536409      1.536409   1.000000   1.000000
    2        2.813759      2.813759   1.000000   1.000000
    3        3.591629      3.591629   1.000000   1.000000
    4        3.680304      3.680304   1.000000   1.000000
    5        3.735760      3.735760   1.000000   1.000000
    6        3.874101      3.874101   1.000000   1.000000
    7        6.112442      6.112442   1.022117   1.022117
    8        6.462737      6.462737   0.390273   0.390273
    9        6.678089      6.678089  -0.035412  -0.035412
   10        7.225036      7.225036  -0.000000  -0.000000
   11        7.674459      7.674459  -0.000000  -0.000000
   12       12.039388     12.039388   0.000000   0.000000
   13       14.808961     14.808961   0.000000   0.000000
   14       18.115486     18.115486   0.000000   0.000000
   15       20.366618     20.366618   0.000000   0.000000
   16       23.526619     23.526619   0.000000   0.000000
 
  0.4375000E+00  0.3125000E+00  0.1875000E+00  0.9375000E-01
    1        2.111078      2.111078   1.000000   1.000000
    2        2.481335      2.481335   1.000000   1.000000
    3        3.479782      3.479782   1.000000   1.000000
    4        3.544504      3.544504   1.000000   1.000000
    5        3.995272      3.995272   1.000000   1.000000
    6        4.478049      4.478049   1.000000   1.000000
    7        5.988032      5.988032   1.003381   1.003381
    8        6.286775      6.286775   0.975799   0.975799
    9        6.692106      6.692106  -0.035056  -0.035056
   10        7.364123      7.364123  -0.000000  -0.000000
   11        8.645654      8.645654  -0.000000  -0.000000
   12       10.209576     10.209576  -0.000000  -0.000000
   13       15.857249     15.857249   0.000000   0.000000
   14       17.860738     17.860738   0.000000   0.000000
   15       19.633392     19.633392   0.000000   0.000000
   16       21.671177     21.671177   0.000000   0.000000
 
  0.4375000E+00  0.4375000E+00  0.1875000E+00  0.4687500E-01
    1        2.125310      2.125310   1.000000   1.000000
    2        2.256234      2.256234   1.000000   1.000000
    3        3.340557      3.340557   1.000000   1.000000
    4        3.375245      3.375245   1.000000   1.000000
    5        4.867876      4.867876   1.000000   1.000000
    6        4.965217      4.965217   1.000000   1.000000
    7        6.000899      6.000899   1.004310   1.004310
    8        6.058351      6.058351   1.011186   1.011186
    9        6.932690      6.932690  -0.001262  -0.001262
   10        7.460034      7.460034  -0.000000  -0.000000
   11        9.467662      9.467662  -0.000000  -0.000000
   12       10.257210     10.257210  -0.000000  -0.000000
   13       14.691713     14.691713   0.000000   0.000000
   14       15.645271     15.645271   0.000000   0.000000
   15       20.973453     20.973453   0.000000   0.000000
   16       22.355902     22.355902   0.000000   0.000000
 
  0.3125000E+00  0.3125000E+00  0.3125000E+00  0.1562500E-01
    1        2.354590      2.354590   1.000000   1.000000
    2        3.194546      3.194546   1.000000   1.000000
    3        3.414320      3.414320   1.000000   1.000000
    4        3.414320      3.414320   1.000000   1.000000
    5        3.595734      3.595734   1.000000   1.000000
    6        3.595734      3.595734   1.000000   1.000000
    7        6.187526      6.187526   1.035395   1.035395
    8        6.187526      6.187526   1.035395   1.035395
    9        7.065536      7.065536  -0.000041  -0.000041
   10        7.065536      7.065536  -0.000041  -0.000041
   11        8.671000      8.671000  -0.000000  -0.000000
   12       13.793882     13.793882   0.000000   0.000000
   13       13.793882     13.793882   0.000000   0.000000
   14       16.563387     16.563387   0.000000   0.000000
   15       20.760398     20.760398   0.000000   0.000000
   16       20.760398     20.760398   0.000000   0.000000
 
  0.4375000E+00  0.3125000E+00  0.3125000E+00  0.4687500E-01
    1        2.646050      2.646050   1.000000   1.000000
    2        2.996032      2.996032   1.000000   1.000000
    3        3.292693      3.292693   1.000000   1.000000
    4        3.518975      3.518975   1.000000   1.000000
    5        3.581936      3.581936   1.000000   1.000000
    6        4.182413      4.182413   1.000000   1.000000
    7        6.025458      6.025458   1.006655   1.006655
    8        6.041237      6.041237   1.008616   1.008616
    9        7.027122      7.027122  -0.000121  -0.000121
   10        7.360944      7.360944  -0.000000  -0.000000
   11        9.867707      9.867707  -0.000000  -0.000000
   12       11.593811     11.593811  -0.000000  -0.000000
   13       15.864316     15.864316   0.000000   0.000000
   14       17.351471     17.351471   0.000000   0.000000
   15       18.192837     18.192837   0.000000   0.000000
   16       19.129729     19.129729   0.000000   0.000000
 
  0.4375000E+00  0.4375000E+00  0.3125000E+00  0.4687500E-01
    1        2.691762      2.691762   1.000000   1.000000
    2        3.025284      3.025284   1.000000   1.000000
    3        3.226552      3.226552   1.000000   1.000000
    4        3.288538      3.288538   1.000000   1.000000
    5        4.193388      4.193388   1.000000   1.000000
    6        4.253973      4.253973   1.000000   1.000000
    7        5.890872      5.890872   1.000393   1.000393
    8        5.970523      5.970523   1.002390   1.002390
    9        7.221686      7.221686  -0.000000  -0.000000
   10        7.463150      7.463150  -0.000000  -0.000000
   11       11.157089     11.157089  -0.000000  -0.000000
   12       12.269448     12.269448   0.000000   0.000000
   13       14.858848     14.858848   0.000000   0.000000
   14       16.162685     16.162685   0.000000   0.000000
   15       18.139397     18.139397   0.000000   0.000000
   16       19.636997     19.636997   0.000000   0.000000
 
  0.4375000E+00  0.4375000E+00  0.4375000E+00  0.1562500E-01
    1        3.010407      3.010407   1.000000   1.000000
    2        3.169998      3.169998   1.000000   1.000000
    3        3.169998      3.169998   1.000000   1.000000
    4        3.822022      3.822022   1.000000   1.000000
    5        3.847177      3.847177   1.000000   1.000000
    6        3.847177      3.847177   1.000000   1.000000
    7        5.858712      5.858712   1.000171   1.000171
    8        5.858712      5.858712   1.000171   1.000171
    9        7.474573      7.474573  -0.000000  -0.000000
   10        7.474573      7.474573  -0.000000  -0.000000
   11       12.882621     12.882621   0.000000   0.000000
   12       14.530680     14.530680   0.000000   0.000000
   13       14.530680     14.530680   0.000000   0.000000
   14       16.660877     16.660877   0.000000   0.000000
   15       17.002492     17.002492   0.000000   0.000000
   16       17.002492     17.002492   0.000000   0.000000
