PROCAR lm decomposed
# of k-points:   20         # of bands:   16         # of ions:    2

 k-point     1 :    0.06250000 0.06250000 0.06250000     weight = 0.01562500

band     1 # energy   -2.08666040 # occ.  1.00000000
 
ion      s     py     pz     px    dxy    dyz    dz2    dxz  x2-y2    tot
    1  0.369  0.003  0.003  0.003  0.000  0.000  0.000  0.000  0.000  0.378
    2  0.381  0.003  0.003  0.003  0.000  0.000  0.000  0.000  0.000  0.391
tot    0.750  0.006  0.006  0.006  0.000  0.000  0.000  0.000  0.000  0.769
 
band     2 # energy    1.98965939 # occ.  1.00000000
 
ion      s     py     pz     px    dxy    dyz    dz2    dxz  x2-y2    tot
    1  0.000  0.002  0.000  0.002  0.000  0.000  0.000  0.000  0.295  0.299
    2  0.000  0.002  0.000  0.002  0.000  0.000  0.000  0.000  0.577  0.581
tot    0.000  0.004  0.000  0.004  0.000  0.000  0.000  0.000  0.872  0.880
 
band     3 # energy    1.98965939 # occ.  1.00000000
 
ion      s     py     pz     px    dxy    dyz    dz2    dxz  x2-y2    tot
    1  0.000  0.001  0.003  0.001  0.000  0.000  0.295  0.000  0.000  0.299
    2  0.000  0.001  0.003  0.001  0.000  0.000  0.577  0.000  0.000  0.581
tot    0.000  0.001  0.005  0.001  0.000  0.000  0.872  0.000  0.000  0.880
 
band     4 # energy    4.54719971 # occ.  1.00000000
 
ion      s     py     pz     px    dxy    dyz    dz2    dxz  x2-y2    tot
    1  0.000  0.000  0.000  0.000  0.000  0.155  0.000  0.157  0.001  0.314
    2  0.000  0.000  0.000  0.000  0.000  0.332  0.000  0.336  0.001  0.669
tot    0.000  0.000  0.000  0.000  0.000  0.488  0.000  0.493  0.001  0.983
 
band     5 # energy    4.54719971 # occ.  1.00000000
 
ion      s     py     pz     px    dxy    dyz    dz2    dxz  x2-y2    tot
    1  0.000  0.000  0.000  0.000  0.208  0.053  0.001  0.051  0.000  0.314
    2  0.000  0.000  0.000  0.000  0.446  0.113  0.001  0.109  0.000  0.669
tot    0.000  0.000  0.001  0.000  0.654  0.166  0.001  0.161  0.000  0.983
 
band     6 # energy    4.74801821 # occ.  1.00000000
 
ion      s     py     pz     px    dxy    dyz    dz2    dxz  x2-y2    tot
    1  0.000  0.001  0.001  0.001  0.092  0.092  0.000  0.092  0.000  0.278
    2  0.000  0.000  0.000  0.000  0.235  0.235  0.000  0.235  0.000  0.706
tot    0.000  0.001  0.001  0.001  0.327  0.327  0.000  0.327  0.000  0.984
 
band     7 # energy    6.46653066 # occ.  0.37474026
 
ion      s     py     pz     px    dxy    dyz    dz2    dxz  x2-y2    tot
    1  0.000  0.000  0.000  0.000  0.000  0.000  0.000  0.001  0.609  0.611
    2  0.000  0.000  0.000  0.000  0.000  0.000  0.000  0.000  0.353  0.354
tot    0.000  0.000  0.000  0.000  0.000  0.001  0.000  0.001  0.963  0.965
 
band     8 # energy    6.46653066 # occ.  0.37474026
 
ion      s     py     pz     px    dxy    dyz    dz2    dxz  x2-y2    tot
    1  0.000  0.000  0.000  0.000  0.001  0.000  0.609  0.000  0.000  0.611
    2  0.000  0.000  0.000  0.000  0.000  0.000  0.353  0.000  0.000  0.354
tot    0.000  0.000  0.000  0.000  0.001  0.000  0.963  0.000  0.000  0.965
 
band     9 # energy    7.10333301 # occ. -0.00001280
 
ion      s     py     pz     px    dxy    dyz    dz2    dxz  x2-y2    tot
    1  0.001  0.002  0.002  0.002  0.231  0.231  0.000  0.231  0.000  0.701
    2  0.001  0.003  0.003  0.003  0.089  0.089  0.000  0.089  0.000  0.277
tot    0.001  0.006  0.006  0.006  0.320  0.320  0.000  0.320  0.000  0.979
 
band    10 # energy    7.42824395 # occ. -0.00000000
 
ion      s     py     pz     px    dxy    dyz    dz2    dxz  x2-y2    tot
    1  0.000  0.001  0.000  0.001  0.000  0.342  0.000  0.325  0.001  0.670
    2  0.000  0.001  0.000  0.002  0.000  0.161  0.000  0.153  0.000  0.317
tot    0.000  0.002  0.000  0.003  0.000  0.502  0.000  0.478  0.001  0.987
 
band    11 # energy    7.42824395 # occ. -0.00000000
 
ion      s     py     pz     px    dxy    dyz    dz2    dxz  x2-y2    tot
    1  0.000  0.000  0.001  0.000  0.444  0.103  0.001  0.119  0.000  0.670
    2  0.000  0.001  0.002  0.000  0.209  0.048  0.000  0.056  0.000  0.317
tot    0.000  0.001  0.003  0.001  0.653  0.152  0.001  0.176  0.000  0.987
 
band    12 # energy   16.27080819 # occ.  0.00000000
 
ion      s     py     pz     px    dxy    dyz    dz2    dxz  x2-y2    tot
    1  0.000  0.104  0.030  0.216  0.001  0.005  0.005  0.002  0.036  0.399
    2  0.000  0.108  0.031  0.226  0.001  0.004  0.005  0.002  0.032  0.409
tot    0.000  0.212  0.061  0.442  0.001  0.009  0.010  0.004  0.068  0.807
 
band    13 # energy   16.27080819 # occ.  0.00000000
 
ion      s     py     pz     px    dxy    dyz    dz2    dxz  x2-y2    tot
    1  0.000  0.129  0.203  0.017  0.004  0.000  0.036  0.003  0.005  0.399
    2  0.000  0.135  0.212  0.018  0.004  0.000  0.032  0.003  0.005  0.409
tot    0.000  0.265  0.415  0.035  0.008  0.001  0.068  0.005  0.010  0.807
 
band    14 # energy   16.65806749 # occ.  0.00000000
 
ion      s     py     pz     px    dxy    dyz    dz2    dxz  x2-y2    tot
    1  0.044  0.106  0.106  0.106  0.009  0.009  0.000  0.009  0.000  0.389
    2  0.043  0.111  0.111  0.111  0.008  0.008  0.000  0.008  0.000  0.401
tot    0.087  0.217  0.217  0.217  0.018  0.018  0.000  0.018  0.000  0.791
 
band    15 # energy   23.51129499 # occ.  0.00000000
 
ion      s     py     pz     px    dxy    dyz    dz2    dxz  x2-y2    tot
    1  0.000  0.007  0.013  0.001  0.000  0.000  0.408  0.000  0.033  0.462
    2  0.000  0.007  0.013  0.001  0.000  0.000  0.435  0.000  0.035  0.491
tot    0.000  0.015  0.027  0.002  0.001  0.000  0.843  0.000  0.067  0.954
 
band    16 # energy   23.51129499 # occ.  0.00000000
 
ion      s     py     pz     px    dxy    dyz    dz2    dxz  x2-y2    tot
    1  0.000  0.007  0.001  0.013  0.000  0.000  0.033  0.000  0.408  0.462
    2  0.000  0.007  0.001  0.013  0.000  0.000  0.035  0.000  0.435  0.491
tot    0.000  0.014  0.002  0.027  0.000  0.001  0.067  0.000  0.843  0.954
 

 k-point     2 :    0.18750000 0.06250000 0.06250000     weight = 0.04687500

band     1 # energy   -1.44025009 # occ.  1.00000000
 
ion      s     py     pz     px    dxy    dyz    dz2    dxz  x2-y2    tot
    1  0.343  0.003  0.003  0.027  0.001  0.000  0.000  0.001  0.001  0.378
    2  0.357  0.003  0.003  0.026  0.001  0.000  0.000  0.001  0.001  0.392
tot    0.700  0.006  0.006  0.053  0.001  0.000  0.001  0.001  0.002  0.770
 
band     2 # energy    2.24394502 # occ.  1.00000000
 
ion      s     py     pz     px    dxy    dyz    dz2    dxz  x2-y2    tot
    1  0.003  0.001  0.001  0.022  0.000  0.000  0.068  0.000  0.205  0.300
    2  0.001  0.001  0.001  0.025  0.001  0.000  0.137  0.001  0.411  0.576
tot    0.005  0.001  0.001  0.047  0.001  0.000  0.205  0.001  0.616  0.877
 
band     3 # energy    2.26515582 # occ.  1.00000000
 
ion      s     py     pz     px    dxy    dyz    dz2    dxz  x2-y2    tot
    1  0.000  0.002  0.002  0.000  0.001  0.000  0.205  0.001  0.068  0.279
    2  0.000  0.002  0.002  0.000  0.001  0.000  0.449  0.001  0.150  0.604
tot    0.000  0.004  0.004  0.000  0.002  0.000  0.653  0.002  0.218  0.882
 
band     4 # energy    4.44383249 # occ.  1.00000000
 
ion      s     py     pz     px    dxy    dyz    dz2    dxz  x2-y2    tot
    1  0.000  0.001  0.001  0.001  0.089  0.128  0.000  0.089  0.001  0.311
    2  0.000  0.000  0.000  0.000  0.211  0.244  0.000  0.211  0.001  0.668
tot    0.000  0.001  0.001  0.002  0.300  0.372  0.001  0.300  0.002  0.979
 
band     5 # energy    4.50248372 # occ.  1.00000000
 
ion      s     py     pz     px    dxy    dyz    dz2    dxz  x2-y2    tot
    1  0.000  0.003  0.003  0.000  0.137  0.000  0.007  0.137  0.002  0.288
    2  0.000  0.001  0.001  0.000  0.340  0.000  0.005  0.340  0.002  0.688
tot    0.000  0.004  0.004  0.000  0.477  0.000  0.012  0.477  0.004  0.976
 
band     6 # energy    4.97329481 # occ.  1.00000000
 
ion      s     py     pz     px    dxy    dyz    dz2    dxz  x2-y2    tot
    1  0.000  0.003  0.003  0.001  0.027  0.128  0.000  0.027  0.000  0.188
    2  0.001  0.000  0.000  0.000  0.157  0.476  0.000  0.157  0.000  0.792
tot    0.001  0.003  0.003  0.001  0.184  0.604  0.000  0.184  0.000  0.980
 
band     7 # energy    6.18817698 # occ.  1.03541356
 
ion      s     py     pz     px    dxy    dyz    dz2    dxz  x2-y2    tot
    1  0.000  0.000  0.000  0.000  0.005  0.000  0.462  0.005  0.154  0.626
    2  0.000  0.000  0.000  0.000  0.005  0.000  0.238  0.005  0.079  0.327
tot    0.000  0.000  0.000  0.000  0.009  0.000  0.701  0.009  0.234  0.954
 
band     8 # energy    6.50654863 # occ.  0.22299104
 
ion      s     py     pz     px    dxy    dyz    dz2    dxz  x2-y2    tot
    1  0.003  0.004  0.004  0.002  0.271  0.192  0.005  0.271  0.015  0.768
    2  0.003  0.009  0.009  0.004  0.060  0.029  0.007  0.060  0.021  0.200
tot    0.006  0.012  0.012  0.006  0.331  0.221  0.012  0.331  0.036  0.968
 
band     9 # energy    6.59851027 # occ.  0.00749687
 
ion      s     py     pz     px    dxy    dyz    dz2    dxz  x2-y2    tot
    1  0.000  0.001  0.001  0.003  0.008  0.020  0.143  0.008  0.429  0.612
    2  0.001  0.001  0.001  0.001  0.007  0.001  0.085  0.007  0.254  0.357
tot    0.001  0.001  0.001  0.003  0.015  0.021  0.228  0.015  0.684  0.969
 
band    10 # energy    6.89735787 # occ. -0.00265677
 
ion      s     py     pz     px    dxy    dyz    dz2    dxz  x2-y2    tot
    1  0.000  0.006  0.006  0.000  0.334  0.000  0.004  0.334  0.001  0.685
    2  0.000  0.009  0.009  0.000  0.134  0.000  0.002  0.134  0.001  0.288
tot    0.000  0.015  0.015  0.000  0.468  0.000  0.006  0.468  0.002  0.974
 
band    11 # energy    7.39276563 # occ. -0.00000000
 
ion      s     py     pz     px    dxy    dyz    dz2    dxz  x2-y2    tot
    1  0.000  0.000  0.000  0.001  0.078  0.511  0.001  0.078  0.003  0.671
    2  0.000  0.000  0.000  0.002  0.042  0.228  0.000  0.042  0.000  0.315
tot    0.001  0.000  0.000  0.002  0.120  0.739  0.001  0.120  0.003  0.986
 
band    12 # energy   13.51137377 # occ.  0.00000000
 
ion      s     py     pz     px    dxy    dyz    dz2    dxz  x2-y2    tot
    1  0.059  0.005  0.005  0.242  0.005  0.000  0.029  0.005  0.087  0.435
    2  0.058  0.005  0.005  0.256  0.004  0.000  0.021  0.004  0.062  0.414
tot    0.117  0.009  0.009  0.497  0.009  0.001  0.050  0.009  0.149  0.849
 
band    13 # energy   17.43142065 # occ.  0.00000000
 
ion      s     py     pz     px    dxy    dyz    dz2    dxz  x2-y2    tot
    1  0.000  0.158  0.158  0.000  0.026  0.000  0.037  0.026  0.012  0.417
    2  0.000  0.165  0.165  0.000  0.024  0.000  0.035  0.024  0.012  0.426
tot    0.000  0.324  0.324  0.000  0.050  0.000  0.071  0.050  0.024  0.843
 
band    14 # energy   17.70266923 # occ.  0.00000000
 
ion      s     py     pz     px    dxy    dyz    dz2    dxz  x2-y2    tot
    1  0.043  0.147  0.147  0.000  0.027  0.010  0.001  0.027  0.004  0.406
    2  0.042  0.153  0.153  0.000  0.026  0.009  0.001  0.026  0.004  0.415
tot    0.085  0.300  0.300  0.000  0.052  0.018  0.003  0.052  0.008  0.821
 
band    15 # energy   23.76275796 # occ.  0.00000000
 
ion      s     py     pz     px    dxy    dyz    dz2    dxz  x2-y2    tot
    1  0.000  0.014  0.014  0.000  0.002  0.000  0.302  0.002  0.101  0.435
    2  0.000  0.013  0.013  0.000  0.003  0.000  0.343  0.003  0.114  0.490
tot    0.000  0.027  0.027  0.000  0.005  0.000  0.645  0.005  0.215  0.925
 
band    16 # energy   25.23972155 # occ.  0.00000000
 
ion      s     py     pz     px    dxy    dyz    dz2    dxz  x2-y2    tot
    1  0.054  0.011  0.011  0.005  0.000  0.000  0.080  0.000  0.239  0.400
    2  0.052  0.012  0.012  0.004  0.000  0.001  0.086  0.000  0.259  0.425
tot    0.106  0.023  0.023  0.009  0.000  0.001  0.166  0.000  0.498  0.825
 

 k-point     3 :    0.31250000 0.06250000 0.06250000     weight = 0.04687500

band     1 # energy   -0.25845900 # occ.  1.00000000
 
ion      s     py     pz     px    dxy    dyz    dz2    dxz  x2-y2    tot
    1  0.287  0.002  0.002  0.070  0.002  0.000  0.002  0.002  0.006  0.375
    2  0.307  0.002  0.002  0.064  0.003  0.000  0.005  0.003  0.014  0.400
tot    0.594  0.005  0.005  0.134  0.005  0.000  0.007  0.005  0.020  0.775
 
band     2 # energy    2.50673991 # occ.  1.00000000
 
ion      s     py     pz     px    dxy    dyz    dz2    dxz  x2-y2    tot
    1  0.033  0.001  0.001  0.054  0.002  0.000  0.057  0.002  0.172  0.321
    2  0.014  0.000  0.000  0.071  0.004  0.000  0.112  0.004  0.335  0.541
tot    0.047  0.001  0.001  0.125  0.006  0.000  0.169  0.006  0.507  0.862
 
band     3 # energy    2.75820944 # occ.  1.00000000
 
ion      s     py     pz     px    dxy    dyz    dz2    dxz  x2-y2    tot
    1  0.000  0.002  0.002  0.000  0.004  0.000  0.159  0.004  0.053  0.223
    2  0.000  0.002  0.002  0.000  0.002  0.000  0.493  0.002  0.164  0.667
tot    0.000  0.004  0.004  0.000  0.006  0.000  0.652  0.006  0.217  0.889
 
band     4 # energy    4.43548162 # occ.  1.00000000
 
ion      s     py     pz     px    dxy    dyz    dz2    dxz  x2-y2    tot
    1  0.000  0.005  0.005  0.002  0.079  0.096  0.000  0.079  0.000  0.267
    2  0.002  0.001  0.001  0.002  0.274  0.148  0.001  0.274  0.002  0.704
tot    0.002  0.005  0.005  0.004  0.353  0.244  0.001  0.353  0.002  0.970
 
band     5 # energy    4.44388041 # occ.  1.00000000
 
ion      s     py     pz     px    dxy    dyz    dz2    dxz  x2-y2    tot
    1  0.000  0.009  0.009  0.000  0.090  0.000  0.035  0.090  0.012  0.242
    2  0.000  0.001  0.001  0.000  0.347  0.000  0.018  0.347  0.006  0.721
tot    0.000  0.010  0.010  0.000  0.437  0.000  0.053  0.437  0.018  0.963
 
band     6 # energy    5.14463689 # occ.  1.00000000
 
ion      s     py     pz     px    dxy    dyz    dz2    dxz  x2-y2    tot
    1  0.000  0.006  0.006  0.000  0.008  0.040  0.000  0.008  0.001  0.070
    2  0.002  0.001  0.001  0.000  0.141  0.612  0.001  0.141  0.003  0.901
tot    0.003  0.007  0.007  0.000  0.149  0.651  0.001  0.149  0.004  0.972
 
band     7 # energy    5.71757092 # occ.  1.00000229
 
ion      s     py     pz     px    dxy    dyz    dz2    dxz  x2-y2    tot
    1  0.000  0.000  0.000  0.000  0.012  0.000  0.475  0.012  0.158  0.657
    2  0.000  0.000  0.000  0.000  0.028  0.000  0.168  0.028  0.056  0.280
tot    0.000  0.000  0.000  0.000  0.040  0.000  0.643  0.040  0.214  0.937
 
band     8 # energy    6.02901075 # occ.  1.00706341
 
ion      s     py     pz     px    dxy    dyz    dz2    dxz  x2-y2    tot
    1  0.004  0.001  0.001  0.000  0.320  0.228  0.000  0.320  0.000  0.874
    2  0.003  0.012  0.012  0.002  0.010  0.022  0.005  0.010  0.015  0.092
tot    0.007  0.014  0.014  0.002  0.330  0.250  0.005  0.330  0.015  0.967
 
band     9 # energy    6.22206196 # occ.  1.03110593
 
ion      s     py     pz     px    dxy    dyz    dz2    dxz  x2-y2    tot
    1  0.000  0.006  0.006  0.000  0.360  0.000  0.007  0.360  0.002  0.741
    2  0.000  0.015  0.015  0.000  0.092  0.000  0.007  0.092  0.002  0.224
tot    0.000  0.021  0.021  0.000  0.452  0.000  0.014  0.452  0.005  0.965
 
band    10 # energy    6.76964599 # occ. -0.02007672
 
ion      s     py     pz     px    dxy    dyz    dz2    dxz  x2-y2    tot
    1  0.001  0.000  0.000  0.017  0.000  0.036  0.121  0.000  0.362  0.537
    2  0.020  0.001  0.001  0.002  0.000  0.004  0.102  0.000  0.305  0.435
tot    0.021  0.001  0.001  0.020  0.000  0.040  0.222  0.000  0.667  0.972
 
band    11 # energy    7.12461756 # occ. -0.00000646
 
ion      s     py     pz     px    dxy    dyz    dz2    dxz  x2-y2    tot
    1  0.001  0.001  0.001  0.000  0.050  0.577  0.008  0.050  0.025  0.714
    2  0.000  0.001  0.001  0.000  0.035  0.193  0.001  0.035  0.002  0.268
tot    0.001  0.001  0.001  0.000  0.085  0.770  0.009  0.085  0.027  0.982
 
band    12 # energy   10.58547999 # occ. -0.00000000
 
ion      s     py     pz     px    dxy    dyz    dz2    dxz  x2-y2    tot
    1  0.100  0.003  0.003  0.149  0.006  0.001  0.061  0.006  0.182  0.513
    2  0.089  0.004  0.004  0.166  0.004  0.001  0.026  0.004  0.079  0.375
tot    0.188  0.007  0.007  0.315  0.011  0.002  0.087  0.011  0.261  0.888
 
band    13 # energy   19.30540695 # occ.  0.00000000
 
ion      s     py     pz     px    dxy    dyz    dz2    dxz  x2-y2    tot
    1  0.000  0.132  0.132  0.000  0.052  0.000  0.052  0.052  0.017  0.437
    2  0.000  0.139  0.139  0.000  0.049  0.000  0.057  0.049  0.019  0.452
tot    0.000  0.271  0.271  0.000  0.101  0.000  0.109  0.101  0.036  0.889
 
band    14 # energy   19.58701871 # occ.  0.00000000
 
ion      s     py     pz     px    dxy    dyz    dz2    dxz  x2-y2    tot
    1  0.048  0.127  0.127  0.003  0.054  0.006  0.002  0.054  0.005  0.424
    2  0.047  0.132  0.132  0.003  0.053  0.005  0.002  0.053  0.005  0.432
tot    0.094  0.258  0.258  0.007  0.107  0.011  0.003  0.107  0.010  0.856
 
band    15 # energy   24.34043956 # occ.  0.00000000
 
ion      s     py     pz     px    dxy    dyz    dz2    dxz  x2-y2    tot
    1  0.000  0.027  0.027  0.000  0.005  0.000  0.212  0.005  0.071  0.348
    2  0.000  0.016  0.016  0.000  0.016  0.000  0.345  0.016  0.115  0.523
tot    0.000  0.043  0.043  0.000  0.021  0.000  0.557  0.021  0.186  0.872
 
band    16 # energy   25.66384151 # occ.  0.00000000
 
ion      s     py     pz     px    dxy    dyz    dz2    dxz  x2-y2    tot
    1  0.000  0.025  0.025  0.000  0.052  0.000  0.208  0.052  0.069  0.430
    2  0.000  0.035  0.035  0.000  0.044  0.000  0.089  0.044  0.030  0.277
tot    0.000  0.060  0.060  0.000  0.096  0.000  0.297  0.096  0.099  0.707
 

 k-point     4 :    0.43750000 0.06250000 0.06250000     weight = 0.04687500

band     1 # energy    1.14986445 # occ.  1.00000000
 
ion      s     py     pz     px    dxy    dyz    dz2    dxz  x2-y2    tot
    1  0.165  0.001  0.001  0.131  0.006  0.000  0.007  0.006  0.022  0.339
    2  0.247  0.002  0.002  0.077  0.005  0.000  0.028  0.005  0.085  0.451
tot    0.412  0.003  0.003  0.208  0.011  0.000  0.036  0.011  0.107  0.791
 
band     2 # energy    2.28355557 # occ.  1.00000000
 
ion      s     py     pz     px    dxy    dyz    dz2    dxz  x2-y2    tot
    1  0.153  0.001  0.001  0.067  0.003  0.000  0.042  0.003  0.126  0.397
    2  0.050  0.000  0.000  0.146  0.015  0.000  0.050  0.015  0.150  0.426
tot    0.203  0.001  0.001  0.213  0.018  0.000  0.092  0.018  0.276  0.823
 
band     3 # energy    3.28722909 # occ.  1.00000000
 
ion      s     py     pz     px    dxy    dyz    dz2    dxz  x2-y2    tot
    1  0.000  0.001  0.001  0.000  0.013  0.000  0.046  0.013  0.015  0.088
    2  0.000  0.003  0.003  0.000  0.002  0.000  0.603  0.002  0.201  0.814
tot    0.000  0.003  0.003  0.000  0.015  0.000  0.649  0.015  0.216  0.902
 
band     4 # energy    4.34314664 # occ.  1.00000000
 
ion      s     py     pz     px    dxy    dyz    dz2    dxz  x2-y2    tot
    1  0.000  0.015  0.015  0.000  0.017  0.000  0.164  0.017  0.055  0.281
    2  0.000  0.000  0.000  0.000  0.315  0.000  0.020  0.315  0.007  0.658
tot    0.000  0.015  0.015  0.000  0.332  0.000  0.183  0.332  0.061  0.939
 
band     5 # energy    4.56013867 # occ.  1.00000000
 
ion      s     py     pz     px    dxy    dyz    dz2    dxz  x2-y2    tot
    1  0.002  0.013  0.013  0.001  0.027  0.085  0.003  0.027  0.008  0.179
    2  0.001  0.001  0.001  0.011  0.358  0.049  0.000  0.358  0.001  0.780
tot    0.004  0.013  0.013  0.012  0.386  0.133  0.003  0.386  0.009  0.960
 
band     6 # energy    5.01471386 # occ.  1.00000000
 
ion      s     py     pz     px    dxy    dyz    dz2    dxz  x2-y2    tot
    1  0.000  0.003  0.003  0.001  0.139  0.000  0.001  0.139  0.002  0.288
    2  0.001  0.006  0.006  0.001  0.048  0.555  0.003  0.048  0.010  0.677
tot    0.001  0.009  0.009  0.002  0.187  0.555  0.004  0.187  0.013  0.966
 
band     7 # energy    5.31019520 # occ.  1.00000000
 
ion      s     py     pz     px    dxy    dyz    dz2    dxz  x2-y2    tot
    1  0.000  0.002  0.002  0.000  0.007  0.000  0.460  0.007  0.153  0.630
    2  0.000  0.000  0.000  0.000  0.127  0.000  0.034  0.127  0.011  0.299
tot    0.000  0.002  0.002  0.000  0.133  0.000  0.494  0.133  0.165  0.929
 
band     8 # energy    5.74910663 # occ.  1.00000659
 
ion      s     py     pz     px    dxy    dyz    dz2    dxz  x2-y2    tot
    1  0.000  0.001  0.001  0.000  0.424  0.000  0.002  0.424  0.001  0.854
    2  0.000  0.018  0.018  0.000  0.020  0.000  0.025  0.020  0.008  0.110
tot    0.000  0.019  0.019  0.000  0.445  0.000  0.027  0.445  0.009  0.964
 
band     9 # energy    6.07473625 # occ.  1.01408380
 
ion      s     py     pz     px    dxy    dyz    dz2    dxz  x2-y2    tot
    1  0.001  0.000  0.000  0.000  0.248  0.083  0.000  0.248  0.001  0.581
    2  0.005  0.009  0.009  0.001  0.001  0.302  0.016  0.001  0.049  0.392
tot    0.006  0.009  0.009  0.001  0.249  0.385  0.017  0.249  0.050  0.973
 
band    10 # energy    6.74947135 # occ. -0.02470590
 
ion      s     py     pz     px    dxy    dyz    dz2    dxz  x2-y2    tot
    1  0.000  0.001  0.001  0.009  0.004  0.747  0.001  0.004  0.002  0.768
    2  0.016  0.000  0.000  0.000  0.030  0.040  0.023  0.030  0.069  0.208
tot    0.016  0.001  0.001  0.009  0.034  0.787  0.024  0.034  0.071  0.976
 
band    11 # energy    6.96644895 # occ. -0.00057878
 
ion      s     py     pz     px    dxy    dyz    dz2    dxz  x2-y2    tot
    1  0.001  0.000  0.000  0.057  0.032  0.059  0.042  0.032  0.125  0.349
    2  0.085  0.005  0.005  0.001  0.007  0.031  0.118  0.007  0.353  0.610
tot    0.086  0.005  0.005  0.058  0.038  0.090  0.160  0.038  0.479  0.959
 
band    12 # energy    8.60797162 # occ. -0.00000000
 
ion      s     py     pz     px    dxy    dyz    dz2    dxz  x2-y2    tot
    1  0.107  0.002  0.002  0.034  0.004  0.002  0.155  0.004  0.465  0.775
    2  0.035  0.001  0.001  0.078  0.003  0.001  0.012  0.003  0.037  0.172
tot    0.142  0.004  0.004  0.112  0.007  0.003  0.167  0.007  0.502  0.947
 
band    13 # energy   21.42806779 # occ.  0.00000000
 
ion      s     py     pz     px    dxy    dyz    dz2    dxz  x2-y2    tot
    1  0.000  0.089  0.089  0.000  0.071  0.000  0.077  0.071  0.026  0.421
    2  0.000  0.107  0.107  0.000  0.059  0.000  0.114  0.059  0.038  0.484
tot    0.000  0.195  0.195  0.000  0.129  0.000  0.192  0.129  0.064  0.905
 
band    14 # energy   21.90066015 # occ.  0.00000000
 
ion      s     py     pz     px    dxy    dyz    dz2    dxz  x2-y2    tot
    1  0.053  0.097  0.097  0.017  0.078  0.003  0.001  0.078  0.003  0.430
    2  0.053  0.103  0.103  0.017  0.078  0.003  0.001  0.078  0.004  0.440
tot    0.107  0.201  0.201  0.034  0.157  0.007  0.002  0.157  0.007  0.870
 
band    15 # energy   23.52199163 # occ.  0.00000000
 
ion      s     py     pz     px    dxy    dyz    dz2    dxz  x2-y2    tot
    1  0.000  0.075  0.075  0.000  0.044  0.000  0.127  0.044  0.042  0.407
    2  0.000  0.040  0.040  0.000  0.077  0.000  0.150  0.077  0.050  0.435
tot    0.000  0.115  0.115  0.000  0.121  0.000  0.277  0.121  0.092  0.843
 
band    16 # energy   24.46785356 # occ.  0.00000000
 
ion      s     py     pz     px    dxy    dyz    dz2    dxz  x2-y2    tot
    1  0.053  0.066  0.066  0.043  0.093  0.003  0.000  0.093  0.000  0.417
    2  0.048  0.068  0.068  0.044  0.098  0.002  0.000  0.098  0.000  0.427
tot    0.101  0.134  0.134  0.087  0.192  0.005  0.000  0.192  0.000  0.844
 

 k-point     5 :    0.18750000 0.18750000 0.06250000     weight = 0.04687500

band     1 # energy   -0.83495720 # occ.  1.00000000
 
ion      s     py     pz     px    dxy    dyz    dz2    dxz  x2-y2    tot
    1  0.319  0.024  0.003  0.024  0.007  0.000  0.001  0.000  0.000  0.379
    2  0.331  0.024  0.003  0.024  0.008  0.001  0.002  0.001  0.000  0.394
tot    0.650  0.049  0.006  0.049  0.014  0.001  0.004  0.001  0.000  0.773
 
band     2 # energy    2.42530890 # occ.  1.00000000
 
ion      s     py     pz     px    dxy    dyz    dz2    dxz  x2-y2    tot
    1  0.004  0.005  0.002  0.005  0.014  0.000  0.249  0.000  0.000  0.280
    2  0.002  0.007  0.003  0.007  0.015  0.000  0.569  0.000  0.000  0.602
tot    0.006  0.012  0.005  0.012  0.029  0.000  0.818  0.000  0.000  0.882
 
band     3 # energy    2.56915160 # occ.  1.00000000
 
ion      s     py     pz     px    dxy    dyz    dz2    dxz  x2-y2    tot
    1  0.000  0.016  0.000  0.016  0.000  0.001  0.000  0.001  0.253  0.287
    2  0.000  0.017  0.000  0.017  0.000  0.001  0.000  0.001  0.556  0.592
tot    0.000  0.033  0.000  0.033  0.000  0.002  0.000  0.002  0.809  0.879
 
band     4 # energy    4.19770793 # occ.  1.00000000
 
ion      s     py     pz     px    dxy    dyz    dz2    dxz  x2-y2    tot
    1  0.000  0.001  0.000  0.001  0.000  0.166  0.000  0.166  0.003  0.336
    2  0.000  0.000  0.000  0.000  0.000  0.318  0.000  0.318  0.003  0.639
tot    0.000  0.001  0.000  0.001  0.000  0.484  0.000  0.484  0.005  0.975
 
band     5 # energy    4.36956507 # occ.  1.00000000
 
ion      s     py     pz     px    dxy    dyz    dz2    dxz  x2-y2    tot
    1  0.000  0.008  0.001  0.008  0.193  0.014  0.030  0.014  0.000  0.269
    2  0.004  0.002  0.000  0.002  0.599  0.027  0.034  0.027  0.000  0.694
tot    0.004  0.010  0.001  0.010  0.792  0.041  0.064  0.041  0.000  0.963
 
band     6 # energy    5.10379582 # occ.  1.00000000
 
ion      s     py     pz     px    dxy    dyz    dz2    dxz  x2-y2    tot
    1  0.001  0.003  0.014  0.003  0.006  0.000  0.000  0.000  0.000  0.028
    2  0.005  0.000  0.001  0.000  0.090  0.421  0.002  0.421  0.000  0.941
tot    0.006  0.003  0.015  0.003  0.096  0.421  0.002  0.421  0.000  0.969
 
band     7 # energy    6.09064382 # occ.  1.01727780
 
ion      s     py     pz     px    dxy    dyz    dz2    dxz  x2-y2    tot
    1  0.008  0.000  0.000  0.000  0.261  0.324  0.000  0.324  0.000  0.919
    2  0.003  0.007  0.012  0.007  0.005  0.003  0.009  0.003  0.000  0.048
tot    0.011  0.007  0.013  0.007  0.266  0.327  0.009  0.327  0.000  0.968
 
band     8 # energy    6.26635647 # occ.  1.00197043
 
ion      s     py     pz     px    dxy    dyz    dz2    dxz  x2-y2    tot
    1  0.000  0.001  0.001  0.001  0.052  0.018  0.543  0.018  0.000  0.632
    2  0.001  0.001  0.002  0.001  0.023  0.000  0.302  0.000  0.000  0.329
tot    0.001  0.001  0.002  0.001  0.075  0.018  0.845  0.018  0.000  0.961
 
band     9 # energy    6.52891807 # occ.  0.15159832
 
ion      s     py     pz     px    dxy    dyz    dz2    dxz  x2-y2    tot
    1  0.000  0.002  0.000  0.002  0.000  0.004  0.000  0.004  0.597  0.610
    2  0.000  0.001  0.000  0.001  0.000  0.001  0.000  0.001  0.352  0.356
tot    0.000  0.004  0.000  0.004  0.000  0.005  0.000  0.005  0.949  0.966
 
band    10 # energy    6.57564941 # occ.  0.04172210
 
ion      s     py     pz     px    dxy    dyz    dz2    dxz  x2-y2    tot
    1  0.004  0.003  0.004  0.003  0.383  0.115  0.073  0.115  0.000  0.701
    2  0.003  0.006  0.008  0.006  0.190  0.024  0.002  0.024  0.000  0.265
tot    0.007  0.009  0.012  0.009  0.574  0.140  0.076  0.140  0.000  0.966
 
band    11 # energy    7.49432332 # occ. -0.00000000
 
ion      s     py     pz     px    dxy    dyz    dz2    dxz  x2-y2    tot
    1  0.000  0.001  0.000  0.001  0.000  0.316  0.000  0.316  0.010  0.644
    2  0.000  0.002  0.000  0.002  0.000  0.170  0.000  0.170  0.001  0.344
tot    0.000  0.003  0.000  0.003  0.000  0.485  0.000  0.485  0.012  0.988
 
band    12 # energy   13.65904391 # occ.  0.00000000
 
ion      s     py     pz     px    dxy    dyz    dz2    dxz  x2-y2    tot
    1  0.000  0.145  0.000  0.145  0.000  0.005  0.000  0.005  0.145  0.445
    2  0.000  0.153  0.000  0.153  0.000  0.004  0.000  0.004  0.107  0.420
tot    0.000  0.298  0.000  0.298  0.000  0.009  0.000  0.009  0.251  0.865
 
band    13 # energy   15.36734608 # occ.  0.00000000
 
ion      s     py     pz     px    dxy    dyz    dz2    dxz  x2-y2    tot
    1  0.122  0.078  0.008  0.078  0.094  0.000  0.062  0.000  0.000  0.441
    2  0.120  0.082  0.008  0.082  0.083  0.000  0.052  0.000  0.000  0.429
tot    0.242  0.160  0.016  0.160  0.177  0.000  0.114  0.000  0.000  0.870
 
band    14 # energy   18.51776664 # occ.  0.00000000
 
ion      s     py     pz     px    dxy    dyz    dz2    dxz  x2-y2    tot
    1  0.032  0.000  0.282  0.000  0.001  0.039  0.023  0.039  0.000  0.417
    2  0.032  0.000  0.295  0.000  0.001  0.037  0.024  0.037  0.000  0.425
tot    0.064  0.000  0.576  0.000  0.001  0.077  0.047  0.077  0.000  0.842
 
band    15 # energy   24.61987678 # occ.  0.00000000
 
ion      s     py     pz     px    dxy    dyz    dz2    dxz  x2-y2    tot
    1  0.035  0.001  0.035  0.001  0.000  0.002  0.286  0.002  0.000  0.363
    2  0.026  0.000  0.030  0.000  0.012  0.003  0.398  0.003  0.000  0.474
tot    0.061  0.001  0.065  0.001  0.013  0.005  0.685  0.005  0.000  0.836
 
band    16 # energy   25.74126742 # occ.  0.00000000
 
ion      s     py     pz     px    dxy    dyz    dz2    dxz  x2-y2    tot
    1  0.008  0.041  0.003  0.041  0.153  0.003  0.156  0.003  0.000  0.409
    2  0.017  0.040  0.008  0.040  0.149  0.002  0.060  0.002  0.000  0.318
tot    0.026  0.081  0.010  0.081  0.303  0.004  0.217  0.004  0.000  0.726
 

 k-point     6 :    0.31250000 0.18750000 0.06250000     weight = 0.09375000

band     1 # energy    0.23693499 # occ.  1.00000000
 
ion      s     py     pz     px    dxy    dyz    dz2    dxz  x2-y2    tot
    1  0.262  0.018  0.002  0.060  0.024  0.000  0.006  0.002  0.003  0.377
    2  0.279  0.019  0.003  0.056  0.028  0.000  0.014  0.002  0.006  0.406
tot    0.541  0.037  0.005  0.116  0.052  0.000  0.020  0.004  0.009  0.783
 
band     2 # energy    2.58384523 # occ.  1.00000000
 
ion      s     py     pz     px    dxy    dyz    dz2    dxz  x2-y2    tot
    1  0.027  0.001  0.002  0.026  0.042  0.000  0.181  0.000  0.018  0.297
    2  0.013  0.002  0.002  0.036  0.067  0.000  0.433  0.001  0.028  0.581
tot    0.040  0.002  0.004  0.062  0.110  0.000  0.614  0.001  0.046  0.878