 running on   16 total cores
 distrk:  each k-point on   16 cores,    1 groups
 distr:  one band on    1 cores,   16 groups
 using from now: INCAR     
 vasp.5.4.4.18Apr17-6-g9f103f2a35 (build Jan 03 2020 21:31:15) complex          
  
 POSCAR found type information on POSCAR  Fe
 POSCAR found :  1 types and       2 ions
 scaLAPACK will be used

 ----------------------------------------------------------------------------- 
|                                                                             |
|           W    W    AA    RRRRR   N    N  II  N    N   GGGG   !!!           |
|           W    W   A  A   R    R  NN   N  II  NN   N  G    G  !!!           |
|           W    W  A    A  R    R  N N  N  II  N N  N  G       !!!           |
|           W WW W  AAAAAA  RRRRR   N  N N  II  N  N N  G  GGG   !            |
|           WW  WW  A    A  R   R   N   NN  II  N   NN  G    G                |
|           W    W  A    A  R    R  N    N  II  N    N   GGGG   !!!           |
|                                                                             |
|      For optimal performance we recommend to set                            |
|        NCORE= 4 - approx SQRT( number of cores)                             |
|      NCORE specifies how many cores store one orbital (NPAR=cpu/NCORE).     |
|      This setting can  greatly improve the performance of VASP for DFT.     |
|      The default,   NCORE=1            might be grossly inefficient         |
|      on modern multi-core architectures or massively parallel machines.     |
|      Do your own testing !!!!                                               |
|      Unfortunately you need to use the default for GW and RPA calculations. |
|      (for HF NCORE is supported but not extensively tested yet)             |
|                                                                             |
 ----------------------------------------------------------------------------- 

 LDA part: xc-table for Pade appr. of Perdew
 POSCAR, INCAR and KPOINTS ok, starting setup
 FFT: planning ...
 WAVECAR not read
 entering main loop
       N       E                     dE             d eps       ncg     rms          rms(c)
DAV:   1     0.275565996466E+02    0.27557E+02   -0.83121E+03  1296   0.127E+03
DAV:   2    -0.176146169725E+02   -0.45171E+02   -0.44796E+02  1280   0.132E+02
DAV:   3    -0.178935229447E+02   -0.27891E+00   -0.27886E+00  1888   0.150E+01
DAV:   4    -0.178944957051E+02   -0.97276E-03   -0.97274E-03  1408   0.594E-01
DAV:   5    -0.178945034798E+02   -0.77747E-05   -0.77738E-05  2080   0.369E-02    0.176E+01
DAV:   6    -0.156903918254E+02    0.22041E+01   -0.26424E+01  1376   0.634E+01    0.684E+00
DAV:   7    -0.155705907867E+02    0.11980E+00   -0.16857E+00  1504   0.149E+01    0.429E+00
DAV:   8    -0.155654365120E+02    0.51543E-02   -0.67887E-02  1744   0.263E+00    0.127E+00
DAV:   9    -0.155652387222E+02    0.19779E-03   -0.11045E-01  1872   0.299E+00    0.603E-01
DAV:  10    -0.155677806918E+02   -0.25420E-02   -0.78944E-02  1440   0.244E+00    0.307E-01
DAV:  11    -0.155678555220E+02   -0.74830E-04   -0.10560E-03  1344   0.383E-01    0.884E-02
DAV:  12    -0.155678320749E+02    0.23447E-04   -0.96019E-05  1648   0.679E-02    0.219E-02
DAV:  13    -0.155678258304E+02    0.62445E-05   -0.27029E-05  1568   0.588E-02    0.142E-02
DAV:  14    -0.155678246093E+02    0.12211E-05   -0.36815E-05  1312   0.509E-02    0.958E-03
DAV:  15    -0.155678260732E+02   -0.14639E-05   -0.37314E-06   672   0.180E-02    0.480E-03
DAV:  16    -0.155678264163E+02   -0.34307E-06   -0.31402E-07   640   0.547E-03
   1 F= -.15567826E+02 E0= -.15567738E+02  d E =-.155678E+02  mag=    -0.0000
 curvature:   0.00 expect dE= 0.000E+00 dE for cont linesearch  0.000E+00
 trial: gam= 0.00000 g(F)=  0.242E-60 g(S)=  0.615E-01 ort = 0.000E+00 (trialstep = 0.100E+01)
 search vector abs. value=  0.615E-01
 bond charge predicted
       N       E                     dE             d eps       ncg     rms          rms(c)
DAV:   1    -0.162661734425E+02   -0.69835E+00   -0.17515E+01  1280   0.556E+01    0.735E+00
DAV:   2    -0.156409354849E+02    0.62524E+00   -0.67801E+00  1312   0.316E+01    0.302E+00
DAV:   3    -0.155896936479E+02    0.51242E-01   -0.34984E-01  1408   0.740E+00    0.153E+00
DAV:   4    -0.155840854313E+02    0.56082E-02   -0.55441E-03  1632   0.819E-01    0.568E-01
DAV:   5    -0.155804723793E+02    0.36131E-02   -0.23943E-02  1760   0.143E+00    0.212E-01
DAV:   6    -0.155807179015E+02   -0.24552E-03   -0.15767E-03  1536   0.321E-01    0.911E-02
DAV:   7    -0.155807345800E+02   -0.16679E-04   -0.17846E-04  1792   0.166E-01    0.418E-02
DAV:   8    -0.155807353987E+02   -0.81868E-06   -0.58261E-05  1600   0.720E-02    0.707E-03
DAV:   9    -0.155807357370E+02   -0.33829E-06   -0.47330E-06   640   0.208E-02
   2 F= -.15580736E+02 E0= -.15581044E+02  d E =-.129093E-01  mag=    -0.0000
 trial-energy change:   -0.012909  1 .order   -0.010508   -0.061512    0.040496
 step:   0.6357(harm=  0.6030)  dis= 0.00000  next Energy=   -15.587996 (dE=-0.202E-01)
 bond charge predicted
       N       E                     dE             d eps       ncg     rms          rms(c)
DAV:   1    -0.156820400305E+02   -0.10130E+00   -0.24289E+00  1280   0.214E+01    0.268E+00
DAV:   2    -0.156006204132E+02    0.81420E-01   -0.11126E+00  1312   0.120E+01    0.121E+00
DAV:   3    -0.155892523206E+02    0.11368E-01   -0.75332E-02  1376   0.342E+00    0.553E-01
DAV:   4    -0.155885440135E+02    0.70831E-03   -0.89217E-04  1472   0.352E-01    0.215E-01
DAV:   5    -0.155881162172E+02    0.42780E-03   -0.46673E-03  1696   0.650E-01    0.779E-02
DAV:   6    -0.155881276092E+02   -0.11392E-04   -0.48351E-05  1632   0.658E-02    0.474E-02
DAV:   7    -0.155881502575E+02   -0.22648E-04   -0.21080E-04  1632   0.149E-01    0.934E-03
DAV:   8    -0.155881499371E+02    0.32047E-06   -0.36277E-06  1376   0.183E-02
   3 F= -.15588150E+02 E0= -.15588596E+02  d E =-.203235E-01  mag=    -0.0000
 curvature:  -0.30 expect dE=-0.669E-06 dE for cont linesearch -0.669E-06
 ZBRENT: interpolating
 opt :   0.6390  next Energy=   -15.588151 (dE=-0.203E-01)
 bond charge predicted
       N       E                     dE             d eps       ncg     rms          rms(c)
DAV:   1    -0.155881553823E+02   -0.51248E-05   -0.18914E-04  1280   0.188E-01    0.230E-02
DAV:   2    -0.155881493909E+02    0.59914E-05   -0.77901E-05  1312   0.103E-01    0.102E-02
DAV:   3    -0.155881486565E+02    0.73437E-06   -0.44923E-06  1280   0.268E-02
   4 F= -.15588149E+02 E0= -.15588593E+02  d E =-.203222E-01  mag=    -0.0000
 curvature:  -0.27 expect dE=-0.428E-05 dE for cont linesearch -0.428E-05
 ZBRENT: interpolating
 opt :   0.6366  next Energy=   -15.588150 (dE=-0.203E-01)
 bond charge predicted
       N       E                     dE             d eps       ncg     rms          rms(c)
DAV:   1    -0.155881532992E+02   -0.39083E-05   -0.10311E-04  1280   0.138E-01    0.161E-02
DAV:   2    -0.155881496802E+02    0.36189E-05   -0.41304E-05  1312   0.758E-02    0.758E-03
DAV:   3    -0.155881493891E+02    0.29110E-06   -0.22389E-06   640   0.185E-02
   5 F= -.15588149E+02 E0= -.15588595E+02  d E =-.203230E-01  mag=     0.0000
 curvature:  -0.01 expect dE=-0.191E-08 dE for cont linesearch -0.191E-08
 trial: gam= 0.00000 g(F)=  0.554E-61 g(S)=  0.177E-06 ort =-0.104E-03 (trialstep = 0.927E+00)
 search vector abs. value=  0.177E-06
 reached required accuracy - stopping structural energy minimisation
 writing wavefunctions
