unknown system                          
           1
     2.832634    0.000000    0.000000
     0.000000    2.832634    0.000000
     0.000000    0.000000    2.832634
   Fe
   2
Direct configuration=     1
   0.00000000  0.00000000  0.00000000
   0.50000000  0.50000000  0.50000000
unknown system                          
           1
     2.769638   -0.000000    0.000000
     0.000000    2.769638    0.000000
     0.000000    0.000000    2.769638
   Fe
   2
Direct configuration=     2
   0.00000000  0.00000000  0.00000000
   0.50000000  0.50000000  0.50000000
unknown system                          
           1
     2.792586   -0.000000    0.000000
     0.000000    2.792586    0.000000
     0.000000    0.000000    2.792586
   Fe
   2
Direct configuration=     3
   0.00000000  0.00000000  0.00000000
   0.50000000  0.50000000  0.50000000
unknown system                          
           1
     2.792378   -0.000000    0.000000
     0.000000    2.792378    0.000000
     0.000000    0.000000    2.792378
   Fe
   2
Direct configuration=     4
   0.00000000  0.00000000  0.00000000
   0.50000000  0.50000000  0.50000000
unknown system                          
           1
     2.792529   -0.000000    0.000000
     0.000000    2.792529    0.000000
     0.000000    0.000000    2.792529
   Fe
   2
Direct configuration=     5
   0.00000000  0.00000000  0.00000000
   0.50000000  0.50000000  0.50000000
