   1   1   0   0
  0.1386300E+02  0.2621157E-09  0.2621157E-09  0.2621157E-09  0.5000000E-15
  1.000000000000000E-004
  CAR 
 unknown system                          
     35.17921671     -6.17972581  301      9.98627914      1.00000000
     -6.180  0.0000E+00  0.0000E+00
     -6.042  0.0000E+00  0.0000E+00
     -5.904  0.0000E+00  0.0000E+00
     -5.766  0.0000E+00  0.0000E+00
     -5.628  0.0000E+00  0.0000E+00
     -5.490  0.0000E+00  0.0000E+00
     -5.353  0.0000E+00  0.0000E+00
     -5.215  0.0000E+00  0.0000E+00
     -5.077  0.0000E+00  0.0000E+00
     -4.939  0.0000E+00  0.0000E+00
     -4.801  0.0000E+00  0.0000E+00
     -4.663  0.0000E+00  0.0000E+00
     -4.525  0.1022E-12  0.1410E-13
     -4.388  0.7594E-05  0.1047E-05
     -4.250  0.1062E-02  0.1475E-03
     -4.112  0.9064E-04  0.1600E-03
     -3.974  0.6111E-10  0.1600E-03
     -3.836  0.0000E+00  0.1600E-03
     -3.698  0.0000E+00  0.1600E-03
     -3.560  0.0000E+00  0.1600E-03
     -3.422  0.0000E+00  0.1600E-03
     -3.285  0.1798E-10  0.1600E-03
     -3.147  0.2765E-03  0.1981E-03
     -3.009  0.1320E-01  0.2017E-02
     -2.871  0.4554E-03  0.2080E-02
     -2.733  0.6519E-10  0.2080E-02
     -2.595  0.0000E+00  0.2080E-02
     -2.457  0.0000E+00  0.2080E-02
     -2.320  0.0000E+00  0.2080E-02
     -2.182  0.0000E+00  0.2080E-02
     -2.044  0.3315E-09  0.2080E-02
     -1.906  0.5255E-03  0.2152E-02
     -1.768  0.6390E-02  0.3033E-02
     -1.630  0.4796E-04  0.3040E-02
     -1.492  0.6914E-12  0.3040E-02
     -1.355  0.0000E+00  0.3040E-02
     -1.217  0.0000E+00  0.3040E-02
     -1.079  0.0000E+00  0.3040E-02
     -0.941  0.0000E+00  0.3040E-02
     -0.803  0.9788E-07  0.3040E-02
     -0.665  0.7700E-02  0.4101E-02
     -0.527  0.2014E-01  0.6878E-02
     -0.389  0.1319E-04  0.6880E-02
     -0.252  0.8071E-14  0.6880E-02
     -0.114  0.0000E+00  0.6880E-02
      0.024  0.0000E+00  0.6880E-02
      0.162  0.0000E+00  0.6880E-02
      0.300  0.1902E-14  0.6880E-02
      0.438  0.4563E-05  0.6881E-02
      0.576  0.9585E-02  0.8202E-02
      0.713  0.4338E-02  0.8800E-02
      0.851  0.7854E-07  0.8800E-02
      0.989  0.0000E+00  0.8800E-02
      1.127  0.0000E+00  0.8800E-02
      1.265  0.0000E+00  0.8800E-02
      1.403  0.0000E+00  0.8800E-02
      1.541  0.1895E-10  0.8800E-02
      1.678  0.4278E-03  0.8859E-02
      1.816  0.2628E-01  0.1248E-01
      1.954  0.1143E-02  0.1264E-01
      2.092  0.2396E-09  0.1264E-01
      2.230  0.0000E+00  0.1264E-01
      2.368  0.0000E+00  0.1264E-01
      2.506  0.0000E+00  0.1264E-01
      2.644  0.0000E+00  0.1264E-01
      2.781  0.1709E-07  0.1264E-01
      2.919  0.2162E-02  0.1294E-01
      3.057  0.7115E-02  0.1392E-01
      3.195  0.7075E-05  0.1392E-01
      3.333  0.7223E-14  0.1392E-01
      3.471  0.0000E+00  0.1392E-01
      3.609  0.0000E+00  0.1392E-01
      3.746  0.6318E-10  0.1392E-01
      3.884  0.6898E-03  0.1402E-01
      4.022  0.2643E-01  0.1766E-01
      4.160  0.7375E-03  0.1776E-01
      4.298  0.8743E-02  0.1897E-01
      4.436  0.1910E-01  0.2160E-01
      4.574  0.8899E-05  0.2160E-01
      4.711  0.3615E-14  0.2160E-01
      4.849  0.0000E+00  0.2160E-01
      4.987  0.3865E-18  0.2160E-01
      5.125  0.4404E-07  0.2160E-01
      5.263  0.2231E-02  0.2191E-01
      5.401  0.4731E-02  0.2256E-01
      5.539  0.2081E-05  0.2256E-01
      5.677  0.7901E-15  0.2256E-01
      5.814  0.0000E+00  0.2256E-01
      5.952  0.1248E-11  0.2256E-01
      6.090  0.7276E-04  0.2257E-01
      6.228  0.8571E-02  0.2375E-01
      6.366  0.6462E-03  0.2384E-01
      6.504  0.9831E-02  0.2520E-01
      6.642  0.2091E-01  0.2808E-01
      6.779  0.1748E-02  0.2832E-01
      6.917  0.1706E-08  0.2832E-01
      7.055  0.0000E+00  0.2832E-01
      7.193  0.0000E+00  0.2832E-01
      7.331  0.1082E-16  0.2832E-01
      7.469  0.4320E-06  0.2832E-01
      7.607  0.1100E-01  0.2984E-01
      7.744  0.1685E-01  0.3216E-01
      7.882  0.3903E-05  0.3216E-01
      8.020  0.0000E+00  0.3216E-01
      8.158  0.0000E+00  0.3216E-01
      8.296  0.1116E-09  0.3216E-01
      8.434  0.4309E-03  0.3222E-01
      8.572  0.8731E-02  0.3342E-01
      8.709  0.1231E-03  0.3344E-01
      8.847  0.2515E-05  0.3344E-01
      8.985  0.1117E-01  0.3498E-01
      9.123  0.7396E-02  0.3600E-01
      9.261  0.2993E-06  0.3600E-01
      9.399  0.0000E+00  0.3600E-01
      9.537  0.0000E+00  0.3600E-01
      9.675  0.3177E-13  0.3600E-01
      9.812  0.2547E-04  0.3600E-01
      9.950  0.2208E-01  0.3905E-01
     10.088  0.1924E-01  0.4170E-01
     10.226  0.4327E-03  0.4176E-01
     10.364  0.5696E-10  0.4176E-01
     10.502  0.0000E+00  0.4176E-01
     10.640  0.1482E-12  0.4176E-01
     10.777  0.5228E-04  0.4177E-01
     10.915  0.2339E-01  0.4499E-01
     11.053  0.4411E-02  0.4560E-01
     11.191  0.6326E-02  0.4647E-01
     11.329  0.2150E-01  0.4944E-01
     11.467  0.2266E-04  0.4944E-01
     11.605  0.2486E-13  0.4944E-01
     11.742  0.0000E+00  0.4944E-01
     11.880  0.3608E-09  0.4944E-01
     12.018  0.5409E-03  0.4951E-01
     12.156  0.7631E-02  0.5057E-01
     12.294  0.2626E-01  0.5419E-01
     12.432  0.3830E-03  0.5424E-01
     12.570  0.1444E-10  0.5424E-01
     12.708  0.5731E-13  0.5424E-01
     12.845  0.1595E-04  0.5424E-01
     12.983  0.5948E-02  0.5506E-01
     13.121  0.9999E-03  0.5520E-01
     13.259  0.2408E-08  0.5520E-01
     13.397  0.0000E+00  0.5520E-01
     13.535  0.0000E+00  0.5520E-01
     13.673  0.0000E+00  0.5520E-01
     13.810  0.0000E+00  0.5520E-01
     13.948  0.0000E+00  0.5520E-01
     14.086  0.1539E-13  0.5520E-01
     14.224  0.1258E-04  0.5520E-01
     14.362  0.1452E-01  0.5720E-01
     14.500  0.1331E-01  0.5904E-01
     14.638  0.8548E-05  0.5904E-01
     14.775  0.1264E-01  0.6078E-01
     14.913  0.1521E-01  0.6288E-01
     15.051  0.2154E-05  0.6288E-01
     15.189  0.1546E-17  0.6288E-01
     15.327  0.1512E-06  0.6288E-01
     15.465  0.8593E-02  0.6406E-01
     15.603  0.1925E-01  0.6672E-01
     15.741  0.9134E-02  0.6798E-01
     15.878  0.4799E-02  0.6864E-01
     16.016  0.1193E-06  0.6864E-01
     16.154  0.6010E-08  0.6864E-01
     16.292  0.1312E-02  0.6882E-01
     16.430  0.5890E-02  0.6963E-01
     16.568  0.2586E-01  0.7320E-01
     16.706  0.1759E-02  0.7344E-01
     16.843  0.7922E-09  0.7344E-01
     16.981  0.1358E-07  0.7344E-01
     17.119  0.2493E-02  0.7378E-01
     17.257  0.1370E-01  0.7567E-01
     17.395  0.5072E-04  0.7568E-01
     17.533  0.4277E-12  0.7568E-01
     17.671  0.7222E-05  0.7568E-01
     17.808  0.1041E-01  0.7712E-01
     17.946  0.2323E-01  0.8032E-01
     18.084  0.1168E-02  0.8048E-01
     18.222  0.6171E-05  0.8048E-01
     18.360  0.9984E-02  0.8186E-01
     18.498  0.3936E-02  0.8240E-01
     18.636  0.5461E-02  0.8315E-01
     18.774  0.1310E-01  0.8496E-01
     18.911  0.7292E-05  0.8496E-01
     19.049  0.7451E-05  0.8496E-01
     19.187  0.1862E-01  0.8753E-01
     19.325  0.9223E-02  0.8880E-01
     19.463  0.2020E-06  0.8880E-01
     19.601  0.0000E+00  0.8880E-01
     19.739  0.4561E-15  0.8880E-01
     19.876  0.2241E-05  0.8880E-01
     20.014  0.9798E-02  0.9015E-01
     20.152  0.2794E-01  0.9400E-01
     20.290  0.4044E-02  0.9456E-01
     20.428  0.5480E-07  0.9456E-01
     20.566  0.0000E+00  0.9456E-01
     20.704  0.0000E+00  0.9456E-01
     20.841  0.0000E+00  0.9456E-01
     20.979  0.0000E+00  0.9456E-01
     21.117  0.0000E+00  0.9456E-01
     21.255  0.1137E-07  0.9456E-01
     21.393  0.9445E-03  0.9469E-01
     21.531  0.2541E-02  0.9504E-01
     21.669  0.1776E-01  0.9749E-01
     21.806  0.1009E-01  0.9888E-01
     21.944  0.2956E-06  0.9888E-01
     22.082  0.1039E-02  0.9902E-01
     22.220  0.3823E-01  0.1043E+00
     22.358  0.2513E-02  0.1046E+00
     22.496  0.1502E-03  0.1047E+00
     22.634  0.3281E-02  0.1051E+00
     22.772  0.5043E-04  0.1051E+00
     22.909  0.2622E-05  0.1051E+00
     23.047  0.1575E-01  0.1073E+00
     23.185  0.1210E-01  0.1090E+00
     23.323  0.6706E-06  0.1090E+00
     23.461  0.1119E-05  0.1090E+00
     23.599  0.1344E-01  0.1108E+00
     23.737  0.1441E-01  0.1128E+00
     23.874  0.3996E-04  0.1128E+00
     24.012  0.8640E-02  0.1140E+00
     24.150  0.2714E-01  0.1177E+00
     24.288  0.1317E-02  0.1179E+00
     24.426  0.3526E-09  0.1179E+00
     24.564  0.0000E+00  0.1179E+00
     24.702  0.8626E-13  0.1179E+00
     24.839  0.1920E-04  0.1179E+00
     24.977  0.6104E-02  0.1188E+00
     25.115  0.2483E-01  0.1222E+00
     25.253  0.3867E-02  0.1227E+00
     25.391  0.8629E-08  0.1227E+00
     25.529  0.0000E+00  0.1227E+00
     25.667  0.0000E+00  0.1227E+00
     25.805  0.0000E+00  0.1227E+00
     25.942  0.1653E-09  0.1227E+00
     26.080  0.6434E-03  0.1228E+00
     26.218  0.1340E-01  0.1247E+00
     26.356  0.1306E-01  0.1265E+00
     26.494  0.9227E-02  0.1277E+00
     26.632  0.6612E-02  0.1286E+00
     26.770  0.5162E-06  0.1286E+00
     26.907  0.0000E+00  0.1286E+00
     27.045  0.0000E+00  0.1286E+00
     27.183  0.3554E-11  0.1286E+00
     27.321  0.2141E-03  0.1287E+00
     27.459  0.4561E-01  0.1350E+00
     27.597  0.3773E-01  0.1402E+00
     27.735  0.1207E-04  0.1402E+00
     27.872  0.2919E-14  0.1402E+00
     28.010  0.0000E+00  0.1402E+00
     28.148  0.1277E-13  0.1402E+00
     28.286  0.1646E-04  0.1402E+00
     28.424  0.2071E-01  0.1430E+00
     28.562  0.1771E-01  0.1455E+00
     28.700  0.7979E-02  0.1466E+00
     28.838  0.1103E-05  0.1466E+00
     28.975  0.7144E-02  0.1475E+00
     29.113  0.3234E-01  0.1520E+00
     29.251  0.2296E-02  0.1523E+00
     29.389  0.1717E-08  0.1523E+00
     29.527  0.2653E-09  0.1523E+00
     29.665  0.7631E-03  0.1524E+00
     29.803  0.1301E-01  0.1542E+00
     29.940  0.1496E-03  0.1542E+00
     30.078  0.3966E-11  0.1542E+00
     30.216  0.2165E-05  0.1542E+00
     30.354  0.1089E-01  0.1557E+00
     30.492  0.7673E-02  0.1568E+00
     30.630  0.3538E-06  0.1568E+00
     30.768  0.0000E+00  0.1568E+00
     30.905  0.0000E+00  0.1568E+00
     31.043  0.0000E+00  0.1568E+00
     31.181  0.0000E+00  0.1568E+00
     31.319  0.0000E+00  0.1568E+00
     31.457  0.7074E-16  0.1568E+00
     31.595  0.6169E-06  0.1568E+00
     31.733  0.3896E-02  0.1573E+00
     31.871  0.3067E-02  0.1578E+00
     32.008  0.1789E-06  0.1578E+00
     32.146  0.2792E-11  0.1578E+00
     32.284  0.8619E-04  0.1578E+00
     32.422  0.6536E-02  0.1587E+00
     32.560  0.3416E-03  0.1587E+00
     32.698  0.9749E-10  0.1587E+00
     32.836  0.0000E+00  0.1587E+00
     32.973  0.0000E+00  0.1587E+00
     33.111  0.4889E-09  0.1587E+00
     33.249  0.7252E-03  0.1588E+00
     33.387  0.8499E-02  0.1600E+00
     33.525  0.6075E-04  0.1600E+00
     33.663  0.8180E-12  0.1600E+00
     33.801  0.0000E+00  0.1600E+00
     33.938  0.0000E+00  0.1600E+00
     34.076  0.0000E+00  0.1600E+00
     34.214  0.0000E+00  0.1600E+00
     34.352  0.0000E+00  0.1600E+00
     34.490  0.0000E+00  0.1600E+00
     34.628  0.0000E+00  0.1600E+00
     34.766  0.0000E+00  0.1600E+00
     34.903  0.0000E+00  0.1600E+00
     35.041  0.0000E+00  0.1600E+00
     35.179  0.0000E+00  0.1600E+00
