    1    1  100    1
  0.1386300E+02  0.2621157E-09  0.2621157E-09  0.2621157E-09  0.5000000E-15
  1.000000000000000E-004
  CAR 
 unknown system                          
      4     10      8
 
  0.0000000E+00  0.0000000E+00  0.0000000E+00  0.8000000E-02
    1       -4.299774   1.000000
    2       21.414434   0.000000
    3       21.414434   0.000000
    4       21.414434   0.000000
    5       22.556459   0.000000
    6       22.556459   0.000000
    7       22.556459   0.000000
    8       26.244015   0.000000
 
  0.2000000E+00  0.0000000E+00  0.0000000E+00  0.9600000E-01
    1       -3.074017   1.000000
    2       14.334368   0.000000
    3       17.786573   0.000000
    4       20.003586   0.000000
    5       20.062895   0.000000
    6       22.136235   0.000000
    7       26.139748   0.000000
    8       26.317346   0.000000
 
  0.4000000E+00  0.0000000E+00  0.0000000E+00  0.9600000E-01
    1        0.558184   1.000000
    2        6.485166   1.000000
    3       15.726372   0.000000
    4       17.888532   0.000000
    5       18.339585   0.000000
    6       20.132004   0.000000
    7       28.975292   0.000000
    8       29.721262   0.000000
 
  0.2000000E+00  0.2000000E+00  0.0000000E+00  0.1920000E+00
    1       -0.644217   1.000000
    2       10.879906   0.000000
    3       11.217489   0.000000
    4       16.513635   0.000000
    5       22.171744   0.000000
    6       23.041425   0.000000
    7       27.468657   0.000000
    8       28.400722   0.000000
 
  0.4000000E+00  0.2000000E+00  0.1387779E-16  0.1920000E+00
    1        3.953721   1.000000
    2        4.315015   1.000000
    3        9.922592   0.964175
    4       15.482466   0.000000
    5       21.656166   0.000000
    6       25.076824   0.000000
    7       27.406735   0.000000
    8       29.064125   0.000000
 
  0.2000000E+00  0.2000000E+00  0.2000000E+00  0.6400000E-01
    1        2.945026   1.000000
    2        8.493191   1.000000
    3        8.976108   1.000000
    4        8.976108   1.000000
    5       28.555525   0.000000
    6       28.555525   0.000000
    7       30.346254   0.000000
    8       30.346254   0.000000
 
 -0.2000000E+00  0.2000000E+00  0.2000000E+00  0.4800000E-01
    1       -1.855188   1.000000
    2       14.384413   0.000000
    3       14.384413   0.000000
    4       16.323211   0.000000
    5       17.892946   0.000000
    6       24.937604   0.000000
    7       26.491602   0.000000
    8       26.491602   0.000000
 
 -0.4000000E+00  0.4000000E+00  0.2000000E+00  0.1920000E+00
    1        1.754867   1.000000
    2        7.616010   1.000000
    3       12.216001   0.000000
    4       14.779569   0.000000
    5       19.171650   0.000000
    6       23.600268   0.000000
    7       24.091062   0.000000
    8       27.475010   0.000000
 
 -0.4000000E+00 -0.4000000E+00  0.2000000E+00  0.6400000E-01
    1        6.175528   1.000000
    2        6.595028   1.000000
    3        6.595028   1.000000
    4       17.165663   0.000000
    5       18.654784   0.000000
    6       18.654784   0.000000
    7       23.967821   0.000000
    8       33.299265   0.000000
 
 -0.4000000E+00  0.4000000E+00  0.4000000E+00  0.4800000E-01
    1        5.279417   1.000000
    2       10.022175   0.154983
    3       10.022175   0.154982
    4       12.068445   0.000000
    5       12.945621   0.000000
    6       17.144978   0.000000
    7       31.727340   0.000000
    8       32.363471   0.000000
