 running on    4 total cores
 distrk:  each k-point on    4 cores,    1 groups
 distr:  one band on    1 cores,    4 groups
 vasp.6.2.0 18Jan21 (build Aug 12 2022 13:00:08) complex                        
  
 POSCAR found type information on POSCAR Si
 POSCAR found :  1 types and       1 ions
 scaLAPACK will be used
 LDA part: xc-table for Pade appr. of Perdew
 POSCAR, INCAR and KPOINTS ok, starting setup
 FFT: planning ...
 WAVECAR not read
 entering main loop
       N       E                     dE             d eps       ncg     rms          rms(c)
DAV:   1    -0.322067069241E+01   -0.32207E+01   -0.15618E+03   176   0.266E+02
DAV:   2    -0.474756193370E+01   -0.15269E+01   -0.15119E+01   256   0.232E+01
DAV:   3    -0.475335289465E+01   -0.57910E-02   -0.57897E-02   168   0.147E+00
DAV:   4    -0.475335786257E+01   -0.49679E-05   -0.49663E-05   256   0.469E-02
DAV:   5    -0.475335786093E+01    0.16370E-08   -0.13462E-09   160   0.273E-04    0.285E+00
DAV:   6    -0.474114315667E+01    0.12215E-01   -0.36308E-03   176   0.271E-01    0.158E+00
DAV:   7    -0.473414076872E+01    0.70024E-02   -0.73003E-03   168   0.385E-01    0.137E-01
DAV:   8    -0.473411457619E+01    0.26193E-04   -0.32332E-05   192   0.413E-02    0.112E-02
DAV:   9    -0.473411506058E+01   -0.48438E-06   -0.40631E-07   152   0.372E-03
   1 F= -.47341151E+01 E0= -.47327657E+01  d E =-.473412E+01
 curvature:   0.00 expect dE= 0.000E+00 dE for cont linesearch  0.000E+00
 trial: gam= 0.00000 g(F)=  0.393E-66 g(S)=  0.406E-01 ort = 0.000E+00 (trialstep = 0.100E+01)
 search vector abs. value=  0.406E-01
 bond charge predicted
       N       E                     dE             d eps       ncg     rms          rms(c)
DAV:   1    -0.475210320823E+01   -0.17989E-01   -0.53906E-01   160   0.300E+00    0.695E-01
DAV:   2    -0.474641517220E+01    0.56880E-02   -0.27622E-03   168   0.388E-01    0.406E-01
DAV:   3    -0.474302118346E+01    0.33940E-02   -0.35690E-03   160   0.257E-01    0.118E-01
DAV:   4    -0.474301869858E+01    0.24849E-05   -0.68131E-06   192   0.226E-02    0.100E-01
DAV:   5    -0.474300683642E+01    0.11862E-04   -0.13572E-06   208   0.780E-03    0.181E-02
DAV:   6    -0.474300723621E+01   -0.39979E-06   -0.25634E-08    88   0.128E-03
   2 F= -.47430072E+01 E0= -.47416596E+01  d E =-.889218E-02
 trial-energy change:   -0.008892  1 .order   -0.009942   -0.040613    0.020728
 step:   0.6384(harm=  0.6621)  dis= 0.00000  next Energy=    -4.746805 (dE=-0.127E-01)
 bond charge predicted
       N       E                     dE             d eps       ncg     rms          rms(c)
DAV:   1    -0.474794184294E+01   -0.49350E-02   -0.73179E-02   160   0.113E+00    0.252E-01
DAV:   2    -0.474717590207E+01    0.76594E-03   -0.36120E-04   176   0.142E-01    0.145E-01
DAV:   3    -0.474672473463E+01    0.45117E-03   -0.47420E-04   160   0.943E-02    0.471E-02
DAV:   4    -0.474672475387E+01   -0.19235E-07   -0.86204E-07   176   0.811E-03    0.413E-02
DAV:   5    -0.474672544848E+01   -0.69461E-06   -0.19884E-07   120   0.311E-03    0.888E-03
DAV:   6    -0.474672520463E+01    0.24385E-06   -0.65825E-09    80   0.654E-04
   3 F= -.47467252E+01 E0= -.47453818E+01  d E =-.126101E-01
 curvature:  -0.33 expect dE=-0.886E-08 dE for cont linesearch -0.886E-08
 trial: gam=-0.00081 g(F)=  0.309E-65 g(S)=  0.269E-07 ort = 0.330E-04 (trialstep = 0.928E+00)
 search vector abs. value=  0.100E-09
 reached required accuracy - stopping structural energy minimisation
