   2   2   0   0
  0.2016476E+02  0.3849278E-09  0.3849279E-09  0.3849278E-09  0.5000000E-15
  1.000000000000000E-004
  CAR 
 unknown system                          
     16.41332951     -7.27524003  301      5.83490267      1.00000000
     -7.275  0.0000E+00  0.0000E+00
     -7.196  0.0000E+00  0.0000E+00
     -7.117  0.0000E+00  0.0000E+00
     -7.038  0.0000E+00  0.0000E+00
     -6.959  0.0000E+00  0.0000E+00
     -6.880  0.0000E+00  0.0000E+00
     -6.801  0.0000E+00  0.0000E+00
     -6.723  0.0000E+00  0.0000E+00
     -6.644  0.0000E+00  0.0000E+00
     -6.565  0.0000E+00  0.0000E+00
     -6.486  0.1666E-19  0.1316E-20
     -6.407  0.1467E-12  0.1158E-13
     -6.328  0.9706E-08  0.7664E-09
     -6.249  0.6601E-05  0.5220E-06
     -6.170  0.2189E-03  0.1781E-04
     -6.091  0.8657E-03  0.8617E-04
     -6.012  0.1325E-02  0.1908E-03
     -5.933  0.1892E-02  0.3402E-03
     -5.854  0.1402E-02  0.4509E-03
     -5.775  0.2885E-02  0.6787E-03
     -5.696  0.2505E-02  0.8765E-03
     -5.617  0.1835E-02  0.1021E-02
     -5.538  0.3218E-02  0.1275E-02
     -5.459  0.3828E-02  0.1578E-02
     -5.380  0.3162E-02  0.1827E-02
     -5.301  0.2231E-02  0.2004E-02
     -5.222  0.3806E-02  0.2304E-02
     -5.143  0.4794E-02  0.2683E-02
     -5.064  0.5077E-02  0.3084E-02
     -4.985  0.1993E-02  0.3241E-02
     -4.906  0.4240E-02  0.3576E-02
     -4.827  0.5266E-02  0.3992E-02
     -4.748  0.4445E-02  0.4343E-02
     -4.669  0.6118E-02  0.4826E-02
     -4.591  0.5566E-02  0.5265E-02
     -4.512  0.2878E-02  0.5492E-02
     -4.433  0.5368E-02  0.5916E-02
     -4.354  0.6392E-02  0.6421E-02
     -4.275  0.6769E-02  0.6955E-02
     -4.196  0.7770E-02  0.7569E-02
     -4.117  0.6323E-02  0.8068E-02
     -4.038  0.4538E-02  0.8427E-02
     -3.959  0.6072E-02  0.8906E-02
     -3.880  0.1049E-01  0.9735E-02
     -3.801  0.1201E-01  0.1068E-01
     -3.722  0.9575E-02  0.1144E-01
     -3.643  0.4308E-02  0.1178E-01
     -3.564  0.6978E-02  0.1233E-01
     -3.485  0.9274E-02  0.1306E-01
     -3.406  0.8634E-02  0.1374E-01
     -3.327  0.7586E-02  0.1434E-01
     -3.248  0.9281E-02  0.1508E-01
     -3.169  0.2866E-02  0.1530E-01
     -3.090  0.5571E-02  0.1574E-01
     -3.011  0.5922E-02  0.1621E-01
     -2.932  0.1068E-01  0.1705E-01
     -2.853  0.4807E-02  0.1743E-01
     -2.774  0.3282E-02  0.1769E-01
     -2.695  0.2884E-02  0.1792E-01
     -2.616  0.4098E-02  0.1824E-01
     -2.538  0.9188E-02  0.1897E-01
     -2.459  0.3744E-02  0.1926E-01
     -2.380  0.1232E-02  0.1936E-01
     -2.301  0.1892E-02  0.1951E-01
     -2.222  0.1990E-02  0.1967E-01
     -2.143  0.3363E-02  0.1993E-01
     -2.064  0.1524E-02  0.2005E-01
     -1.985  0.1048E-02  0.2014E-01
     -1.906  0.9992E-03  0.2022E-01
     -1.827  0.1181E-02  0.2031E-01
     -1.748  0.1329E-02  0.2041E-01
     -1.669  0.1958E-02  0.2057E-01
     -1.590  0.5108E-02  0.2097E-01
     -1.511  0.6037E-02  0.2145E-01
     -1.432  0.4550E-02  0.2181E-01
     -1.353  0.3028E-02  0.2205E-01
     -1.274  0.3189E-02  0.2230E-01
     -1.195  0.7028E-02  0.2285E-01
     -1.116  0.1886E-01  0.2434E-01
     -1.037  0.1676E-01  0.2567E-01
     -0.958  0.1130E-01  0.2656E-01
     -0.879  0.8048E-02  0.2719E-01
     -0.800  0.6927E-02  0.2774E-01
     -0.721  0.1072E-01  0.2859E-01
     -0.642  0.9407E-02  0.2933E-01
     -0.563  0.3902E-02  0.2964E-01
     -0.485  0.6296E-02  0.3014E-01
     -0.406  0.8548E-02  0.3081E-01
     -0.327  0.2942E-02  0.3104E-01
     -0.248  0.3245E-02  0.3130E-01
     -0.169  0.9038E-02  0.3201E-01
     -0.090  0.4461E-02  0.3237E-01
     -0.011  0.3033E-02  0.3261E-01
      0.068  0.5575E-02  0.3305E-01
      0.147  0.4104E-02  0.3337E-01
      0.226  0.1564E-02  0.3349E-01
      0.305  0.2963E-02  0.3373E-01
      0.384  0.7111E-02  0.3429E-01
      0.463  0.4485E-02  0.3464E-01
      0.542  0.2340E-02  0.3483E-01
      0.621  0.6799E-03  0.3488E-01
      0.700  0.2800E-02  0.3510E-01
      0.779  0.5485E-02  0.3554E-01
      0.858  0.2598E-02  0.3574E-01
      0.937  0.1682E-03  0.3575E-01
      1.016  0.1926E-02  0.3591E-01
      1.095  0.6097E-02  0.3639E-01
      1.174  0.3093E-02  0.3663E-01
      1.253  0.9055E-03  0.3670E-01
      1.332  0.2049E-02  0.3686E-01
      1.411  0.4853E-02  0.3725E-01
      1.490  0.9664E-02  0.3801E-01
      1.568  0.7210E-02  0.3858E-01
      1.647  0.1383E-01  0.3967E-01
      1.726  0.1283E-01  0.4069E-01
      1.805  0.1193E-01  0.4163E-01
      1.884  0.1403E-01  0.4274E-01
      1.963  0.8364E-02  0.4340E-01
      2.042  0.6716E-02  0.4393E-01
      2.121  0.7897E-02  0.4455E-01
      2.200  0.1691E-01  0.4589E-01
      2.279  0.1342E-01  0.4694E-01
      2.358  0.7149E-02  0.4751E-01
      2.437  0.8312E-02  0.4817E-01
      2.516  0.9053E-02  0.4888E-01
      2.595  0.1377E-01  0.4997E-01
      2.674  0.1755E-01  0.5135E-01
      2.753  0.1390E-01  0.5245E-01
      2.832  0.1073E-01  0.5330E-01
      2.911  0.1565E-01  0.5453E-01
      2.990  0.1526E-01  0.5574E-01
      3.069  0.1401E-01  0.5685E-01
      3.148  0.1821E-01  0.5828E-01
      3.227  0.1165E-01  0.5920E-01
      3.306  0.8908E-02  0.5991E-01
      3.385  0.1497E-01  0.6109E-01
      3.464  0.2407E-01  0.6299E-01
      3.543  0.1379E-01  0.6408E-01
      3.622  0.1298E-01  0.6510E-01
      3.700  0.9475E-02  0.6585E-01
      3.779  0.1027E-01  0.6666E-01
      3.858  0.1383E-01  0.6776E-01
      3.937  0.1256E-01  0.6875E-01
      4.016  0.1427E-01  0.6987E-01
      4.095  0.1370E-01  0.7096E-01
      4.174  0.8809E-02  0.7165E-01
      4.253  0.1376E-01  0.7274E-01
      4.332  0.1417E-01  0.7386E-01
      4.411  0.6020E-02  0.7433E-01
      4.490  0.1362E-01  0.7541E-01
      4.569  0.1108E-01  0.7628E-01
      4.648  0.4438E-02  0.7663E-01
      4.727  0.5856E-02  0.7709E-01
      4.806  0.7463E-02  0.7768E-01
      4.885  0.3485E-02  0.7796E-01
      4.964  0.2978E-02  0.7819E-01
      5.043  0.6163E-02  0.7868E-01
      5.122  0.4589E-02  0.7904E-01
      5.201  0.3408E-02  0.7931E-01
      5.280  0.2288E-02  0.7949E-01
      5.359  0.2346E-02  0.7968E-01
      5.438  0.1589E-02  0.7980E-01
      5.517  0.8613E-03  0.7987E-01
      5.596  0.1369E-02  0.7998E-01
      5.675  0.2415E-03  0.8000E-01
      5.753  0.1148E-04  0.8000E-01
      5.832  0.1212E-07  0.8000E-01
      5.911  0.1149E-12  0.8000E-01
      5.990  0.1115E-14  0.8000E-01
      6.069  0.6678E-09  0.8000E-01
      6.148  0.3383E-05  0.8000E-01
      6.227  0.2254E-03  0.8002E-01
      6.306  0.6080E-03  0.8007E-01
      6.385  0.1411E-02  0.8018E-01
      6.464  0.2461E-02  0.8037E-01
      6.543  0.2687E-02  0.8058E-01
      6.622  0.1342E-02  0.8069E-01
      6.701  0.5596E-02  0.8113E-01
      6.780  0.4596E-02  0.8149E-01
      6.859  0.3279E-02  0.8175E-01
      6.938  0.7626E-02  0.8236E-01
      7.017  0.5699E-02  0.8281E-01
      7.096  0.8584E-02  0.8348E-01
      7.175  0.6378E-02  0.8399E-01
      7.254  0.4939E-02  0.8438E-01
      7.333  0.7529E-02  0.8497E-01
      7.412  0.8042E-02  0.8561E-01
      7.491  0.8990E-02  0.8632E-01
      7.570  0.1424E-01  0.8744E-01
      7.649  0.1163E-01  0.8836E-01
      7.728  0.1140E-01  0.8926E-01
      7.806  0.1502E-01  0.9045E-01
      7.885  0.1353E-01  0.9151E-01
      7.964  0.2402E-01  0.9341E-01
      8.043  0.1638E-01  0.9470E-01
      8.122  0.1196E-01  0.9565E-01
      8.201  0.1752E-01  0.9703E-01
      8.280  0.1631E-01  0.9832E-01
      8.359  0.6796E-02  0.9886E-01
      8.438  0.7400E-02  0.9944E-01
      8.517  0.1274E-01  0.1004E+00
      8.596  0.9360E-02  0.1012E+00
      8.675  0.9473E-02  0.1019E+00
      8.754  0.7452E-02  0.1025E+00
      8.833  0.1652E-01  0.1038E+00
      8.912  0.2709E-01  0.1060E+00
      8.991  0.2199E-01  0.1077E+00
      9.070  0.2045E-01  0.1093E+00
      9.149  0.2035E-01  0.1109E+00
      9.228  0.1607E-01  0.1122E+00
      9.307  0.1583E-01  0.1134E+00
      9.386  0.1634E-01  0.1147E+00
      9.465  0.2004E-01  0.1163E+00
      9.544  0.1438E-01  0.1174E+00
      9.623  0.1080E-01  0.1183E+00
      9.702  0.1222E-01  0.1193E+00
      9.781  0.1078E-01  0.1201E+00
      9.859  0.1039E-01  0.1209E+00
      9.938  0.1390E-01  0.1220E+00
     10.017  0.9351E-02  0.1228E+00
     10.096  0.1271E-01  0.1238E+00
     10.175  0.1760E-01  0.1252E+00
     10.254  0.1764E-01  0.1266E+00
     10.333  0.7156E-02  0.1271E+00
     10.412  0.6219E-02  0.1276E+00
     10.491  0.1295E-01  0.1286E+00
     10.570  0.2257E-01  0.1304E+00
     10.649  0.1210E-01  0.1314E+00
     10.728  0.1597E-01  0.1326E+00
     10.807  0.1829E-01  0.1341E+00
     10.886  0.9648E-02  0.1348E+00
     10.965  0.1219E-01  0.1358E+00
     11.044  0.1009E-01  0.1366E+00
     11.123  0.5516E-02  0.1370E+00
     11.202  0.7731E-02  0.1376E+00
     11.281  0.7590E-02  0.1382E+00
     11.360  0.8266E-02  0.1389E+00
     11.439  0.7738E-02  0.1395E+00
     11.518  0.7824E-02  0.1401E+00
     11.597  0.1455E-01  0.1413E+00
     11.676  0.1408E-01  0.1424E+00
     11.755  0.1399E-01  0.1435E+00
     11.834  0.1770E-01  0.1449E+00
     11.913  0.1381E-01  0.1460E+00
     11.991  0.1139E-01  0.1469E+00
     12.070  0.9364E-02  0.1476E+00
     12.149  0.6935E-02  0.1482E+00
     12.228  0.5183E-02  0.1486E+00
     12.307  0.4496E-02  0.1489E+00
     12.386  0.1054E-01  0.1498E+00
     12.465  0.3741E-02  0.1501E+00
     12.544  0.5072E-02  0.1505E+00
     12.623  0.7168E-02  0.1510E+00
     12.702  0.6095E-02  0.1515E+00
     12.781  0.5855E-02  0.1520E+00
     12.860  0.6315E-02  0.1525E+00
     12.939  0.9019E-02  0.1532E+00
     13.018  0.5574E-02  0.1536E+00
     13.097  0.1498E-01  0.1548E+00
     13.176  0.9459E-02  0.1556E+00
     13.255  0.2873E-02  0.1558E+00
     13.334  0.4439E-02  0.1561E+00
     13.413  0.3583E-02  0.1564E+00
     13.492  0.5309E-02  0.1568E+00
     13.571  0.5384E-02  0.1573E+00
     13.650  0.1315E-02  0.1574E+00
     13.729  0.1767E-02  0.1575E+00
     13.808  0.4657E-02  0.1579E+00
     13.887  0.1217E-02  0.1580E+00
     13.966  0.1974E-02  0.1581E+00
     14.044  0.3468E-02  0.1584E+00
     14.123  0.2349E-02  0.1586E+00
     14.202  0.2683E-02  0.1588E+00
     14.281  0.3252E-02  0.1590E+00
     14.360  0.6538E-02  0.1596E+00
     14.439  0.1021E-02  0.1596E+00
     14.518  0.4151E-05  0.1596E+00
     14.597  0.2443E-09  0.1596E+00
     14.676  0.1356E-15  0.1596E+00
     14.755  0.0000E+00  0.1596E+00
     14.834  0.3656E-14  0.1596E+00
     14.913  0.2324E-08  0.1596E+00
     14.992  0.1222E-04  0.1596E+00
     15.071  0.7214E-03  0.1597E+00
     15.150  0.1163E-02  0.1598E+00
     15.229  0.1253E-02  0.1599E+00
     15.308  0.6362E-03  0.1599E+00
     15.387  0.6478E-03  0.1600E+00
     15.466  0.6979E-04  0.1600E+00
     15.545  0.1160E-06  0.1600E+00
     15.624  0.1760E-11  0.1600E+00
     15.703  0.2000E-18  0.1600E+00
     15.782  0.0000E+00  0.1600E+00
     15.861  0.0000E+00  0.1600E+00
     15.940  0.0000E+00  0.1600E+00
     16.019  0.0000E+00  0.1600E+00
     16.097  0.0000E+00  0.1600E+00
     16.176  0.0000E+00  0.1600E+00
     16.255  0.0000E+00  0.1600E+00
     16.334  0.0000E+00  0.1600E+00
     16.413  0.0000E+00  0.1600E+00
