    2    2  100    1
  0.2016476E+02  0.3849278E-09  0.3849279E-09  0.3849278E-09  0.5000000E-15
  1.000000000000000E-004
  CAR 
 unknown system                          
      8    120      8
 
  0.0000000E+00  0.0000000E+00  0.0000000E+00  0.2962963E-03
    1       -6.198487   1.000000
    2        5.616550   1.000000
    3        5.616550   1.000000
    4        5.616553   1.000000
    5        8.173621   0.000000
    6        8.173628   0.000000
    7        8.173629   0.000000
    8        8.751362   0.000000
 
  0.6666667E-01 -0.3469447E-17  0.0000000E+00  0.2370370E-02
    1       -6.141237   1.000000
    2        5.023586   1.000000
    3        5.523507   1.000000
    4        5.523509   1.000000
    5        8.209058   0.000000
    6        8.310453   0.000000
    7        8.310460   0.000000
    8        9.212114   0.000000
 
  0.1333333E+00 -0.6938894E-17  0.0000000E+00  0.2370370E-02
    1       -5.970579   1.000000
    2        3.872830   1.000000
    3        5.303141   1.000000
    4        5.303143   1.000000
    5        8.030444   0.000000
    6        8.633751   0.000000
    7        8.633759   0.000000
    8       10.297358   0.000000
 
  0.2000000E+00  0.0000000E+00  0.0000000E+00  0.2370370E-02
    1       -5.690456   1.000000
    2        2.634687   1.000000
    3        5.049020   1.000000
    4        5.049022   1.000000
    5        7.769553   0.000000
    6        8.961266   0.000000
    7        8.961274   0.000000
    8       11.495822   0.000000
 
  0.2666667E+00 -0.1387779E-16  0.0000000E+00  0.2370370E-02
    1       -5.309746   1.000000
    2        1.439011   1.000000
    3        4.817507   1.000000
    4        4.817510   1.000000
    5        7.516512   0.000000
    6        9.129918   0.000000
    7        9.129927   0.000000
    8       12.641446   0.000000
 
  0.3333333E+00 -0.1387779E-16  0.0000000E+00  0.2370370E-02
    1       -4.848349   1.000000
    2        0.347057   1.000000
    3        4.634084   1.000000
    4        4.634087   1.000000
    5        7.309645   0.000000
    6        9.120193   0.000000
    7        9.120202   0.000000
    8       13.400889   0.000000
 
  0.4000000E+00 -0.2775558E-16  0.0000000E+00  0.2370370E-02
    1       -4.357271   1.000000
    2       -0.571708   1.000000
    3        4.509045   1.000000
    4        4.509048   1.000000
    5        7.166015   0.000000
    6        9.037373   0.000000
    7        9.037382   0.000000
    8       13.422278   0.000000
 
  0.4666667E+00 -0.2775558E-16  0.0000000E+00  0.2370370E-02
    1       -3.979537   1.000000
    2       -1.165257   1.000000
    3        4.446035   1.000000
    4        4.446038   1.000000
    5        7.092894   0.000000
    6        8.974942   0.000000
    7        8.974951   0.000000
    8       13.332693   0.000000
 
  0.6666667E-01  0.6666667E-01  0.0000000E+00  0.1777778E-02
    1       -6.122089   1.000000
    2        5.132751   1.000000
    3        5.330500   1.000000
    4        5.330501   1.000000
    5        7.995061   0.000000
    6        8.553725   0.000000
    7        8.553730   0.000000
    8        9.212384   0.000000
 
  0.1333333E+00  0.6666667E-01  0.0000000E+00  0.7111111E-02
    1       -5.989029   1.000000
    2        4.209259   1.000000
    3        5.057701   1.000000
    4        5.223205   1.000000
    5        7.992463   0.000000
    6        8.617762   0.000000
    7        8.947966   0.000000
    8       10.005418   0.000000
 
  0.2000000E+00  0.6666667E-01  0.0000000E+00  0.7111111E-02
    1       -5.744913   1.000000
    2        3.023107   1.000000
    3        4.787271   1.000000
    4        5.007904   1.000000
    5        8.068858   0.000000
    6        8.615450   0.000000
    7        9.331521   0.000000
    8       10.884861   0.000000
 
  0.2666667E+00  0.6666667E-01  0.0000000E+00  0.7111111E-02
    1       -5.396535   1.000000
    2        1.829007   1.000000
    3        4.562719   1.000000
    4        4.737602   1.000000
    5        7.925489   0.000000
    6        8.803831   0.000000
    7        9.543859   0.000000
    8       11.370888   0.000000
 
  0.3333333E+00  0.6666667E-01  0.0000000E+00  0.7111111E-02
    1       -4.958806   1.000000
    2        0.709556   1.000000
    3        4.403549   1.000000
    4        4.478210   1.000000
    5        7.732529   0.000000
    6        8.898270   0.000000
    7        9.534260   0.000000
    8       11.936487   0.000000
 
  0.4000000E+00  0.6666667E-01  0.0000000E+00  0.7111111E-02
    1       -4.468229   1.000000
    2       -0.270347   1.000000
    3        4.260149   1.000000
    4        4.317106   1.000000
    5        7.577331   0.000000
    6        8.886714   0.000000
    7        9.399403   0.000000
    8       12.737454   0.000000
 
  0.4666667E+00  0.6666667E-01  0.0000000E+00  0.7111111E-02
    1       -4.026441   1.000000
    2       -0.995422   1.000000
    3        4.097989   1.000000
    4        4.304316   1.000000
    5        7.483340   0.000000
    6        8.875721   0.000000
    7        9.250247   0.000000
    8       13.381385   0.000000
 
 -0.4666667E+00  0.6666667E-01  0.0000000E+00  0.7111111E-02
    1       -3.875583   1.000000
    2       -1.217248   1.000000
    3        4.000288   1.000000
    4        4.362374   1.000000
    5        7.458490   0.000000
    6        8.924193   0.000000
    7        9.147093   0.000000
    8       13.520861   0.000000
 
 -0.4000000E+00  0.6666667E-01  0.0000000E+00  0.7111111E-02
    1       -4.157165   1.000000
    2       -0.792997   1.000000
    3        3.973223   1.000000
    4        4.485966   1.000000
    5        7.504643   0.000000
    6        9.042582   0.000000
    7        9.106158   0.000000
    8       13.491538   0.000000
 
 -0.3333333E+00  0.6666667E-01  0.0000000E+00  0.7111111E-02
    1       -4.634248   1.000000
    2        0.037363   1.000000
    3        4.021475   1.000000
    4        4.667443   1.000000
    5        7.619929   0.000000
    6        9.103077   0.000000
    7        9.201009   0.000000
    8       13.082222   0.000000
 
 -0.2666667E+00  0.6666667E-01  0.0000000E+00  0.7111111E-02
    1       -5.113677   1.000000
    2        1.071860   1.000000
    3        4.148021   1.000000
    4        4.895346   1.000000
    5        7.798100   0.000000
    6        9.062629   0.000000
    7        9.314084   0.000000
    8       12.326394   0.000000
 
 -0.2000000E+00  0.6666667E-01  0.0000000E+00  0.7111111E-02
    1       -5.524027   1.000000
    2        2.219496   1.000000
    3        4.353763   1.000000
    4        5.149632   1.000000
    5        8.024474   0.000000
    6        8.884594   0.000000
    7        9.233883   0.000000
    8       11.589620   0.000000
 
 -0.1333333E+00  0.6666667E-01  0.0000000E+00  0.7111111E-02
    1       -5.838631   1.000000
    2        3.406153   1.000000
    3        4.640181   1.000000
    4        5.390622   1.000000
    5        8.265136   0.000000
    6        8.582289   0.000000
    7        8.887969   0.000000
    8       10.775221   0.000000
 
 -0.6666667E-01  0.6666667E-01  0.0000000E+00  0.3555556E-02
    1       -6.046089   1.000000
    2        4.461061   1.000000
    3        5.042869   1.000000
    4        5.543968   1.000000
    5        8.331011   0.000000
    6        8.431494   0.000000
    7        8.439061   0.000000
    8        9.839675   0.000000
 
  0.1333333E+00  0.1333333E+00  0.0000000E+00  0.1777778E-02
    1       -5.893606   1.000000
    2        4.127380   1.000000
    3        4.753938   1.000000
    4        4.753938   1.000000
    5        7.573194   0.000000
    6        9.409482   0.000000
    7        9.409486   0.000000
    8        9.882912   0.000000
 
  0.2000000E+00  0.1333333E+00  0.0000000E+00  0.7111111E-02
    1       -5.686204   1.000000
    2        3.253566   1.000000
    3        4.466496   1.000000
    4        4.535825   1.000000
    5        7.539733   0.000000
    6        9.424724   0.000000
    7        9.875114   0.000000
    8       10.219206   0.000000
 
  0.2666667E+00  0.1333333E+00  0.0000000E+00  0.7111111E-02
    1       -5.371971   1.000000
    2        2.162617   1.000000
    3        4.234717   1.000000
    4        4.250487   1.000000
    5        7.730236   0.000000
    6        9.338724   0.000000
    7       10.182036   0.000000
    8       10.267459   0.000000
 
  0.3333333E+00  0.1333333E+00  0.0000000E+00  0.7111111E-02
    1       -4.962056   1.000000
    2        1.072721   1.000000
    3        3.924059   1.000000
    4        4.077209   1.000000
    5        7.826849   0.000000
    6        9.353904   0.000000
    7       10.232023   0.000000
    8       10.479028   0.000000
 
  0.4000000E+00  0.1333333E+00  0.0000000E+00  0.7111111E-02
    1       -4.482687   1.000000
    2        0.072621   1.000000
    3        3.620463   1.000000
    4        4.001711   1.000000
    5        7.799646   0.000000
    6        9.294114   0.000000
    7       10.094921   0.000000
    8       11.180202   0.000000
 
  0.4666667E+00  0.1333333E+00  0.0000000E+00  0.7111111E-02
    1       -4.004699   1.000000
    2       -0.738943   1.000000
    3        3.370778   1.000000
    4        4.009776   1.000000
    5        7.769243   0.000000
    6        9.217582   0.000000
    7        9.898111   0.000000
    8       12.188710   0.000000
 
 -0.4666667E+00  0.1333333E+00  0.0000000E+00  0.7111111E-02
    1       -3.722996   1.000000
    2       -1.154212   1.000000
    3        3.191512   1.000000
    4        4.098618   1.000000
    5        7.796182   0.000000
    6        9.195182   0.000000
    7        9.721238   0.000000
    8       13.292945   0.000000
 
 -0.4000000E+00  0.1333333E+00  0.0000000E+00  0.7111111E-02
    1       -3.878595   1.000000
    2       -0.928107   1.000000
    3        3.093926   1.000000
    4        4.261593   1.000000
    5        7.893429   0.000000
    6        9.248061   0.000000
    7        9.593805   0.000000
    8       13.726226   0.000000
 
 -0.3333333E+00  0.1333333E+00  0.0000000E+00  0.7111111E-02
    1       -4.323185   1.000000
    2       -0.212465   1.000000
    3        3.087998   1.000000
    4        4.487444   1.000000
    5        8.052691   0.000000
    6        9.366700   0.000000
    7        9.502639   0.000000
    8       12.880856   0.000000
 
 -0.2666667E+00  0.1333333E+00  0.0000000E+00  0.7111111E-02
    1       -4.813305   1.000000
    2        0.734323   1.000000
    3        3.186534   1.000000
    4        4.757802   1.000000
    5        8.255543   0.000000
    6        9.381354   0.000000
    7        9.484430   0.000000
    8       11.982025   0.000000
 
 -0.2000000E+00  0.1333333E+00  0.0000000E+00  0.7111111E-02
    1       -5.249392   1.000000
    2        1.770096   1.000000
    3        3.418014   1.000000
    4        5.041099   1.000000
    5        8.471754   0.000000
    6        9.135327   0.000000
    7        9.409338   0.000000
    8       11.365694   0.000000
 
 -0.1333333E+00  0.1333333E+00  0.0000000E+00  0.3555556E-02
    1       -5.596020   1.000000
    2        2.731128   1.000000
    3        3.872479   1.000000
    4        5.281039   1.000000
    5        8.598845   0.000000
    6        8.801964   0.000000
    7        9.035815   0.000000
    8       11.112609   0.000000
 
  0.2000000E+00  0.2000000E+00  0.0000000E+00  0.1777778E-02
    1       -5.515394   1.000000
    2        2.982038   1.000000
    3        4.162223   1.000000
    4        4.162225   1.000000
    5        7.093061   0.000000
    6        9.470071   0.000000
    7       10.457958   0.000000
    8       10.457960   0.000000
 
  0.2666667E+00  0.2000000E+00  0.0000000E+00  0.7111111E-02
    1       -5.236166   1.000000
    2        2.216169   1.000000
    3        3.853962   1.000000
    4        3.915179   1.000000
    5        7.084094   0.000000
    6        9.115916   0.000000
    7       10.728604   0.000000
    8       10.916986   0.000000
 
  0.3333333E+00  0.2000000E+00  0.0000000E+00  0.7111111E-02
    1       -4.856882   1.000000
    2        1.287207   1.000000
    3        3.450937   1.000000
    4        3.745413   1.000000
    5        7.295992   0.000000
    6        9.132767   0.000000
    7       10.644369   0.000000
    8       11.096940   0.000000
 
  0.4000000E+00  0.2000000E+00  0.0000000E+00  0.7111111E-02
    1       -4.396390   1.000000
    2        0.353116   1.000000
    3        3.039751   1.000000
    4        3.662060   1.000000
    5        7.403735   0.000000
    6        9.686572   0.000000
    7       10.477483   0.000000
    8       11.012846   0.000000
 
  0.4666667E+00  0.2000000E+00  0.0000000E+00  0.7111111E-02
    1       -3.903683   1.000000
    2       -0.476206   1.000000
    3        2.685040   1.000000
    4        3.667948   1.000000
    5        7.438099   0.000000
    6       10.317137   0.000000
    7       10.647103   0.000000
    8       10.807549   0.000000
 
 -0.4666667E+00  0.2000000E+00  0.0000000E+00  0.7111111E-02
    1       -3.523057   1.000000
    2       -1.026366   1.000000
    3        2.415162   1.000000
    4        3.761464   1.000000
    5        7.515296   0.000000
    6       10.211990   0.000000
    7       10.587903   0.000000
    8       11.820290   0.000000
 
 -0.4000000E+00  0.2000000E+00  0.0000000E+00  0.7111111E-02
    1       -3.535493   1.000000
    2       -1.005264   1.000000
    3        2.247120   1.000000
    4        3.936710   1.000000
    5        7.675247   0.000000
    6       10.163735   0.000000
    7       10.397302   0.000000
    8       13.111631   0.000000
 
 -0.3333333E+00  0.2000000E+00  0.0000000E+00  0.7111111E-02
    1       -3.926969   1.000000
    2       -0.433457   1.000000
    3        2.200124   1.000000
    4        4.182206   1.000000
    5        7.915426   0.000000
    6       10.169636   0.000000
    7       10.224251   0.000000
    8       12.759114   0.000000
 
 -0.2666667E+00  0.2000000E+00  0.0000000E+00  0.7111111E-02
    1       -4.418586   1.000000
    2        0.372878   1.000000
    3        2.313077   1.000000
    4        4.477453   1.000000
    5        8.205209   0.000000
    6        9.985373   0.000000
    7       10.165149   0.000000
    8       11.773175   0.000000
 
 -0.2000000E+00  0.2000000E+00  0.0000000E+00  0.3555556E-02
    1       -4.874838   1.000000
    2        1.170044   1.000000
    3        2.683178   1.000000
    4        4.785541   1.000000
    5        8.467804   0.000000
    6        9.582403   0.000000
    7        9.886413   0.000000
    8       11.273975   0.000000
 
  0.2666667E+00  0.2666667E+00  0.0000000E+00  0.1777778E-02
    1       -4.991592   1.000000
    2        1.802693   1.000000
    3        3.649500   1.000000
    4        3.649502   1.000000
    5        6.673001   0.000000
    6        8.511638   0.000000
    7       11.597331   0.000000
    8       11.597332   0.000000
 
  0.3333333E+00  0.2666667E+00  0.0000000E+00  0.7111111E-02
    1       -4.644350   1.000000
    2        1.123262   1.000000
    3        3.301970   1.000000
    4        3.460575   1.000000
    5        6.715454   0.000000
    6        8.209211   0.000000
    7       11.875707   0.000000
    8       12.013431   0.000000
 
  0.4000000E+00  0.2666667E+00  0.0000000E+00  0.7111111E-02
    1       -4.207918   1.000000
    2        0.363423   1.000000
    3        2.793099   1.000000
    4        3.359391   1.000000
    5        6.925656   0.000000
    6        8.407046   0.000000
    7       11.811052   0.000000
    8       12.065395   0.000000
 
  0.4666667E+00  0.2666667E+00  0.0000000E+00  0.7111111E-02
    1       -3.715962   1.000000
    2       -0.378044   1.000000
    3        2.292551   1.000000
    4        3.350220   1.000000
    5        7.020476   0.000000
    6        9.172506   0.000000
    7       11.666875   0.000000
    8       11.895676   0.000000
 
 -0.4666667E+00  0.2666667E+00  0.0000000E+00  0.7111111E-02
    1       -3.270035   1.000000
    2       -0.966344   1.000000
    3        1.892182   1.000000
    4        3.432732   1.000000
    5        7.113633   0.000000
    6       10.256986   0.000000
    7       11.545578   0.000000
    8       11.658276   0.000000
 
 -0.4000000E+00  0.2666667E+00  0.0000000E+00  0.7111111E-02
    1       -3.144026   1.000000
    2       -1.113684   1.000000
    3        1.633318   1.000000
    4        3.602293   1.000000
    5        7.287348   0.000000
    6       11.234222   0.000000
    7       11.415843   0.000000
    8       11.748975   0.000000
 
 -0.3333333E+00  0.2666667E+00  0.0000000E+00  0.7111111E-02
    1       -3.467969   1.000000
    2       -0.707692   1.000000
    3        1.557632   1.000000
    4        3.848678   1.000000
    5        7.552411   0.000000
    6       11.136499   0.000000
    7       11.276325   0.000000
    8       12.665172   0.000000
 
 -0.2666667E+00  0.2666667E+00  0.0000000E+00  0.3555556E-02
    1       -3.951207   1.000000
    2       -0.116475   1.000000
    3        1.749478   1.000000
    4        4.152489   1.000000
    5        7.884476   0.000000
    6       10.663293   0.000000
    7       11.002933   0.000000
    8       11.859633   0.000000
 
  0.3333333E+00  0.3333333E+00  0.0000000E+00  0.1777778E-02
    1       -4.328537   1.000000
    2        0.626422   1.000000
    3        3.249587   1.000000
    4        3.249590   1.000000
    5        6.375143   0.000000
    6        7.638389   0.000000
    7       12.789888   0.000000
    8       12.789889   0.000000
 
  0.4000000E+00  0.3333333E+00  0.0000000E+00  0.7111111E-02
    1       -3.918916   1.000000
    2        0.011334   1.000000
    3        2.905789   1.000000
    4        3.125761   1.000000
    5        6.478257   0.000000
    6        7.463014   0.000000
    7       13.091785   0.000000
    8       13.148155   0.000000
 
  0.4666667E+00  0.3333333E+00  0.0000000E+00  0.7111111E-02
    1       -3.438162   1.000000
    2       -0.610802   1.000000
    3        2.349398   1.000000
    4        3.094910   1.000000
    5        6.662126   0.000000
    6        7.899983   0.000000
    7       13.047138   0.000000
    8       13.097259   0.000000
 
 -0.4666667E+00  0.3333333E+00  0.0000000E+00  0.7111111E-02
    1       -2.955442   1.000000
    2       -1.154847   1.000000
    3        1.810386   1.000000
    4        3.158007   1.000000
    5        6.767858   0.000000
    6        8.866231   0.000000
    7       12.869851   0.000000
    8       12.915663   0.000000
 
 -0.4000000E+00  0.3333333E+00  0.0000000E+00  0.7111111E-02
    1       -2.724169   1.000000
    2       -1.384326   1.000000
    3        1.427791   1.000000
    4        3.311777   1.000000
    5        6.937691   0.000000
    6       10.084097   0.000000
    7       12.559780   0.000000
    8       12.788156   0.000000
 
 -0.3333333E+00  0.3333333E+00  0.0000000E+00  0.3555556E-02
    1       -3.001612   1.000000
    2       -1.096872   1.000000
    3        1.305990   1.000000
    4        3.547674   1.000000
    5        7.204627   0.000000
    6       11.394098   0.000000
    7       12.024721   0.000000
    8       12.587817   0.000000
 
  0.4000000E+00  0.4000000E+00  0.0000000E+00  0.1777778E-02
    1       -3.535286   1.000000
    2       -0.520584   1.000000
    3        2.977279   1.000000
    4        2.977281   1.000000
    5        6.234558   0.000000
    6        6.966207   0.000000
    7       14.017574   0.000000
    8       14.017575   0.000000
 
  0.4666667E+00  0.4000000E+00  0.0000000E+00  0.7111111E-02
    1       -3.071615   1.000000
    2       -1.080467   1.000000
    3        2.668394   1.000000
    4        2.921536   1.000000
    5        6.390527   0.000000
    6        6.946289   0.000000
    7       14.310709   0.000000
    8       14.335967   0.000000
 
 -0.4666667E+00  0.4000000E+00  0.0000000E+00  0.7111111E-02
    1       -2.573150   1.000000
    2       -1.589088   1.000000
    3        2.130743   1.000000
    4        2.960815   1.000000
    5        6.525668   0.000000
    6        7.645551   0.000000
    7       14.146215   0.000000
    8       14.308000   0.000000
 
 -0.4000000E+00  0.4000000E+00  0.0000000E+00  0.3555556E-02
    1       -2.359876   1.000000
    2       -1.756643   1.000000
    3        1.647325   1.000000
    4        3.093173   1.000000
    5        6.680485   0.000000
    6        8.765633   0.000000
    7       13.613960   0.000000
    8       14.189130   0.000000
 
  0.4666667E+00  0.4666667E+00  0.0000000E+00  0.1777778E-02
    1       -2.624344   1.000000
    2       -1.612400   1.000000
    3        2.839650   1.000000
    4        2.839652   1.000000
    5        6.274665   0.000000
    6        6.513733   0.000000
    7       15.216302   0.000000
    8       15.216304   0.000000
 
 -0.4666667E+00  0.4666667E+00  0.0000000E+00  0.3555556E-02
    1       -2.147554   1.000000
    2       -2.088245   1.000000
    3        2.589349   1.000000
    4        2.852958   1.000000
    5        6.403526   0.000000
    6        6.730244   0.000000
    7       15.191283   0.000000
    8       15.336576   0.000000
 
  0.2000000E+00  0.1333333E+00  0.6666667E-01  0.7111111E-02
    1       -5.818949   1.000000
    2        3.557778   1.000000
    3        4.461772   1.000000
    4        5.147015   1.000000
    5        7.978351   0.000000
    6        8.878248   0.000000
    7        9.272121   0.000000
    8       10.494731   0.000000
 
  0.2666667E+00  0.1333333E+00  0.6666667E-01  0.1422222E-01
    1       -5.539738   1.000000
    2        2.546929   1.000000
    3        4.024855   1.000000
    4        4.968868   1.000000
    5        8.162569   0.000000
    6        8.870378   0.000000
    7        9.662246   0.000000
    8       10.724865   0.000000
 
  0.3333333E+00  0.1333333E+00  0.6666667E-01  0.1422222E-01
    1       -5.160053   1.000000
    2        1.439986   1.000000
    3        3.750736   1.000000
    4        4.716230   1.000000
    5        8.196091   0.000000
    6        8.922128   0.000000
    7        9.858603   0.000000
    8       10.960132   0.000000
 
  0.4000000E+00  0.1333333E+00  0.6666667E-01  0.1422222E-01
    1       -4.699433   1.000000
    2        0.389919   1.000000
    3        3.574699   1.000000
    4        4.469622   1.000000
    5        8.086732   0.000000
    6        8.928243   0.000000
    7        9.834554   0.000000
    8       11.577027   0.000000
 
  0.4666667E+00  0.1333333E+00  0.6666667E-01  0.1422222E-01
    1       -4.207885   1.000000
    2       -0.508694   1.000000
    3        3.473894   1.000000
    4        4.277042   1.000000
    5        7.979720   0.000000
    6        8.856449   0.000000
    7        9.737121   0.000000
    8       12.493235   0.000000
 
 -0.4666667E+00  0.1333333E+00  0.6666667E-01  0.1422222E-01
    1       -3.827671   1.000000
    2       -1.095859   1.000000
    3        3.430514   1.000000
    4        4.170655   1.000000
    5        7.920890   0.000000
    6        8.798476   0.000000
    7        9.666968   0.000000
    8       13.451206   0.000000
 
  0.2666667E+00  0.2000000E+00  0.6666667E-01  0.7111111E-02
    1       -5.443204   1.000000
    2        2.592354   1.000000
    3        3.867451   1.000000
    4        4.455941   1.000000
    5        7.517338   0.000000
    6        9.488619   0.000000
    7       10.148470   0.000000
    8       10.354041   0.000000
 
  0.3333333E+00  0.2000000E+00  0.6666667E-01  0.1422222E-01
    1       -5.096407   1.000000
    2        1.683768   1.000000
    3        3.429260   1.000000
    4        4.255973   1.000000
    5        7.749636   0.000000
    6        9.477276   0.000000
    7       10.000122   0.000000
    8       10.723777   0.000000
 
  0.4000000E+00  0.2000000E+00  0.6666667E-01  0.1422222E-01
    1       -4.660209   1.000000
    2        0.705418   1.000000
    3        3.133121   1.000000
    4        4.023658   1.000000
    5        7.901774   0.000000
    6        9.591194   0.000000
    7       10.088957   0.000000
    8       10.824612   0.000000
 
  0.4666667E+00  0.2000000E+00  0.6666667E-01  0.1422222E-01
    1       -4.169624   1.000000
    2       -0.202385   1.000000
    3        2.914246   1.000000
    4        3.856078   1.000000
    5        7.935722   0.000000
    6        9.408482   0.000000
    7       10.705006   0.000000
    8       10.949532   0.000000
 
 -0.4666667E+00  0.2000000E+00  0.6666667E-01  0.1422222E-01
    1       -3.724550   1.000000
    2       -0.895051   1.000000
    3        2.746860   1.000000
    4        3.798720   1.000000
    5        7.977895   0.000000
    6        9.219477   0.000000
    7       10.628536   0.000000
    8       12.023704   0.000000
 
 -0.4000000E+00  0.2000000E+00  0.6666667E-01  0.1422222E-01
    1       -3.573778   1.000000
    2       -1.106244   1.000000
    3        2.634043   1.000000
    4        3.858529   1.000000
    5        8.083978   0.000000
    6        9.087808   0.000000
    7       10.556595   0.000000
    8       13.248560   0.000000
 
 -0.3333333E+00  0.2000000E+00  0.6666667E-01  0.1422222E-01
    1       -3.863563   1.000000
    2       -0.687029   1.000000
    3        2.594185   1.000000
    4        4.020765   1.000000
    5        8.257476   0.000000
    6        9.025538   0.000000
    7       10.526188   0.000000
    8       12.366285   0.000000
 
 -0.2666667E+00  0.2000000E+00  0.6666667E-01  0.1422222E-01
    1       -4.343327   1.000000
    2        0.099799   1.000000
    3        2.652091   1.000000
    4        4.260916   1.000000
    5        8.471963   0.000000
    6        9.009135   0.000000
    7       10.499827   0.000000
    8       11.364819   0.000000
 
 -0.2000000E+00  0.2000000E+00  0.6666667E-01  0.1422222E-01
    1       -4.820904   1.000000
    2        1.020902   1.000000
    3        2.848271   1.000000
    4        4.543834   1.000000
    5        8.656935   0.000000
    6        8.939122   0.000000
    7       10.386373   0.000000
    8       10.699088   0.000000
 
 -0.1333333E+00  0.2000000E+00  0.6666667E-01  0.7111111E-02
    1       -5.228100   1.000000
    2        1.895405   1.000000
    3        3.275453   1.000000
    4        4.811500   1.000000
    5        8.491977   0.000000
    6        8.928852   0.000000
    7       10.089450   0.000000
    8       10.513956   0.000000
 
  0.3333333E+00  0.2666667E+00  0.6666667E-01  0.7111111E-02
    1       -4.923422   1.000000
    2        1.575220   1.000000
    3        3.357845   1.000000
    4        3.787969   1.000000
    5        7.107232   0.000000
    6        8.774778   0.000000
    7       10.895912   0.000000
    8       11.530609   0.000000
 
  0.4000000E+00  0.2666667E+00  0.6666667E-01  0.1422222E-01
    1       -4.515480   1.000000
    2        0.794998   1.000000
    3        2.909197   1.000000
    4        3.582716   1.000000
    5        7.370602   0.000000
    6        8.825966   0.000000
    7       10.744187   0.000000
    8       11.878450   0.000000
 
  0.4666667E+00  0.2666667E+00  0.6666667E-01  0.1422222E-01
    1       -4.036872   1.000000
    2       -0.015206   1.000000
    3        2.518878   1.000000
    4        3.434523   1.000000
    5        7.513894   0.000000
    6        9.445224   0.000000
    7       10.513562   0.000000
    8       11.906479   0.000000
 
 -0.4666667E+00  0.2666667E+00  0.6666667E-01  0.1422222E-01
    1       -3.555819   1.000000
    2       -0.723602   1.000000
    3        2.195778   1.000000
    4        3.403530   1.000000
    5        7.592643   0.000000
    6       10.198803   0.000000
    7       10.546228   0.000000
    8       11.807942   0.000000
 
 -0.4000000E+00  0.2666667E+00  0.6666667E-01  0.1422222E-01
    1       -3.274669   1.000000
    2       -1.092861   1.000000
    3        1.963571   1.000000
    4        3.488960   1.000000
    5        7.726511   0.000000
    6       10.049433   0.000000
    7       11.651046   0.000000
    8       11.769403   0.000000
 
 -0.3333333E+00  0.2666667E+00  0.6666667E-01  0.1422222E-01
    1       -3.451279   1.000000
    2       -0.857636   1.000000
    3        1.850019   1.000000
    4        3.675214   1.000000
    5        7.944856   0.000000
    6        9.902740   0.000000
    7       11.575255   0.000000
    8       12.323233   0.000000
 
 -0.2666667E+00  0.2666667E+00  0.6666667E-01  0.1422222E-01
    1       -3.905836   1.000000
    2       -0.225499   1.000000
    3        1.898855   1.000000
    4        3.940441   1.000000
    5        8.236835   0.000000
    6        9.751890   0.000000
    7       11.189920   0.000000
    8       11.535786   0.000000
 
 -0.2000000E+00  0.2666667E+00  0.6666667E-01  0.7111111E-02
    1       -4.392345   1.000000
    2        0.468871   1.000000
    3        2.199350   1.000000
    4        4.250440   1.000000
    5        8.556816   0.000000
    6        9.389811   0.000000
    7       10.649647   0.000000
    8       11.107493   0.000000
 
  0.4000000E+00  0.3333333E+00  0.6666667E-01  0.7111111E-02
    1       -4.266713   1.000000
    2        0.515687   1.000000
    3        2.969033   1.000000
    4        3.251679   1.000000
    5        6.810019   0.000000
    6        7.947661   0.000000
    7       11.948385   0.000000
    8       12.758043   0.000000
 
  0.4666667E+00  0.3333333E+00  0.6666667E-01  0.1422222E-01
    1       -3.807606   1.000000
    2       -0.141407   1.000000
    3        2.495684   1.000000
    4        3.089463   1.000000
    5        7.088593   0.000000
    6        8.185036   0.000000
    7       11.758449   0.000000
    8       13.095659   0.000000
 
 -0.4666667E+00  0.3333333E+00  0.6666667E-01  0.1422222E-01
    1       -3.312482   1.000000
    2       -0.769037   1.000000
    3        2.002508   1.000000
    4        3.061380   1.000000
    5        7.215970   0.000000
    6        9.027456   0.000000
    7       11.516916   0.000000
    8       13.085894   0.000000
 