 vasp.6.2.0 18Jan21 (build Aug 12 2022 13:00:08) complex                        
  
 executed on             LinuxIFC date 2024.11.03  22:27:21
 running on    4 total cores
 distrk:  each k-point on    4 cores,    1 groups
 distr:  one band on NCORE=   1 cores,    4 groups


--------------------------------------------------------------------------------------------------------


 INCAR:
   ISTART = 0            (Read existing wavefunction, if there)
   ISPIN = 1            (Non-Spin polarised DFT)
   LREAL = .FALSE.       (Projection operators: automatic)
   LWAVE = .FALSE.        (Write WAVECAR or not)
   LCHARG = .FALSE.        (Write CHGCAR or not)
   ADDGRID = .TRUE.        (Increase grid, helps GGA convergence)
   LASPH = .TRUE.        (Give more accurate total energies and band structure calculations)
   PREC = Accurate      (Accurate strictly avoids any aliasing or wrap around errors)
   ENCUT = 600          (Cut-off energy for plane wave basis set, in eV)
   ISMEAR = 0            (Gaussian smearing, metals:1)
   SIGMA = 0.05         (Smearing value in eV, metals:0.2)
   NELM = 90           (Max electronic SCF steps)
   NELMIN = 6            (Min electronic SCF steps)
   EDIFF = 1E-06        (SCF energy convergence, in eV)
   NSW = 100          (Max ionic steps)
   IBRION = 2            (Algorithm: 0-MD, 1-Quasi-New, 2-CG)
   ISIF = 3            (Stress/relaxation: 2-Ions, 3-Shape/Ions/V, 4-Shape/Ions)
   EDIFFG = -2E-03        (Ionic convergence, eV/AA)
   ISYM = 2              (Symmetry: 0\=none, 2\=GGA, 3\=hybrids)

 POTCAR:    PAW_PBE Si 05Jan2001                  
 POTCAR:    PAW_PBE Si 05Jan2001                  
   VRHFIN =Si: s2p2                                                                                 
   LEXCH  = PE                                                                                      
   EATOM  =   103.0669 eV,    7.5752 Ry                                                             
                                                                                                    
   TITEL  = PAW_PBE Si 05Jan2001                                                                    
   LULTRA =        F    use ultrasoft PP ?                                                          
   IUNSCR =        1    unscreen: 0-lin 1-nonlin 2-no                                               
   RPACOR =    1.500    partial core radius                                                         
   POMASS =   28.085; ZVAL   =    4.000    mass and valenz                                          
   RCORE  =    1.900    outmost cutoff radius                                                       
   RWIGS  =    2.480; RWIGS  =    1.312    wigner-seitz radius (au A)                               
   ENMAX  =  245.345; ENMIN  =  184.009 eV                                                          
   ICORE  =        2    local potential                                                             
   LCOR   =        T    correct aug charges                                                         
   LPAW   =        T    paw PP                                                                      
   EAUG   =  322.069                                                                                
   DEXC   =    0.000                                                                                
   RMAX   =    1.950    core radius for proj-oper                                                   
   RAUG   =    1.300    factor for augmentation sphere                                              
   RDEP   =    1.993    radius for radial grids                                                     
   RDEPT  =    1.837    core radius for aug-charge                                                  
                                                                                                    
   Atomic configuration                                                                             
    6 entries                                                                                       
     n  l   j            E        occ.                                                              
     1  0  0.50     -1785.8828   2.0000                                                             
     2  0  0.50      -139.4969   2.0000                                                             
     2  1  1.50       -95.5546   6.0000                                                             
     3  0  0.50       -10.8127   2.0000                                                             
     3  1  0.50        -4.0811   2.0000                                                             
     3  2  1.50        -4.0817   0.0000                                                             
   Description                                                                                      
     l       E           TYP  RCUT    TYP  RCUT                                                     
     0    -10.8127223     23  1.900                                                                 
     0     -7.6451159     23  1.900                                                                 
     1     -4.0811372     23  1.900                                                                 
     1      2.4879257     23  1.900                                                                 
     2     -4.0817478      7  1.900                                                                 
  local pseudopotential read in
  partial core-charges read in
  partial kinetic energy density read in
  atomic valenz-charges read in
  non local Contribution for L=           0  read in
    real space projection operators read in
  non local Contribution for L=           0  read in
    real space projection operators read in
  non local Contribution for L=           1  read in
    real space projection operators read in
  non local Contribution for L=           1  read in
    real space projection operators read in
    PAW grid and wavefunctions read in
 
   number of l-projection  operators is LMAX  =           4
   number of lm-projection operators is LMMAX =           8
 
  PAW_PBE Si 05Jan2001                  :
 energy of atom  1       EATOM= -103.0669
 kinetic energy error for atom=    0.0003 (will be added to EATOM!!)
 
 
 POSCAR: Si2
  positions in direct lattice
  No initial velocities read in
 exchange correlation table for  LEXCH =        8
   RHO(1)=    0.500       N(1)  =     2000
   RHO(2)=  100.500       N(2)  =     4000
 


--------------------------------------------------------------------------------------------------------


 ion  position               nearest neighbor table
   1  0.875  0.875  0.875-   2 2.36   2 2.36   2 2.36   2 2.36
   2  0.125  0.125  0.125-   1 2.36   1 2.36   1 2.36   1 2.36
 
  LATTYP: Found a face centered cubic cell.
 ALAT       =     5.4437031493
  
  Lattice vectors:
  
 A1 = (   3.3335730000,   0.0000000000,   1.9246390000)
 A2 = (   1.1111910000,   3.1429240000,   1.9246390000)
 A3 = (   0.0000000000,   0.0000000000,   3.8492780000)


Analysis of symmetry for initial positions (statically):
=====================================================================
 Subroutine PRICEL returns:
 Original cell was already a primitive cell.
 

 Routine SETGRP: Setting up the symmetry group for a 
 face centered cubic supercell.


 Subroutine GETGRP returns: Found 48 space group operations
 (whereof 12 operations were pure point group operations)
 out of a pool of 48 trial point group operations.


The static configuration has the point symmetry D_3d.
 The point group associated with its full space group is O_h .


Analysis of symmetry for dynamics (positions and initial velocities):
=====================================================================
 Subroutine PRICEL returns:
 Original cell was already a primitive cell.
 

 Routine SETGRP: Setting up the symmetry group for a 
 face centered cubic supercell.


 Subroutine GETGRP returns: Found 48 space group operations
 (whereof 12 operations were pure point group operations)
 out of a pool of 48 trial point group operations.


The dynamic configuration has the point symmetry D_3d.
 The point group associated with its full space group is O_h .


 Subroutine INISYM returns: Found 48 space group operations
 (whereof 12 operations are pure point group operations),
 and found     1 'primitive' translations


----------------------------------------------------------------------------------------

                                     Primitive cell                                     

  volume of cell :      40.3295

  direct lattice vectors                    reciprocal lattice vectors
     3.333573000  0.000000000  1.924639000     0.299978432 -0.106058350  0.000000000
     1.111191000  3.142924000  1.924639000     0.000000000  0.318175050  0.000000000
     0.000000000  0.000000000  3.849278000    -0.149989216 -0.106058350  0.259788979

  length of vectors
     3.849278403  3.849279412  3.849278000     0.318175161  0.318175050  0.318175190

  position of ions in fractional coordinates (direct lattice)
     0.875000000  0.875000000  0.875000000
     0.125000000  0.125000000  0.125000000

  ion indices of the primitive-cell ions
   primitive index   ion index
                 1           1
                 2           2

----------------------------------------------------------------------------------------

 
 
 KPOINTS: Automatic                               

Automatic generation of k-mesh.
 Grid dimensions read from file:
 generate k-points for:   15   15   15

 Generating k-lattice:

  Cartesian coordinates                     Fractional coordinates (reciprocal lattice)
     0.019998562 -0.007070557  0.000000000     0.066666667  0.000000000  0.000000000
     0.000000000  0.021211670  0.000000000     0.000000000  0.066666667  0.000000000
    -0.009999281 -0.007070557  0.017319265     0.000000000  0.000000000  0.066666667

  Length of vectors
     0.021211677  0.021211670  0.021211679

  Shift w.r.t. Gamma in fractional coordinates (k-lattice)
     0.000000000  0.000000000  0.000000000

 
 Subroutine IBZKPT returns following result:
 ===========================================
 
 Found    120 irreducible k-points:
 
 Following reciprocal coordinates:
            Coordinates               Weight
  0.000000  0.000000  0.000000      1.000000
  0.066667 -0.000000  0.000000      8.000000
  0.133333 -0.000000  0.000000      8.000000
  0.200000  0.000000  0.000000      8.000000
  0.266667 -0.000000  0.000000      8.000000
  0.333333 -0.000000  0.000000      8.000000
  0.400000 -0.000000  0.000000      8.000000
  0.466667 -0.000000  0.000000      8.000000
  0.066667  0.066667  0.000000      6.000000
  0.133333  0.066667  0.000000     24.000000
  0.200000  0.066667  0.000000     24.000000
  0.266667  0.066667  0.000000     24.000000
  0.333333  0.066667  0.000000     24.000000
  0.400000  0.066667  0.000000     24.000000
  0.466667  0.066667  0.000000     24.000000
 -0.466667  0.066667  0.000000     24.000000
 -0.400000  0.066667  0.000000     24.000000
 -0.333333  0.066667  0.000000     24.000000
 -0.266667  0.066667  0.000000     24.000000
 -0.200000  0.066667  0.000000     24.000000
 -0.133333  0.066667  0.000000     24.000000
 -0.066667  0.066667  0.000000     12.000000
  0.133333  0.133333  0.000000      6.000000
  0.200000  0.133333  0.000000     24.000000
  0.266667  0.133333  0.000000     24.000000
  0.333333  0.133333  0.000000     24.000000
  0.400000  0.133333  0.000000     24.000000
  0.466667  0.133333  0.000000     24.000000
 -0.466667  0.133333  0.000000     24.000000
 -0.400000  0.133333  0.000000     24.000000
 -0.333333  0.133333  0.000000     24.000000
 -0.266667  0.133333  0.000000     24.000000
 -0.200000  0.133333  0.000000     24.000000
 -0.133333  0.133333  0.000000     12.000000
  0.200000  0.200000  0.000000      6.000000
  0.266667  0.200000  0.000000     24.000000
  0.333333  0.200000  0.000000     24.000000
  0.400000  0.200000  0.000000     24.000000
  0.466667  0.200000  0.000000     24.000000
 -0.466667  0.200000  0.000000     24.000000
 -0.400000  0.200000  0.000000     24.000000
 -0.333333  0.200000  0.000000     24.000000
 -0.266667  0.200000  0.000000     24.000000
 -0.200000  0.200000  0.000000     12.000000
  0.266667  0.266667  0.000000      6.000000
  0.333333  0.266667  0.000000     24.000000
  0.400000  0.266667  0.000000     24.000000
  0.466667  0.266667  0.000000     24.000000
 -0.466667  0.266667  0.000000     24.000000
 -0.400000  0.266667  0.000000     24.000000
 -0.333333  0.266667  0.000000     24.000000
 -0.266667  0.266667  0.000000     12.000000
  0.333333  0.333333  0.000000      6.000000
  0.400000  0.333333  0.000000     24.000000
  0.466667  0.333333  0.000000     24.000000
 -0.466667  0.333333  0.000000     24.000000
 -0.400000  0.333333  0.000000     24.000000
 -0.333333  0.333333  0.000000     12.000000
  0.400000  0.400000  0.000000      6.000000
  0.466667  0.400000  0.000000     24.000000
 -0.466667  0.400000  0.000000     24.000000
 -0.400000  0.400000  0.000000     12.000000
  0.466667  0.466667  0.000000      6.000000
 -0.466667  0.466667  0.000000     12.000000
  0.200000  0.133333  0.066667     24.000000
  0.266667  0.133333  0.066667     48.000000
  0.333333  0.133333  0.066667     48.000000
  0.400000  0.133333  0.066667     48.000000
  0.466667  0.133333  0.066667     48.000000
 -0.466667  0.133333  0.066667     48.000000
  0.266667  0.200000  0.066667     24.000000
  0.333333  0.200000  0.066667     48.000000
  0.400000  0.200000  0.066667     48.000000
  0.466667  0.200000  0.066667     48.000000
 -0.466667  0.200000  0.066667     48.000000
 -0.400000  0.200000  0.066667     48.000000
 -0.333333  0.200000  0.066667     48.000000
 -0.266667  0.200000  0.066667     48.000000
 -0.200000  0.200000  0.066667     48.000000
 -0.133333  0.200000  0.066667     24.000000
  0.333333  0.266667  0.066667     24.000000
  0.400000  0.266667  0.066667     48.000000
  0.466667  0.266667  0.066667     48.000000
 -0.466667  0.266667  0.066667     48.000000
 -0.400000  0.266667  0.066667     48.000000
 -0.333333  0.266667  0.066667     48.000000
 -0.266667  0.266667  0.066667     48.000000
 -0.200000  0.266667  0.066667     24.000000
  0.400000  0.333333  0.066667     24.000000
  0.466667  0.333333  0.066667     48.000000
 -0.466667  0.333333  0.066667     48.000000
 -0.400000  0.333333  0.066667     48.000000
 -0.333333  0.333333  0.066667     48.000000
 -0.266667  0.333333  0.066667     24.000000
  0.466667  0.400000  0.066667     24.000000
 -0.466667  0.400000  0.066667     48.000000
 -0.400000  0.400000  0.066667     48.000000
 -0.333333  0.400000  0.066667     24.000000
 -0.466667  0.466667  0.066667     24.000000
 -0.400000  0.466667  0.066667     24.000000
  0.400000  0.266667  0.133333     24.000000
  0.466667  0.266667  0.133333     48.000000
 -0.466667  0.266667  0.133333     48.000000
 -0.400000  0.266667  0.133333     48.000000
  0.466667  0.333333  0.133333     24.000000
 -0.466667  0.333333  0.133333     48.000000
 -0.400000  0.333333  0.133333     48.000000
 -0.333333  0.333333  0.133333     48.000000
 -0.266667  0.333333  0.133333     48.000000
 -0.200000  0.333333  0.133333     24.000000
 -0.466667  0.400000  0.133333     24.000000
 -0.400000  0.400000  0.133333     48.000000
 -0.333333  0.400000  0.133333     48.000000
 -0.266667  0.400000  0.133333     24.000000
 -0.400000  0.466667  0.133333     24.000000
 -0.333333  0.466667  0.133333     24.000000
 -0.400000  0.400000  0.200000     24.000000
 -0.333333  0.400000  0.200000     48.000000
 -0.333333  0.466667  0.200000     24.000000
 -0.266667  0.466667  0.200000     24.000000
 
 Following cartesian coordinates:
            Coordinates               Weight
  0.000000  0.000000  0.000000      1.000000
  0.019999 -0.007071  0.000000      8.000000
  0.039997 -0.014141  0.000000      8.000000
  0.059996 -0.021212  0.000000      8.000000
  0.079994 -0.028282  0.000000      8.000000
  0.099993 -0.035353  0.000000      8.000000
  0.119991 -0.042423  0.000000      8.000000
  0.139990 -0.049494  0.000000      8.000000
  0.019999  0.014141  0.000000      6.000000
  0.039997  0.007071  0.000000     24.000000
  0.059996  0.000000  0.000000     24.000000
  0.079994 -0.007071  0.000000     24.000000
  0.099993 -0.014141  0.000000     24.000000
  0.119991 -0.021212  0.000000     24.000000
  0.139990 -0.028282  0.000000     24.000000
 -0.139990  0.070706  0.000000     24.000000
 -0.119991  0.063635  0.000000     24.000000
 -0.099993  0.056564  0.000000     24.000000
 -0.079994  0.049494  0.000000     24.000000
 -0.059996  0.042423  0.000000     24.000000
 -0.039997  0.035353  0.000000     24.000000
 -0.019999  0.028282  0.000000     12.000000
  0.039997  0.028282  0.000000      6.000000
  0.059996  0.021212  0.000000     24.000000
  0.079994  0.014141  0.000000     24.000000
  0.099993  0.007071  0.000000     24.000000
  0.119991  0.000000  0.000000     24.000000
  0.139990 -0.007071  0.000000     24.000000
 -0.139990  0.091917  0.000000     24.000000
 -0.119991  0.084847  0.000000     24.000000
 -0.099993  0.077776  0.000000     24.000000
 -0.079994  0.070706  0.000000     24.000000
 -0.059996  0.063635  0.000000     24.000000
 -0.039997  0.056564  0.000000     12.000000
  0.059996  0.042423  0.000000      6.000000
  0.079994  0.035353  0.000000     24.000000
  0.099993  0.028282  0.000000     24.000000
  0.119991  0.021212  0.000000     24.000000
  0.139990  0.014141  0.000000     24.000000
 -0.139990  0.113129  0.000000     24.000000
 -0.119991  0.106058  0.000000     24.000000
 -0.099993  0.098988  0.000000     24.000000
 -0.079994  0.091917  0.000000     24.000000
 -0.059996  0.084847  0.000000     12.000000
  0.079994  0.056564  0.000000      6.000000
  0.099993  0.049494  0.000000     24.000000
  0.119991  0.042423  0.000000     24.000000
  0.139990  0.035353  0.000000     24.000000
 -0.139990  0.134341  0.000000     24.000000
 -0.119991  0.127270  0.000000     24.000000
 -0.099993  0.120199  0.000000     24.000000
 -0.079994  0.113129  0.000000     12.000000
  0.099993  0.070706  0.000000      6.000000
  0.119991  0.063635  0.000000     24.000000
  0.139990  0.056564  0.000000     24.000000
 -0.139990  0.155552  0.000000     24.000000
 -0.119991  0.148482  0.000000     24.000000
 -0.099993  0.141411  0.000000     12.000000
  0.119991  0.084847  0.000000      6.000000
  0.139990  0.077776  0.000000     24.000000
 -0.139990  0.176764  0.000000     24.000000
 -0.119991  0.169693  0.000000     12.000000
  0.139990  0.098988  0.000000      6.000000
 -0.139990  0.197976  0.000000     12.000000
  0.049996  0.014141  0.017319     24.000000
  0.069995  0.007071  0.017319     48.000000
  0.089994 -0.000000  0.017319     48.000000
  0.109992 -0.007071  0.017319     48.000000
  0.129991 -0.014141  0.017319     48.000000
 -0.149989  0.084847  0.017319     48.000000
  0.069995  0.028282  0.017319     24.000000
  0.089994  0.021212  0.017319     48.000000
  0.109992  0.014141  0.017319     48.000000
  0.129991  0.007071  0.017319     48.000000
 -0.149989  0.106058  0.017319     48.000000
 -0.129991  0.098988  0.017319     48.000000
 -0.109992  0.091917  0.017319     48.000000
 -0.089994  0.084847  0.017319     48.000000
 -0.069995  0.077776  0.017319     48.000000
 -0.049996  0.070706  0.017319     24.000000
  0.089994  0.042423  0.017319     24.000000
  0.109992  0.035353  0.017319     48.000000
  0.129991  0.028282  0.017319     48.000000
 -0.149989  0.127270  0.017319     48.000000
 -0.129991  0.120199  0.017319     48.000000
 -0.109992  0.113129  0.017319     48.000000
 -0.089994  0.106058  0.017319     48.000000
 -0.069995  0.098988  0.017319     24.000000
  0.109992  0.056564  0.017319     24.000000
  0.129991  0.049494  0.017319     48.000000
 -0.149989  0.148482  0.017319     48.000000
 -0.129991  0.141411  0.017319     48.000000
 -0.109992  0.134341  0.017319     48.000000
 -0.089994  0.127270  0.017319     24.000000
  0.129991  0.070706  0.017319     24.000000
 -0.149989  0.169693  0.017319     48.000000
 -0.129991  0.162623  0.017319     48.000000
 -0.109992  0.155552  0.017319     24.000000
 -0.149989  0.190905  0.017319     24.000000
 -0.129991  0.183834  0.017319     24.000000
  0.099993  0.028282  0.034639     24.000000
  0.119991  0.021212  0.034639     48.000000
 -0.159988  0.120199  0.034639     48.000000
 -0.139990  0.113129  0.034639     48.000000
  0.119991  0.042423  0.034639     24.000000
 -0.159988  0.141411  0.034639     48.000000
 -0.139990  0.134341  0.034639     48.000000
 -0.119991  0.127270  0.034639     48.000000
 -0.099993  0.120199  0.034639     48.000000
 -0.079994  0.113129  0.034639     24.000000
 -0.159988  0.162623  0.034639     24.000000
 -0.139990  0.155552  0.034639     48.000000
 -0.119991  0.148482  0.034639     48.000000
 -0.099993  0.141411  0.034639     24.000000
 -0.139990  0.176764  0.034639     24.000000
 -0.119991  0.169693  0.034639     24.000000
 -0.149989  0.148482  0.051958     24.000000
 -0.129991  0.141411  0.051958     48.000000
 -0.129991  0.162623  0.051958     24.000000
 -0.109992  0.155552  0.051958     24.000000
 


--------------------------------------------------------------------------------------------------------




 Dimension of arrays:
   k-points           NKPTS =    120   k-points in BZ     NKDIM =    120   number of bands    NBANDS=      8
   number of dos      NEDOS =    301   number of ions     NIONS =      2
   non local maximal  LDIM  =      4   non local SUM 2l+1 LMDIM =      8
   total plane-waves  NPLWV =  32768
   max r-space proj   IRMAX =      1   max aug-charges    IRDMAX= 217503
   dimension x,y,z NGX =    32 NGY =   32 NGZ =   32
   dimension x,y,z NGXF=    64 NGYF=   64 NGZF=   64
   support grid    NGXF=   128 NGYF=  128 NGZF=  128
   ions per type =               2
   NGX,Y,Z   is equivalent  to a cutoff of  13.82, 13.82, 13.82 a.u.
   NGXF,Y,Z  is equivalent  to a cutoff of  27.64, 27.64, 27.64 a.u.

 SYSTEM =  unknown system                          
 POSCAR =  Si2                                     

 Startparameter for this run:
   NWRITE =      2    write-flag & timer
   PREC   = accura    normal or accurate (medium, high low for compatibility)
   ISTART =      0    job   : 0-new  1-cont  2-samecut
   ICHARG =      2    charge: 1-file 2-atom 10-const
   ISPIN  =      1    spin polarized calculation?
   LNONCOLLINEAR =      F non collinear calculations
   LSORBIT =      F    spin-orbit coupling
   INIWAV =      1    electr: 0-lowe 1-rand  2-diag
   LASPH  =      T    aspherical Exc in radial PAW
   METAGGA=      F    non-selfconsistent MetaGGA calc.

 Electronic Relaxation 1
   ENCUT  =  600.0 eV  44.10 Ry    6.64 a.u.   7.69  7.69  7.69*2*pi/ulx,y,z
   ENINI  =  600.0     initial cutoff
   ENAUG  =  322.1 eV  augmentation charge cutoff
   NELM   =     90;   NELMIN=  6; NELMDL= -5     # of ELM steps 
   EDIFF  = 0.1E-05   stopping-criterion for ELM
   LREAL  =      F    real-space projection
   NLSPLINE    = F    spline interpolate recip. space projectors
   LCOMPAT=      F    compatible to vasp.4.4
   GGA_COMPAT  = T    GGA compatible to vasp.4.4-vasp.4.6
   LMAXPAW     = -100 max onsite density
   LMAXMIX     =    2 max onsite mixed and CHGCAR
   VOSKOWN=      0    Vosko Wilk Nusair interpolation
   ROPT   =    0.00000
 Ionic relaxation
   EDIFFG = -.2E-02   stopping-criterion for IOM
   NSW    =    100    number of steps for IOM
   NBLOCK =      1;   KBLOCK =    100    inner block; outer block 
   IBRION =      2    ionic relax: 0-MD 1-quasi-New 2-CG
   NFREE  =      1    steps in history (QN), initial steepest desc. (CG)
   ISIF   =      3    stress and relaxation
   IWAVPR =     11    prediction:  0-non 1-charg 2-wave 3-comb
   ISYM   =      2    0-nonsym 1-usesym 2-fastsym
   LCORR  =      T    Harris-Foulkes like correction to forces

   POTIM  = 0.5000    time-step for ionic-motion
   TEIN   =    0.0    initial temperature
   TEBEG  =    0.0;   TEEND  =   0.0 temperature during run
   SMASS  =  -3.00    Nose mass-parameter (am)
   estimated Nose-frequenzy (Omega)   =  0.10E-29 period in steps = 0.13E+47 mass=  -0.339E-27a.u.
   SCALEE = 1.0000    scale energy and forces
   NPACO  =    256;   APACO  = 16.0  distance and # of slots for P.C.
   PSTRESS=    0.0 pullay stress

  Mass of Ions in am
   POMASS =  28.09
  Ionic Valenz
   ZVAL   =   4.00
  Atomic Wigner-Seitz radii
   RWIGS  =  -1.00
  virtual crystal weights 
   VCA    =   1.00
   NELECT =       8.0000    total number of electrons
   NUPDOWN=      -1.0000    fix difference up-down

 DOS related values:
   EMIN   =  10.00;   EMAX   =-10.00  energy-range for DOS
   EFERMI =   0.00
   ISMEAR =     0;   SIGMA  =   0.05  broadening in eV -4-tet -1-fermi 0-gaus

 Electronic relaxation 2 (details)
   IALGO  =     38    algorithm
   LDIAG  =      T    sub-space diagonalisation (order eigenvalues)
   LSUBROT=      F    optimize rotation matrix (better conditioning)
   TURBO    =      0    0=normal 1=particle mesh
   IRESTART =      0    0=no restart 2=restart with 2 vectors
   NREBOOT  =      0    no. of reboots
   NMIN     =      0    reboot dimension
   EREF     =   0.00    reference energy to select bands
   IMIX   =      4    mixing-type and parameters
     AMIX     =   0.40;   BMIX     =  1.00
     AMIX_MAG =   1.60;   BMIX_MAG =  1.00
     AMIN     =   0.10
     WC   =   100.;   INIMIX=   1;  MIXPRE=   1;  MAXMIX= -45

 Intra band minimization:
   WEIMIN = 0.0010     energy-eigenvalue tresh-hold
   EBREAK =  0.31E-07  absolut break condition
   DEPER  =   0.30     relativ break condition  

   TIME   =   0.40     timestep for ELM

  volume/ion in A,a.u.               =      20.16       136.08
  Fermi-wavevector in a.u.,A,eV,Ry     =   0.954766  1.804247 12.402783  0.911579
  Thomas-Fermi vector in A             =   2.083543
 
 Write flags
   LWAVE        =      F    write WAVECAR
   LDOWNSAMPLE  =      F    k-point downsampling of WAVECAR
   LCHARG       =      F    write CHGCAR
   LVTOT        =      F    write LOCPOT, total local potential
   LVHAR        =      F    write LOCPOT, Hartree potential only
   LELF         =      F    write electronic localiz. function (ELF)
   LORBIT       =      0    0 simple, 1 ext, 2 COOP (PROOUT), +10 PAW based schemes


 Dipole corrections
   LMONO  =      F    monopole corrections only (constant potential shift)
   LDIPOL =      F    correct potential (dipole corrections)
   IDIPOL =      0    1-x, 2-y, 3-z, 4-all directions 
   EPSILON=  1.0000000 bulk dielectric constant

 Exchange correlation treatment:
   GGA     =    --    GGA type
   LEXCH   =     8    internal setting for exchange type
   VOSKOWN=      0    Vosko Wilk Nusair interpolation
   LHFCALC =     F    Hartree Fock is set to
   LHFONE  =     F    Hartree Fock one center treatment
   AEXX    =    0.0000 exact exchange contribution

 Linear response parameters
   LEPSILON=     F    determine dielectric tensor
   LRPA    =     F    only Hartree local field effects (RPA)
   LNABLA  =     F    use nabla operator in PAW spheres
   LVEL    =     F    velocity operator in full k-point grid
   LINTERFAST=   F  fast interpolation
   KINTER  =     0    interpolate to denser k-point grid
   CSHIFT  =0.1000    complex shift for real part using Kramers Kronig
   OMEGAMAX=  -1.0    maximum frequency
   DEG_THRESHOLD= 0.2000000E-02 threshold for treating states as degnerate
   RTIME   =   -0.100 relaxation time in fs
  (WPLASMAI=    0.000 imaginary part of plasma frequency in eV, 0.658/RTIME)
   DFIELD  = 0.0000000 0.0000000 0.0000000 field for delta impulse in time
 
 Orbital magnetization related:
   ORBITALMAG=     F  switch on orbital magnetization
   LCHIMAG   =     F  perturbation theory with respect to B field
   DQ        =  0.001000  dq finite difference perturbation B field
   LLRAUG    =     F  two centre corrections for induced B field



--------------------------------------------------------------------------------------------------------


 conjugate gradient relaxation of ions
 charge density and potential will be updated during run
 non-spin polarized calculation
 Variant of blocked Davidson
 Davidson routine will perform the subspace rotation
 perform sub-space diagonalisation
    after iterative eigenvector-optimisation
 modified Broyden-mixing scheme, WC =      100.0
 initial mixing is a Kerker type mixing with AMIX =  0.4000 and BMIX =      1.0000
 Hartree-type preconditioning will be used
 using additional bands            4
 reciprocal scheme for non local part
 use partial core corrections
 calculate Harris-corrections to forces 
   (improved forces if not selfconsistent)
 use gradient corrections 
 use of overlap-Matrix (Vanderbilt PP)
 Gauss-broadening in eV      SIGMA  =   0.05


--------------------------------------------------------------------------------------------------------


  energy-cutoff  :      600.00
  volume of cell :       40.33
      direct lattice vectors                 reciprocal lattice vectors
     3.333573000  0.000000000  1.924639000     0.299978432 -0.106058350  0.000000000
     1.111191000  3.142924000  1.924639000     0.000000000  0.318175050  0.000000000
     0.000000000  0.000000000  3.849278000    -0.149989216 -0.106058350  0.259788979

  length of vectors
     3.849278403  3.849279412  3.849278000     0.318175161  0.318175050  0.318175190


 
 k-points in units of 2pi/SCALE and weight: Automatic                               
   0.00000000  0.00000000  0.00000000       0.000
   0.01999856 -0.00707056  0.00000000       0.002
   0.03999712 -0.01414111  0.00000000       0.002
   0.05999569 -0.02121167  0.00000000       0.002
   0.07999425 -0.02828223  0.00000000       0.002
   0.09999281 -0.03535278  0.00000000       0.002
   0.11999137 -0.04242334  0.00000000       0.002
   0.13998993 -0.04949390  0.00000000       0.002
   0.01999856  0.01414111  0.00000000       0.002
   0.03999712  0.00707056  0.00000000       0.007
   0.05999569  0.00000000  0.00000000       0.007
   0.07999425 -0.00707056  0.00000000       0.007
   0.09999281 -0.01414111  0.00000000       0.007
   0.11999137 -0.02121167  0.00000000       0.007
   0.13998993 -0.02828223  0.00000000       0.007
  -0.13998993  0.07070557  0.00000000       0.007
  -0.11999137  0.06363501  0.00000000       0.007
  -0.09999281  0.05656445  0.00000000       0.007
  -0.07999425  0.04949390  0.00000000       0.007
  -0.05999569  0.04242334  0.00000000       0.007
  -0.03999712  0.03535278  0.00000000       0.007
  -0.01999856  0.02828223  0.00000000       0.004
   0.03999712  0.02828223  0.00000000       0.002
   0.05999569  0.02121167  0.00000000       0.007
   0.07999425  0.01414111  0.00000000       0.007
   0.09999281  0.00707056  0.00000000       0.007
   0.11999137  0.00000000  0.00000000       0.007
   0.13998993 -0.00707056  0.00000000       0.007
  -0.13998993  0.09191724  0.00000000       0.007
  -0.11999137  0.08484668  0.00000000       0.007
  -0.09999281  0.07777612  0.00000000       0.007
  -0.07999425  0.07070557  0.00000000       0.007
  -0.05999569  0.06363501  0.00000000       0.007
  -0.03999712  0.05656445  0.00000000       0.004
   0.05999569  0.04242334  0.00000000       0.002
   0.07999425  0.03535278  0.00000000       0.007
   0.09999281  0.02828223  0.00000000       0.007
   0.11999137  0.02121167  0.00000000       0.007
   0.13998993  0.01414111  0.00000000       0.007
  -0.13998993  0.11312891  0.00000000       0.007
  -0.11999137  0.10605835  0.00000000       0.007
  -0.09999281  0.09898779  0.00000000       0.007
  -0.07999425  0.09191724  0.00000000       0.007
  -0.05999569  0.08484668  0.00000000       0.004
   0.07999425  0.05656445  0.00000000       0.002
   0.09999281  0.04949390  0.00000000       0.007
   0.11999137  0.04242334  0.00000000       0.007
   0.13998993  0.03535278  0.00000000       0.007
  -0.13998993  0.13434058  0.00000000       0.007
  -0.11999137  0.12727002  0.00000000       0.007
  -0.09999281  0.12019946  0.00000000       0.007
  -0.07999425  0.11312891  0.00000000       0.004
   0.09999281  0.07070557  0.00000000       0.002
   0.11999137  0.06363501  0.00000000       0.007
   0.13998993  0.05656445  0.00000000       0.007
  -0.13998993  0.15555225  0.00000000       0.007
  -0.11999137  0.14848169  0.00000000       0.007
  -0.09999281  0.14141113  0.00000000       0.004
   0.11999137  0.08484668  0.00000000       0.002
   0.13998993  0.07777612  0.00000000       0.007
  -0.13998993  0.17676392  0.00000000       0.007
  -0.11999137  0.16969336  0.00000000       0.004
   0.13998993  0.09898779  0.00000000       0.002
  -0.13998993  0.19797559  0.00000000       0.004
   0.04999641  0.01414111  0.01731927       0.007
   0.06999497  0.00707056  0.01731927       0.014
   0.08999353 -0.00000000  0.01731927       0.014
   0.10999209 -0.00707056  0.01731927       0.014
   0.12999065 -0.01414111  0.01731927       0.014
  -0.14998922  0.08484668  0.01731927       0.014
   0.06999497  0.02828223  0.01731927       0.007
   0.08999353  0.02121167  0.01731927       0.014
   0.10999209  0.01414111  0.01731927       0.014
   0.12999065  0.00707056  0.01731927       0.014
  -0.14998922  0.10605835  0.01731927       0.014
  -0.12999065  0.09898779  0.01731927       0.014
  -0.10999209  0.09191724  0.01731927       0.014
  -0.08999353  0.08484668  0.01731927       0.014
  -0.06999497  0.07777612  0.01731927       0.014
  -0.04999641  0.07070557  0.01731927       0.007
   0.08999353  0.04242334  0.01731927       0.007
   0.10999209  0.03535278  0.01731927       0.014
   0.12999065  0.02828223  0.01731927       0.014
  -0.14998922  0.12727002  0.01731927       0.014
  -0.12999065  0.12019946  0.01731927       0.014
  -0.10999209  0.11312891  0.01731927       0.014
  -0.08999353  0.10605835  0.01731927       0.014
  -0.06999497  0.09898779  0.01731927       0.007
   0.10999209  0.05656445  0.01731927       0.007
   0.12999065  0.04949390  0.01731927       0.014
  -0.14998922  0.14848169  0.01731927       0.014
  -0.12999065  0.14141113  0.01731927       0.014
  -0.10999209  0.13434058  0.01731927       0.014
  -0.08999353  0.12727002  0.01731927       0.007
   0.12999065  0.07070557  0.01731927       0.007
  -0.14998922  0.16969336  0.01731927       0.014
  -0.12999065  0.16262280  0.01731927       0.014
  -0.10999209  0.15555225  0.01731927       0.007
  -0.14998922  0.19090503  0.01731927       0.007
  -0.12999065  0.18383447  0.01731927       0.007
   0.09999281  0.02828223  0.03463853       0.007
   0.11999137  0.02121167  0.03463853       0.014
  -0.15998850  0.12019946  0.03463853       0.014
  -0.13998993  0.11312891  0.03463853       0.014
   0.11999137  0.04242334  0.03463853       0.007
  -0.15998850  0.14141113  0.03463853       0.014
  -0.13998993  0.13434058  0.03463853       0.014
  -0.11999137  0.12727002  0.03463853       0.014
  -0.09999281  0.12019946  0.03463853       0.014
  -0.07999425  0.11312891  0.03463853       0.007
  -0.15998850  0.16262280  0.03463853       0.007
  -0.13998993  0.15555225  0.03463853       0.014
  -0.11999137  0.14848169  0.03463853       0.014
  -0.09999281  0.14141113  0.03463853       0.007
  -0.13998993  0.17676392  0.03463853       0.007
  -0.11999137  0.16969336  0.03463853       0.007
  -0.14998922  0.14848169  0.05195780       0.007
  -0.12999065  0.14141113  0.05195780       0.014
  -0.12999065  0.16262280  0.05195780       0.007
  -0.10999209  0.15555225  0.05195780       0.007
 
 k-points in reciprocal lattice and weights: Automatic                               
   0.00000000  0.00000000  0.00000000       0.000
   0.06666667 -0.00000000  0.00000000       0.002
   0.13333333 -0.00000000  0.00000000       0.002
   0.20000000  0.00000000  0.00000000       0.002
   0.26666667 -0.00000000  0.00000000       0.002
   0.33333333 -0.00000000  0.00000000       0.002
   0.40000000 -0.00000000  0.00000000       0.002
   0.46666667 -0.00000000  0.00000000       0.002
   0.06666667  0.06666667  0.00000000       0.002
   0.13333333  0.06666667  0.00000000       0.007
   0.20000000  0.06666667  0.00000000       0.007
   0.26666667  0.06666667  0.00000000       0.007
   0.33333333  0.06666667  0.00000000       0.007
   0.40000000  0.06666667  0.00000000       0.007
   0.46666667  0.06666667  0.00000000       0.007
  -0.46666667  0.06666667  0.00000000       0.007
  -0.40000000  0.06666667  0.00000000       0.007
  -0.33333333  0.06666667  0.00000000       0.007
  -0.26666667  0.06666667  0.00000000       0.007
  -0.20000000  0.06666667  0.00000000       0.007
  -0.13333333  0.06666667  0.00000000       0.007
  -0.06666667  0.06666667  0.00000000       0.004
   0.13333333  0.13333333  0.00000000       0.002
   0.20000000  0.13333333  0.00000000       0.007
   0.26666667  0.13333333  0.00000000       0.007
   0.33333333  0.13333333  0.00000000       0.007
   0.40000000  0.13333333  0.00000000       0.007
   0.46666667  0.13333333  0.00000000       0.007
  -0.46666667  0.13333333  0.00000000       0.007
  -0.40000000  0.13333333  0.00000000       0.007
  -0.33333333  0.13333333  0.00000000       0.007
  -0.26666667  0.13333333  0.00000000       0.007
  -0.20000000  0.13333333  0.00000000       0.007
  -0.13333333  0.13333333  0.00000000       0.004
   0.20000000  0.20000000  0.00000000       0.002
   0.26666667  0.20000000  0.00000000       0.007
   0.33333333  0.20000000  0.00000000       0.007
   0.40000000  0.20000000  0.00000000       0.007
   0.46666667  0.20000000  0.00000000       0.007
  -0.46666667  0.20000000  0.00000000       0.007
  -0.40000000  0.20000000  0.00000000       0.007
  -0.33333333  0.20000000  0.00000000       0.007
  -0.26666667  0.20000000  0.00000000       0.007
  -0.20000000  0.20000000  0.00000000       0.004
   0.26666667  0.26666667  0.00000000       0.002
   0.33333333  0.26666667  0.00000000       0.007
   0.40000000  0.26666667  0.00000000       0.007
   0.46666667  0.26666667  0.00000000       0.007
  -0.46666667  0.26666667  0.00000000       0.007
  -0.40000000  0.26666667  0.00000000       0.007
  -0.33333333  0.26666667  0.00000000       0.007
  -0.26666667  0.26666667  0.00000000       0.004
   0.33333333  0.33333333  0.00000000       0.002
   0.40000000  0.33333333  0.00000000       0.007
   0.46666667  0.33333333  0.00000000       0.007
  -0.46666667  0.33333333  0.00000000       0.007
  -0.40000000  0.33333333  0.00000000       0.007
  -0.33333333  0.33333333  0.00000000       0.004
   0.40000000  0.40000000  0.00000000       0.002
   0.46666667  0.40000000  0.00000000       0.007
  -0.46666667  0.40000000  0.00000000       0.007
  -0.40000000  0.40000000  0.00000000       0.004
   0.46666667  0.46666667  0.00000000       0.002
  -0.46666667  0.46666667  0.00000000       0.004
   0.20000000  0.13333333  0.06666667       0.007
   0.26666667  0.13333333  0.06666667       0.014
   0.33333333  0.13333333  0.06666667       0.014
   0.40000000  0.13333333  0.06666667       0.014
   0.46666667  0.13333333  0.06666667       0.014
  -0.46666667  0.13333333  0.06666667       0.014
   0.26666667  0.20000000  0.06666667       0.007
   0.33333333  0.20000000  0.06666667       0.014
   0.40000000  0.20000000  0.06666667       0.014
   0.46666667  0.20000000  0.06666667       0.014
  -0.46666667  0.20000000  0.06666667       0.014
  -0.40000000  0.20000000  0.06666667       0.014
  -0.33333333  0.20000000  0.06666667       0.014
  -0.26666667  0.20000000  0.06666667       0.014
  -0.20000000  0.20000000  0.06666667       0.014
  -0.13333333  0.20000000  0.06666667       0.007
   0.33333333  0.26666667  0.06666667       0.007
   0.40000000  0.26666667  0.06666667       0.014
   0.46666667  0.26666667  0.06666667       0.014
  -0.46666667  0.26666667  0.06666667       0.014
  -0.40000000  0.26666667  0.06666667       0.014
  -0.33333333  0.26666667  0.06666667       0.014
  -0.26666667  0.26666667  0.06666667       0.014
  -0.20000000  0.26666667  0.06666667       0.007
   0.40000000  0.33333333  0.06666667       0.007
   0.46666667  0.33333333  0.06666667       0.014
  -0.46666667  0.33333333  0.06666667       0.014
  -0.40000000  0.33333333  0.06666667       0.014
  -0.33333333  0.33333333  0.06666667       0.014
  -0.26666667  0.33333333  0.06666667       0.007
   0.46666667  0.40000000  0.06666667       0.007
  -0.46666667  0.40000000  0.06666667       0.014
  -0.40000000  0.40000000  0.06666667       0.014
  -0.33333333  0.40000000  0.06666667       0.007
  -0.46666667  0.46666667  0.06666667       0.007
  -0.40000000  0.46666667  0.06666667       0.007
   0.40000000  0.26666667  0.13333333       0.007
   0.46666667  0.26666667  0.13333333       0.014
  -0.46666667  0.26666667  0.13333333       0.014
  -0.40000000  0.26666667  0.13333333       0.014
   0.46666667  0.33333333  0.13333333       0.007
  -0.46666667  0.33333333  0.13333333       0.014
  -0.40000000  0.33333333  0.13333333       0.014
  -0.33333333  0.33333333  0.13333333       0.014
  -0.26666667  0.33333333  0.13333333       0.014
  -0.20000000  0.33333333  0.13333333       0.007
  -0.46666667  0.40000000  0.13333333       0.007
  -0.40000000  0.40000000  0.13333333       0.014
  -0.33333333  0.40000000  0.13333333       0.014
  -0.26666667  0.40000000  0.13333333       0.007
  -0.40000000  0.46666667  0.13333333       0.007
  -0.33333333  0.46666667  0.13333333       0.007
  -0.40000000  0.40000000  0.20000000       0.007
  -0.33333333  0.40000000  0.20000000       0.014
  -0.33333333  0.46666667  0.20000000       0.007
  -0.26666667  0.46666667  0.20000000       0.007
 
 position of ions in fractional coordinates (direct lattice) 
   0.87500000  0.87500000  0.87500000
   0.12500000  0.12500000  0.12500000
 
 position of ions in cartesian coordinates  (Angst):
   3.88916850  2.75005850  6.73623650
   0.55559550  0.39286550  0.96231950
 


--------------------------------------------------------------------------------------------------------


 k-point   1 :   0.0000 0.0000 0.0000  plane waves:    1363
 k-point   2 :   0.0667-0.0000 0.0000  plane waves:    1363
 k-point   3 :   0.1333-0.0000 0.0000  plane waves:    1360
 k-point   4 :   0.2000 0.0000 0.0000  plane waves:    1345
 k-point   5 :   0.2667-0.0000 0.0000  plane waves:    1351
 k-point   6 :   0.3333-0.0000 0.0000  plane waves:    1356
 k-point   7 :   0.4000-0.0000 0.0000  plane waves:    1362
 k-point   8 :   0.4667-0.0000 0.0000  plane waves:    1359
 k-point   9 :   0.0667 0.0667 0.0000  plane waves:    1367
 k-point  10 :   0.1333 0.0667 0.0000  plane waves:    1351
 k-point  11 :   0.2000 0.0667 0.0000  plane waves:    1352
 k-point  12 :   0.2667 0.0667 0.0000  plane waves:    1350
 k-point  13 :   0.3333 0.0667 0.0000  plane waves:    1346
 k-point  14 :   0.4000 0.0667 0.0000  plane waves:    1342
 k-point  15 :   0.4667 0.0667 0.0000  plane waves:    1350
 k-point  16 :  -0.4667 0.0667 0.0000  plane waves:    1359
 k-point  17 :  -0.4000 0.0667 0.0000  plane waves:    1354
 k-point  18 :  -0.3333 0.0667 0.0000  plane waves:    1353
 k-point  19 :  -0.2667 0.0667 0.0000  plane waves:    1356
 k-point  20 :  -0.2000 0.0667 0.0000  plane waves:    1353
 k-point  21 :  -0.1333 0.0667 0.0000  plane waves:    1355
 k-point  22 :  -0.0667 0.0667 0.0000  plane waves:    1349
 k-point  23 :   0.1333 0.1333 0.0000  plane waves:    1355
 k-point  24 :   0.2000 0.1333 0.0000  plane waves:    1346
 k-point  25 :   0.2667 0.1333 0.0000  plane waves:    1348
 k-point  26 :   0.3333 0.1333 0.0000  plane waves:    1348
 k-point  27 :   0.4000 0.1333 0.0000  plane waves:    1348
 k-point  28 :   0.4667 0.1333 0.0000  plane waves:    1350
 k-point  29 :  -0.4667 0.1333 0.0000  plane waves:    1349
 k-point  30 :  -0.4000 0.1333 0.0000  plane waves:    1345
 k-point  31 :  -0.3333 0.1333 0.0000  plane waves:    1347
 k-point  32 :  -0.2667 0.1333 0.0000  plane waves:    1344
 k-point  33 :  -0.2000 0.1333 0.0000  plane waves:    1356
 k-point  34 :  -0.1333 0.1333 0.0000  plane waves:    1353
 k-point  35 :   0.2000 0.2000 0.0000  plane waves:    1343
 k-point  36 :   0.2667 0.2000 0.0000  plane waves:    1344
 k-point  37 :   0.3333 0.2000 0.0000  plane waves:    1343
 k-point  38 :   0.4000 0.2000 0.0000  plane waves:    1345
 k-point  39 :   0.4667 0.2000 0.0000  plane waves:    1346
 k-point  40 :  -0.4667 0.2000 0.0000  plane waves:    1348
 k-point  41 :  -0.4000 0.2000 0.0000  plane waves:    1350
 k-point  42 :  -0.3333 0.2000 0.0000  plane waves:    1348
 k-point  43 :  -0.2667 0.2000 0.0000  plane waves:    1342
 k-point  44 :  -0.2000 0.2000 0.0000  plane waves:    1344
 k-point  45 :   0.2667 0.2667 0.0000  plane waves:    1343
 k-point  46 :   0.3333 0.2667 0.0000  plane waves:    1340
 k-point  47 :   0.4000 0.2667 0.0000  plane waves:    1343
 k-point  48 :   0.4667 0.2667 0.0000  plane waves:    1347
 k-point  49 :  -0.4667 0.2667 0.0000  plane waves:    1341
 k-point  50 :  -0.4000 0.2667 0.0000  plane waves:    1339
 k-point  51 :  -0.3333 0.2667 0.0000  plane waves:    1342
 k-point  52 :  -0.2667 0.2667 0.0000  plane waves:    1336
 k-point  53 :   0.3333 0.3333 0.0000  plane waves:    1347
 k-point  54 :   0.4000 0.3333 0.0000  plane waves:    1342
 k-point  55 :   0.4667 0.3333 0.0000  plane waves:    1337
 k-point  56 :  -0.4667 0.3333 0.0000  plane waves:    1343
 k-point  57 :  -0.4000 0.3333 0.0000  plane waves:    1341
 k-point  58 :  -0.3333 0.3333 0.0000  plane waves:    1316
 k-point  59 :   0.4000 0.4000 0.0000  plane waves:    1347
 k-point  60 :   0.4667 0.4000 0.0000  plane waves:    1344
 k-point  61 :  -0.4667 0.4000 0.0000  plane waves:    1338
 k-point  62 :  -0.4000 0.4000 0.0000  plane waves:    1348
 k-point  63 :   0.4667 0.4667 0.0000  plane waves:    1350
 k-point  64 :  -0.4667 0.4667 0.0000  plane waves:    1344
 k-point  65 :   0.2000 0.1333 0.0667  plane waves:    1346
 k-point  66 :   0.2667 0.1333 0.0667  plane waves:    1350
 k-point  67 :   0.3333 0.1333 0.0667  plane waves:    1350
 k-point  68 :   0.4000 0.1333 0.0667  plane waves:    1344
 k-point  69 :   0.4667 0.1333 0.0667  plane waves:    1350
 k-point  70 :  -0.4667 0.1333 0.0667  plane waves:    1348
 k-point  71 :   0.2667 0.2000 0.0667  plane waves:    1344
 k-point  72 :   0.3333 0.2000 0.0667  plane waves:    1347
 k-point  73 :   0.4000 0.2000 0.0667  plane waves:    1343
 k-point  74 :   0.4667 0.2000 0.0667  plane waves:    1346
 k-point  75 :  -0.4667 0.2000 0.0667  plane waves:    1342
 k-point  76 :  -0.4000 0.2000 0.0667  plane waves:    1354
 k-point  77 :  -0.3333 0.2000 0.0667  plane waves:    1348
 k-point  78 :  -0.2667 0.2000 0.0667  plane waves:    1353
 k-point  79 :  -0.2000 0.2000 0.0667  plane waves:    1348
 k-point  80 :  -0.1333 0.2000 0.0667  plane waves:    1354
 k-point  81 :   0.3333 0.2667 0.0667  plane waves:    1337
 k-point  82 :   0.4000 0.2667 0.0667  plane waves:    1346
 k-point  83 :   0.4667 0.2667 0.0667  plane waves:    1348
 k-point  84 :  -0.4667 0.2667 0.0667  plane waves:    1343
 k-point  85 :  -0.4000 0.2667 0.0667  plane waves:    1346
 k-point  86 :  -0.3333 0.2667 0.0667  plane waves:    1348
 k-point  87 :  -0.2667 0.2667 0.0667  plane waves:    1344
 k-point  88 :  -0.2000 0.2667 0.0667  plane waves:    1346
 k-point  89 :   0.4000 0.3333 0.0667  plane waves:    1347
 k-point  90 :   0.4667 0.3333 0.0667  plane waves:    1341
 k-point  91 :  -0.4667 0.3333 0.0667  plane waves:    1346
 k-point  92 :  -0.4000 0.3333 0.0667  plane waves:    1341
 k-point  93 :  -0.3333 0.3333 0.0667  plane waves:    1336
 k-point  94 :  -0.2667 0.3333 0.0667  plane waves:    1343
 k-point  95 :   0.4667 0.4000 0.0667  plane waves:    1347
 k-point  96 :  -0.4667 0.4000 0.0667  plane waves:    1346
 k-point  97 :  -0.4000 0.4000 0.0667  plane waves:    1340
 k-point  98 :  -0.3333 0.4000 0.0667  plane waves:    1341
 k-point  99 :  -0.4667 0.4667 0.0667  plane waves:    1335
 k-point 100 :  -0.4000 0.4667 0.0667  plane waves:    1342
 k-point 101 :   0.4000 0.2667 0.1333  plane waves:    1345
 k-point 102 :   0.4667 0.2667 0.1333  plane waves:    1345
 k-point 103 :  -0.4667 0.2667 0.1333  plane waves:    1341
 k-point 104 :  -0.4000 0.2667 0.1333  plane waves:    1353
 k-point 105 :   0.4667 0.3333 0.1333  plane waves:    1346
 k-point 106 :  -0.4667 0.3333 0.1333  plane waves:    1349
 k-point 107 :  -0.4000 0.3333 0.1333  plane waves:    1344
 k-point 108 :  -0.3333 0.3333 0.1333  plane waves:    1340
 k-point 109 :  -0.2667 0.3333 0.1333  plane waves:    1346
 k-point 110 :  -0.2000 0.3333 0.1333  plane waves:    1345
 k-point 111 :  -0.4667 0.4000 0.1333  plane waves:    1338
 k-point 112 :  -0.4000 0.4000 0.1333  plane waves:    1343
 k-point 113 :  -0.3333 0.4000 0.1333  plane waves:    1349
 k-point 114 :  -0.2667 0.4000 0.1333  plane waves:    1347
 k-point 115 :  -0.4000 0.4667 0.1333  plane waves:    1337
 k-point 116 :  -0.3333 0.4667 0.1333  plane waves:    1344
 k-point 117 :  -0.4000 0.4000 0.2000  plane waves:    1348
 k-point 118 :  -0.3333 0.4000 0.2000  plane waves:    1341
 k-point 119 :  -0.3333 0.4667 0.2000  plane waves:    1352
 k-point 120 :  -0.2667 0.4667 0.2000  plane waves:    1346

 maximum and minimum number of plane-waves per node :      1367     1316

 maximum number of plane-waves:      1367
 maximum index in each direction: 
   IXMAX=    8   IYMAX=    7   IZMAX=    7
   IXMIN=   -8   IYMIN=   -8   IZMIN=   -7


 serial   3D FFT for wavefunctions
 parallel 3D FFT for charge:
    minimum data exchange during FFTs selected (reduces bandwidth)


 total amount of memory used by VASP MPI-rank0    60249. kBytes
=======================================================================

   base      :      30000. kBytes
   nonl-proj :      10550. kBytes
   fftplans  :       9841. kBytes
   grid      :       4538. kBytes
   one-center:          6. kBytes
   wavefun   :       5314. kBytes
 
     INWAV:  cpu time    0.0010: real time    0.0007
 Broyden mixing: mesh for mixing (old mesh)
   NGX = 15   NGY = 15   NGZ = 15
  (NGX  = 64   NGY  = 64   NGZ  = 64)
  gives a total of   3375 points

 initial charge density was supplied:
 charge density of overlapping atoms calculated
 number of electron       8.0000000 magnetization 
 keeping initial charge density in first step


--------------------------------------------------------------------------------------------------------


 Maximum index for augmentation-charges        52609 (set IRDMAX)


--------------------------------------------------------------------------------------------------------


 First call to EWALD:  gamma=   0.517
 Maximum number of real-space cells 3x 3x 3
 Maximum number of reciprocal cells 3x 3x 3

    FEWALD:  cpu time    0.0030: real time    0.0035


--------------------------------------- Iteration      1(   1)  ---------------------------------------


    POTLOK:  cpu time    0.0680: real time    0.0733
    SETDIJ:  cpu time    0.2080: real time    0.2075
     EDDAV:  cpu time    1.3888: real time    1.3896
       DOS:  cpu time    0.0010: real time    0.0024
    --------------------------------------------
      LOOP:  cpu time    1.6657: real time    1.6731

 eigenvalue-minimisations  :  1920
 total energy-change (2. order) : 0.6539542E+01  (-0.3483488E+03)
 number of electron       8.0000000 magnetization 
 augmentation part        8.0000000 magnetization 

 Free energy of the ion-electron system (eV)
  ---------------------------------------------------
  alpha Z        PSCENC =         3.33880741
  Ewald energy   TEWEN  =      -227.98820643
  -Hartree energ DENC   =       -11.11484531
  -exchange      EXHF   =         0.00000000
  -V(xc)+E(xc)   XCENC  =       -18.63153721
  PAW double counting   =       176.24759923     -141.06103558
  entropy T*S    EENTRO =        -0.00058809
  eigenvalues    EBANDS =        19.61622906
  atomic energy  EATOM  =       206.13311910
  Solvation  Ediel_sol  =         0.00000000
  ---------------------------------------------------
  free energy    TOTEN  =         6.53954219 eV

  energy without entropy =        6.54013027  energy(sigma->0) =        6.53983623


--------------------------------------------------------------------------------------------------------




--------------------------------------- Iteration      1(   2)  ---------------------------------------


     EDDAV:  cpu time    1.8897: real time    1.9078
       DOS:  cpu time    0.0020: real time    0.0015
    --------------------------------------------
      LOOP:  cpu time    1.8917: real time    1.9093

 eigenvalue-minimisations  :  2816
 total energy-change (2. order) :-0.1731836E+02  (-0.1692246E+02)
 number of electron       8.0000000 magnetization 
 augmentation part        8.0000000 magnetization 

 Free energy of the ion-electron system (eV)
  ---------------------------------------------------
  alpha Z        PSCENC =         3.33880741
  Ewald energy   TEWEN  =      -227.98820643
  -Hartree energ DENC   =       -11.11484531
  -exchange      EXHF   =         0.00000000
  -V(xc)+E(xc)   XCENC  =       -18.63153721
  PAW double counting   =       176.24759923     -141.06103558
  entropy T*S    EENTRO =        -0.00000000
  eigenvalues    EBANDS =         2.29728222
  atomic energy  EATOM  =       206.13311910
  Solvation  Ediel_sol  =         0.00000000
  ---------------------------------------------------
  free energy    TOTEN  =       -10.77881656 eV

  energy without entropy =      -10.77881656  energy(sigma->0) =      -10.77881656


--------------------------------------------------------------------------------------------------------




--------------------------------------- Iteration      1(   3)  ---------------------------------------


     EDDAV:  cpu time    1.8257: real time    1.8443
       DOS:  cpu time    0.0010: real time    0.0016
    --------------------------------------------
      LOOP:  cpu time    1.8277: real time    1.8458

 eigenvalue-minimisations  :  2688
 total energy-change (2. order) :-0.2440245E+00  (-0.2440245E+00)
 number of electron       8.0000000 magnetization 
 augmentation part        8.0000000 magnetization 

 Free energy of the ion-electron system (eV)
  ---------------------------------------------------
  alpha Z        PSCENC =         3.33880741
  Ewald energy   TEWEN  =      -227.98820643
  -Hartree energ DENC   =       -11.11484531
  -exchange      EXHF   =         0.00000000
  -V(xc)+E(xc)   XCENC  =       -18.63153721
  PAW double counting   =       176.24759923     -141.06103558
  entropy T*S    EENTRO =        -0.00000000
  eigenvalues    EBANDS =         2.05325769
  atomic energy  EATOM  =       206.13311910
  Solvation  Ediel_sol  =         0.00000000
  ---------------------------------------------------
  free energy    TOTEN  =       -11.02284109 eV

  energy without entropy =      -11.02284109  energy(sigma->0) =      -11.02284109


--------------------------------------------------------------------------------------------------------




--------------------------------------- Iteration      1(   4)  ---------------------------------------


     EDDAV:  cpu time    1.9267: real time    1.9414
       DOS:  cpu time    0.0010: real time    0.0017
    --------------------------------------------
      LOOP:  cpu time    1.9277: real time    1.9431

 eigenvalue-minimisations  :  2864
 total energy-change (2. order) :-0.8866337E-03  (-0.8866337E-03)
 number of electron       8.0000000 magnetization 
 augmentation part        8.0000000 magnetization 

 Free energy of the ion-electron system (eV)
  ---------------------------------------------------
  alpha Z        PSCENC =         3.33880741
  Ewald energy   TEWEN  =      -227.98820643
  -Hartree energ DENC   =       -11.11484531
  -exchange      EXHF   =         0.00000000
  -V(xc)+E(xc)   XCENC  =       -18.63153721
  PAW double counting   =       176.24759923     -141.06103558
  entropy T*S    EENTRO =        -0.00000000
  eigenvalues    EBANDS =         2.05237106
  atomic energy  EATOM  =       206.13311910
  Solvation  Ediel_sol  =         0.00000000
  ---------------------------------------------------
  free energy    TOTEN  =       -11.02372773 eV

  energy without entropy =      -11.02372773  energy(sigma->0) =      -11.02372773


--------------------------------------------------------------------------------------------------------




--------------------------------------- Iteration      1(   5)  ---------------------------------------


     EDDAV:  cpu time    1.8657: real time    1.8835
       DOS:  cpu time    0.0010: real time    0.0016
    CHARGE:  cpu time    0.1490: real time    0.1493
    MIXING:  cpu time    0.0030: real time    0.0027
    --------------------------------------------
      LOOP:  cpu time    2.0177: real time    2.0371

 eigenvalue-minimisations  :  2760
 total energy-change (2. order) :-0.1916879E-05  (-0.1916801E-05)
 number of electron       8.0000000 magnetization 
 augmentation part       -0.4703587 magnetization 

 Broyden mixing:
  rms(total) = 0.48324E+00    rms(broyden)= 0.48324E+00
  rms(prec ) = 0.94546E+00
  weight for this iteration     100.00

 Free energy of the ion-electron system (eV)
  ---------------------------------------------------
  alpha Z        PSCENC =         3.33880741
  Ewald energy   TEWEN  =      -227.98820643
  -Hartree energ DENC   =       -11.11484531
  -exchange      EXHF   =         0.00000000
  -V(xc)+E(xc)   XCENC  =       -18.63153721
  PAW double counting   =       176.24759923     -141.06103558
  entropy T*S    EENTRO =        -0.00000000
  eigenvalues    EBANDS =         2.05236914
  atomic energy  EATOM  =       206.13311910
  Solvation  Ediel_sol  =         0.00000000
  ---------------------------------------------------
  free energy    TOTEN  =       -11.02372964 eV

  energy without entropy =      -11.02372964  energy(sigma->0) =      -11.02372964


--------------------------------------------------------------------------------------------------------




--------------------------------------- Iteration      1(   6)  ---------------------------------------


    POTLOK:  cpu time    0.0690: real time    0.0862
    SETDIJ:  cpu time    0.1970: real time    0.1969
     EDDAV:  cpu time    1.6348: real time    1.6360
       DOS:  cpu time    0.0010: real time    0.0017
    CHARGE:  cpu time    0.1350: real time    0.1348
    MIXING:  cpu time    0.0030: real time    0.0030
    --------------------------------------------
      LOOP:  cpu time    2.0397: real time    2.0587

 eigenvalue-minimisations  :  2368
 total energy-change (2. order) : 0.1215534E+00  (-0.8027973E-02)
 number of electron       8.0000000 magnetization 
 augmentation part       -0.4645925 magnetization 

 Broyden mixing:
  rms(total) = 0.29543E+00    rms(broyden)= 0.29543E+00
  rms(prec ) = 0.56213E+00
  weight for this iteration     100.00

 eigenvalues of (default mixing * dielectric matrix)
  average eigenvalue GAMMA=   2.5635
  2.5635

 Free energy of the ion-electron system (eV)
  ---------------------------------------------------
  alpha Z        PSCENC =         3.33880741
  Ewald energy   TEWEN  =      -227.98820643
  -Hartree energ DENC   =       -12.60051785
  -exchange      EXHF   =         0.00000000
  -V(xc)+E(xc)   XCENC  =       -18.39780926
  PAW double counting   =       376.54800612     -341.46919240
  entropy T*S    EENTRO =        -0.00000000
  eigenvalues    EBANDS =         3.53361711
  atomic energy  EATOM  =       206.13311910
  Solvation  Ediel_sol  =         0.00000000
  ---------------------------------------------------
  free energy    TOTEN  =       -10.90217620 eV

  energy without entropy =      -10.90217620  energy(sigma->0) =      -10.90217620


--------------------------------------------------------------------------------------------------------




--------------------------------------- Iteration      1(   7)  ---------------------------------------


    POTLOK:  cpu time    0.0690: real time    0.0857
    SETDIJ:  cpu time    0.1960: real time    0.1959
     EDDAV:  cpu time    1.6577: real time    1.6597
       DOS:  cpu time    0.0020: real time    0.0017
    CHARGE:  cpu time    0.1340: real time    0.1348
    MIXING:  cpu time    0.0020: real time    0.0030
    --------------------------------------------
      LOOP:  cpu time    2.0617: real time    2.0808

 eigenvalue-minimisations  :  2416
 total energy-change (2. order) : 0.5560205E-01  (-0.1523241E-01)
 number of electron       8.0000000 magnetization 
 augmentation part       -0.4575912 magnetization 

 Broyden mixing:
  rms(total) = 0.18459E-01    rms(broyden)= 0.18459E-01
  rms(prec ) = 0.41236E-01
  weight for this iteration     100.00

 eigenvalues of (default mixing * dielectric matrix)
  average eigenvalue GAMMA=   2.0715
  1.7658  2.3772

 Free energy of the ion-electron system (eV)
  ---------------------------------------------------
  alpha Z        PSCENC =         3.33880741
  Ewald energy   TEWEN  =      -227.98820643
  -Hartree energ DENC   =       -15.02696393
  -exchange      EXHF   =         0.00000000
  -V(xc)+E(xc)   XCENC  =       -18.00727392
  PAW double counting   =       853.43453619     -818.49484843
  entropy T*S    EENTRO =        -0.00000000
  eigenvalues    EBANDS =         5.76425584
  atomic energy  EATOM  =       206.13311910
  Solvation  Ediel_sol  =         0.00000000
  ---------------------------------------------------
  free energy    TOTEN  =       -10.84657416 eV

  energy without entropy =      -10.84657416  energy(sigma->0) =      -10.84657416


--------------------------------------------------------------------------------------------------------




--------------------------------------- Iteration      1(   8)  ---------------------------------------


    POTLOK:  cpu time    0.0710: real time    0.0860
    SETDIJ:  cpu time    0.1950: real time    0.1960
     EDDAV:  cpu time    1.4928: real time    1.4938
       DOS:  cpu time    0.0020: real time    0.0017
    CHARGE:  cpu time    0.1330: real time    0.1346
    MIXING:  cpu time    0.0040: real time    0.0031
    --------------------------------------------
      LOOP:  cpu time    1.8967: real time    1.9151

 eigenvalue-minimisations  :  2120
 total energy-change (2. order) :-0.1076715E-02  (-0.3945487E-03)
 number of electron       8.0000000 magnetization 
 augmentation part       -0.4585626 magnetization 

 Broyden mixing:
  rms(total) = 0.73508E-02    rms(broyden)= 0.73508E-02
  rms(prec ) = 0.13102E-01
  weight for this iteration     100.00

 eigenvalues of (default mixing * dielectric matrix)
  average eigenvalue GAMMA=   2.2586
  2.8403  1.9678  1.9678

 Free energy of the ion-electron system (eV)
  ---------------------------------------------------
  alpha Z        PSCENC =         3.33880741
  Ewald energy   TEWEN  =      -227.98820643
  -Hartree energ DENC   =       -14.95522126
  -exchange      EXHF   =         0.00000000
  -V(xc)+E(xc)   XCENC  =       -18.00725763
  PAW double counting   =       862.75246288     -827.78592536
  entropy T*S    EENTRO =        -0.00000000
  eigenvalues    EBANDS =         5.66457040
  atomic energy  EATOM  =       206.13311910
  Solvation  Ediel_sol  =         0.00000000
  ---------------------------------------------------
  free energy    TOTEN  =       -10.84765087 eV

  energy without entropy =      -10.84765087  energy(sigma->0) =      -10.84765087


--------------------------------------------------------------------------------------------------------




--------------------------------------- Iteration      1(   9)  ---------------------------------------


    POTLOK:  cpu time    0.0700: real time    0.0864
    SETDIJ:  cpu time    0.1980: real time    0.1985
     EDDAV:  cpu time    1.9547: real time    1.9558
       DOS:  cpu time    0.0010: real time    0.0017
    CHARGE:  cpu time    0.1340: real time    0.1345
    MIXING:  cpu time    0.0030: real time    0.0032
    --------------------------------------------
      LOOP:  cpu time    2.3616: real time    2.3801

 eigenvalue-minimisations  :  2912
 total energy-change (2. order) :-0.1914027E-03  (-0.1921159E-04)
 number of electron       8.0000000 magnetization 
 augmentation part       -0.4586755 magnetization 

 Broyden mixing:
  rms(total) = 0.57081E-02    rms(broyden)= 0.57081E-02
  rms(prec ) = 0.65941E-02
  weight for this iteration     100.00

 eigenvalues of (default mixing * dielectric matrix)
  average eigenvalue GAMMA=   2.1262
  0.9473  2.6086  2.6086  2.3403

 Free energy of the ion-electron system (eV)
  ---------------------------------------------------
  alpha Z        PSCENC =         3.33880741
  Ewald energy   TEWEN  =      -227.98820643
  -Hartree energ DENC   =       -14.99865409
  -exchange      EXHF   =         0.00000000
  -V(xc)+E(xc)   XCENC  =       -17.99885683
  PAW double counting   =       864.81831667     -829.84956605
  entropy T*S    EENTRO =        -0.00000000
  eigenvalues    EBANDS =         5.69719793
  atomic energy  EATOM  =       206.13311910
  Solvation  Ediel_sol  =         0.00000000
  ---------------------------------------------------
  free energy    TOTEN  =       -10.84784228 eV

  energy without entropy =      -10.84784228  energy(sigma->0) =      -10.84784228


--------------------------------------------------------------------------------------------------------




--------------------------------------- Iteration      1(  10)  ---------------------------------------


    POTLOK:  cpu time    0.0700: real time    0.0868
    SETDIJ:  cpu time    0.1960: real time    0.1959
     EDDAV:  cpu time    1.5288: real time    1.5311
       DOS:  cpu time    0.0020: real time    0.0017
    CHARGE:  cpu time    0.1340: real time    0.1342
    MIXING:  cpu time    0.0020: real time    0.0031
    --------------------------------------------
      LOOP:  cpu time    1.9327: real time    1.9527

 eigenvalue-minimisations  :  2192
 total energy-change (2. order) :-0.2622055E-04  (-0.3212494E-05)
 number of electron       8.0000000 magnetization 
 augmentation part       -0.4586534 magnetization 

 Broyden mixing:
  rms(total) = 0.10563E-02    rms(broyden)= 0.10563E-02
  rms(prec ) = 0.11281E-02
  weight for this iteration     100.00

 eigenvalues of (default mixing * dielectric matrix)
  average eigenvalue GAMMA=   1.9073
  2.8972  2.4365  2.0748  1.0641  1.0641

 Free energy of the ion-electron system (eV)
  ---------------------------------------------------
  alpha Z        PSCENC =         3.33880741
  Ewald energy   TEWEN  =      -227.98820643
  -Hartree energ DENC   =       -15.00647709
  -exchange      EXHF   =         0.00000000
  -V(xc)+E(xc)   XCENC  =       -17.99853221
  PAW double counting   =       853.10859394     -818.13968301
  entropy T*S    EENTRO =        -0.00000000
  eigenvalues    EBANDS =         5.70450979
  atomic energy  EATOM  =       206.13311910
  Solvation  Ediel_sol  =         0.00000000
  ---------------------------------------------------
  free energy    TOTEN  =       -10.84786850 eV

  energy without entropy =      -10.84786850  energy(sigma->0) =      -10.84786850


--------------------------------------------------------------------------------------------------------




--------------------------------------- Iteration      1(  11)  ---------------------------------------


    POTLOK:  cpu time    0.0700: real time    0.0860
    SETDIJ:  cpu time    0.1960: real time    0.1961
     EDDAV:  cpu time    1.8057: real time    1.8069
       DOS:  cpu time    0.0010: real time    0.0017
    --------------------------------------------
      LOOP:  cpu time    2.0727: real time    2.0907

 eigenvalue-minimisations  :  2664
 total energy-change (2. order) : 0.4054037E-06  (-0.5041599E-07)
 number of electron       8.0000000 magnetization 
 augmentation part       -0.4586534 magnetization 

 Free energy of the ion-electron system (eV)
  ---------------------------------------------------
  alpha Z        PSCENC =         3.33880741
  Ewald energy   TEWEN  =      -227.98820643
  -Hartree energ DENC   =       -15.00505716
  -exchange      EXHF   =         0.00000000
  -V(xc)+E(xc)   XCENC  =       -17.99857895
  PAW double counting   =       854.64991471     -819.68056318
  entropy T*S    EENTRO =        -0.00000000
  eigenvalues    EBANDS =         5.70269641
  atomic energy  EATOM  =       206.13311910
  Solvation  Ediel_sol  =         0.00000000
  ---------------------------------------------------
  free energy    TOTEN  =       -10.84786809 eV

  energy without entropy =      -10.84786809  energy(sigma->0) =      -10.84786809


--------------------------------------------------------------------------------------------------------




 average (electrostatic) potential at core
  the test charge radii are     0.9892
  (the norm of the test charge is              1.0000)
       1 -83.3312       2 -83.3312
 
 
 
 E-fermi :   5.9941     XC(G=0):  -9.3814     alpha+bet :-11.8943

 Fermi energy:         5.9941332967

 k-point     1 :       0.0000    0.0000    0.0000
  band No.  band energies     occupation 
      1      -6.1550      2.00000
      2       5.7530      2.00000
      3       5.7530      2.00000
      4       5.7530      2.00000
      5       8.3161      0.00000
      6       8.3161      0.00000
      7       8.3161      0.00000
      8       9.0442      0.00000

 k-point     2 :       0.0667   -0.0000    0.0000
  band No.  band energies     occupation 
      1      -6.0971      2.00000
      2       5.1611      2.00000
      3       5.6586      2.00000
      4       5.6586      2.00000
      5       8.3699      0.00000
      6       8.4549      0.00000
      7       8.4549      0.00000
      8       9.4839      0.00000

 k-point     3 :       0.1333   -0.0000    0.0000
  band No.  band energies     occupation 
      1      -5.9244      2.00000
      2       4.0045      2.00000
      3       5.4353      2.00000
      4       5.4353      2.00000
      5       8.2091      0.00000
      6       8.7822      0.00000
      7       8.7822      0.00000
      8      10.5524      0.00000

 k-point     4 :       0.2000    0.0000    0.0000
  band No.  band energies     occupation 
      1      -5.6408      2.00000
      2       2.7557      2.00000
      3       5.1784      2.00000
      4       5.1784      2.00000
      5       7.9526      0.00000
      6       9.1115      0.00000
      7       9.1115      0.00000
      8      11.7483      0.00000

 k-point     5 :       0.2667   -0.0000    0.0000
  band No.  band energies     occupation 
      1      -5.2552      2.00000
      2       1.5480      2.00000
      3       4.9448      2.00000
      4       4.9448      2.00000
      5       7.7006      0.00000
      6       9.2764      0.00000
      7       9.2764      0.00000
      8      12.8866      0.00000

 k-point     6 :       0.3333   -0.0000    0.0000
  band No.  band energies     occupation 
      1      -4.7874      2.00000
      2       0.4437      2.00000
      3       4.7599      2.00000
      4       4.7599      2.00000
      5       7.4940      0.00000
      6       9.2599      0.00000
      7       9.2599      0.00000
      8      13.5952      0.00000

 k-point     7 :       0.4000   -0.0000    0.0000
  band No.  band energies     occupation 
      1      -4.2885      2.00000
      2      -0.4870      2.00000
      3       4.6340      2.00000
      4       4.6340      2.00000
      5       7.3505      0.00000
      6       9.1716      0.00000
      7       9.1716      0.00000
      8      13.5829      0.00000

 k-point     8 :       0.4667   -0.0000    0.0000
  band No.  band energies     occupation 
      1      -3.9032      2.00000
      2      -1.0902      2.00000
      3       4.5706      2.00000
      4       4.5706      2.00000
      5       7.2774      0.00000
      6       9.1063      0.00000
      7       9.1063      0.00000
      8      13.4871      0.00000

 k-point     9 :       0.0667    0.0667    0.0000
  band No.  band energies     occupation 
      1      -6.0777      2.00000
      2       5.2781      2.00000
      3       5.4619      2.00000
      4       5.4619      2.00000
      5       8.1352      0.00000
      6       8.7022      0.00000
      7       8.7023      0.00000
      8       9.4954      0.00000

 k-point    10 :       0.1333    0.0667    0.0000
  band No.  band energies     occupation 
      1      -5.9431      2.00000
      2       4.3470      2.00000
      3       5.1852      2.00000
      4       5.3575      2.00000
      5       8.1342      0.00000
      6       8.7928      0.00000
      7       9.1016      0.00000
      8      10.2571      0.00000

 k-point    11 :       0.2000    0.0667    0.0000
  band No.  band energies     occupation 
      1      -5.6960      2.00000
      2       3.1501      2.00000
      3       4.9117      2.00000
      4       5.1405      2.00000
      5       8.2285      0.00000
      6       8.7843      0.00000
      7       9.4882      0.00000
      8      11.0966      0.00000

 k-point    12 :       0.2667    0.0667    0.0000
  band No.  band energies     occupation 
      1      -5.3432      2.00000
      2       1.9438      2.00000
      3       4.6851      2.00000
      4       4.8678      2.00000
      5       8.1012      0.00000
      6       8.9569      0.00000
      7       9.6981      0.00000
      8      11.5380      0.00000

 k-point    13 :       0.3333    0.0667    0.0000
  band No.  band energies     occupation 
      1      -4.8996      2.00000
      2       0.8117      2.00000
      3       4.5249      2.00000
      4       4.6059      2.00000
      5       7.9125      0.00000
      6       9.0409      0.00000
      7       9.6816      0.00000
      8      12.1000      0.00000

 k-point    14 :       0.4000    0.0667    0.0000
  band No.  band energies     occupation 
      1      -4.4016      2.00000
      2      -0.1805      2.00000
      3       4.3856      2.00000
      4       4.4382      2.00000
      5       7.7587      0.00000
      6       9.0219      0.00000
      7       9.5399      0.00000
      8      12.9089      0.00000

 k-point    15 :       0.4667    0.0667    0.0000
  band No.  band energies     occupation 
      1      -3.9517      2.00000
      2      -0.9165      2.00000
      3       4.2214      2.00000
      4       4.4261      2.00000
      5       7.6655      0.00000
      6       9.0073      0.00000
      7       9.3860      0.00000
      8      13.5505      0.00000

 k-point    16 :      -0.4667    0.0667    0.0000
  band No.  band energies     occupation 
      1      -3.7975      2.00000
      2      -1.1425      2.00000
      3       4.1221      2.00000
      4       4.4854      2.00000
      5       7.6414      0.00000
      6       9.0552      0.00000
      7       9.2807      0.00000
      8      13.6841      0.00000

 k-point    17 :      -0.4000    0.0667    0.0000
  band No.  band energies     occupation 
      1      -4.0851      2.00000
      2      -0.7108      2.00000
      3       4.0938      2.00000
      4       4.6108      2.00000
      5       7.6881      0.00000
      6       9.1760      0.00000
      7       9.2405      0.00000
      8      13.6618      0.00000

 k-point    18 :      -0.3333    0.0667    0.0000
  band No.  band energies     occupation 
      1      -4.5703      2.00000
      2       0.1313      2.00000
      3       4.1415      2.00000
      4       4.7945      2.00000
      5       7.8039      0.00000
      6       9.2411      0.00000
      7       9.3396      0.00000
      8      13.2722      0.00000

 k-point    19 :      -0.2667    0.0667    0.0000
  band No.  band energies     occupation 
      1      -5.0566      2.00000
      2       1.1783      2.00000
      3       4.2681      2.00000
      4       5.0249      2.00000
      5       7.9822      0.00000
      6       9.2064      0.00000
      7       9.4605      0.00000
      8      12.5253      0.00000

 k-point    20 :      -0.2000    0.0667    0.0000
  band No.  band energies     occupation 
      1      -5.4723      2.00000
      2       2.3385      2.00000
      3       4.4747      2.00000
      4       5.2820      2.00000
      5       8.2078      0.00000
      6       9.0323      0.00000
      7       9.3881      0.00000
      8      11.8067      0.00000

 k-point    21 :      -0.1333    0.0667    0.0000
  band No.  band energies     occupation 
      1      -5.7908      2.00000
      2       3.5373      2.00000
      3       4.7628      2.00000
      4       5.5256      2.00000
      5       8.4450      0.00000
      6       8.7289      0.00000
      7       9.0459      0.00000
      8      11.0162      0.00000

 k-point    22 :      -0.0667    0.0667    0.0000
  band No.  band energies     occupation 
      1      -6.0008      2.00000
      2       4.6002      2.00000
      3       5.1694      2.00000
      4       5.6804      2.00000
      5       8.4750      0.00000
      6       8.5874      0.00000
      7       8.6099      0.00000
      8      10.0941      0.00000

 k-point    23 :       0.1333    0.1333    0.0000
  band No.  band energies     occupation 
      1      -5.8465      2.00000
      2       4.2773      2.00000
      3       4.8770      2.00000
      4       4.8770      2.00000
      5       7.7079      0.00000
      6       9.5693      0.00000
      7       9.5693      0.00000
      8      10.1303      0.00000

 k-point    24 :       0.2000    0.1333    0.0000
  band No.  band energies     occupation 
      1      -5.6366      2.00000
      2       3.3921      2.00000
      3       4.5861      2.00000
      4       4.6613      2.00000
      5       7.6745      0.00000
      6       9.6172      0.00000
      7      10.0397      0.00000
      8      10.3865      0.00000

 k-point    25 :       0.2667    0.1333    0.0000
  band No.  band energies     occupation 
      1      -5.3185      2.00000
      2       2.2873      2.00000
      3       4.3520      2.00000
      4       4.3752      2.00000
      5       7.8691      0.00000
      6       9.5340      0.00000
      7      10.3464      0.00000
      8      10.4054      0.00000

 k-point    26 :       0.3333    0.1333    0.0000
  band No.  band energies     occupation 
      1      -4.9032      2.00000
      2       1.1838      2.00000
      3       4.0461      2.00000
      4       4.1932      2.00000
      5       7.9707      0.00000
      6       9.5388      0.00000
      7      10.3903      0.00000
      8      10.6209      0.00000

 k-point    27 :       0.4000    0.1333    0.0000
  band No.  band energies     occupation 
      1      -4.4170      2.00000
      2       0.1708      2.00000
      3       3.7395      2.00000
      4       4.1176      2.00000
      5       7.9471      0.00000
      6       9.4642      0.00000
      7      10.2457      0.00000
      8      11.3387      0.00000

 k-point    28 :       0.4667    0.1333    0.0000
  band No.  band energies     occupation 
      1      -3.9309      2.00000
      2      -0.6528      2.00000
      3       3.4867      2.00000
      4       4.1265      2.00000
      5       7.9204      0.00000
      6       9.3793      0.00000
      7      10.0430      0.00000
      8      12.3613      0.00000

 k-point    29 :      -0.4667    0.1333    0.0000
  band No.  band energies     occupation 
      1      -3.6432      2.00000
      2      -1.0756      2.00000
      3       3.3047      2.00000
      4       4.2171      2.00000
      5       7.9524      0.00000
      6       9.3514      0.00000
      7       9.8628      0.00000
      8      13.4776      0.00000

 k-point    30 :      -0.4000    0.1333    0.0000
  band No.  band energies     occupation 
      1      -3.8022      2.00000
      2      -0.8453      2.00000
      3       3.2047      2.00000
      4       4.3826      2.00000
      5       8.0562      0.00000
      6       9.4000      0.00000
[...]
      8      11.7694      0.00000

 k-point    86 :      -0.3333    0.2667    0.0667
  band No.  band energies     occupation 
      1      -3.4513      2.00000
      2      -0.8576      2.00000
      3       1.8500      2.00000
      4       3.6752      2.00000
      5       7.9449      0.00000
      6       9.9027      0.00000
      7      11.5753      0.00000
      8      12.3232      0.00000

 k-point    87 :      -0.2667    0.2667    0.0667
  band No.  band energies     occupation 
      1      -3.9058      2.00000
      2      -0.2255      2.00000
      3       1.8989      2.00000
      4       3.9404      2.00000
      5       8.2368      0.00000
      6       9.7519      0.00000
      7      11.1899      0.00000
      8      11.5358      0.00000

 k-point    88 :      -0.2000    0.2667    0.0667
  band No.  band energies     occupation 
      1      -4.3923      2.00000
      2       0.4689      2.00000
      3       2.1994      2.00000
      4       4.2504      2.00000
      5       8.5568      0.00000
      6       9.3898      0.00000
      7      10.6496      0.00000
      8      11.1075      0.00000

 k-point    89 :       0.4000    0.3333    0.0667
  band No.  band energies     occupation 
      1      -4.2667      2.00000
      2       0.5157      2.00000
      3       2.9690      2.00000
      4       3.2517      2.00000
      5       6.8100      0.00000
      6       7.9477      0.00000
      7      11.9484      0.00000
      8      12.7580      0.00000

 k-point    90 :       0.4667    0.3333    0.0667
  band No.  band energies     occupation 
      1      -3.8076      2.00000
      2      -0.1414      2.00000
      3       2.4957      2.00000
      4       3.0895      2.00000
      5       7.0886      0.00000
      6       8.1850      0.00000
      7      11.7584      0.00000
      8      13.0957      0.00000

 k-point    91 :      -0.4667    0.3333    0.0667
  band No.  band energies     occupation 
      1      -3.3125      2.00000
      2      -0.7690      2.00000
      3       2.0025      2.00000
      4       3.0614      2.00000
      5       7.2160      0.00000
      6       9.0275      0.00000
      7      11.5169      0.00000
      8      13.0859      0.00000

 k-point    92 :      -0.4000    0.3333    0.0667
  band No.  band energies     occupation 
      1      -2.9337      2.00000
      2      -1.2015      2.00000
      3       1.6192      2.00000
      4       3.1506      2.00000
      5       7.3525      0.00000
      6      10.1660      0.00000
      7      11.3062      0.00000
      8      12.9452      0.00000

 k-point    93 :      -0.3333    0.3333    0.0667
  band No.  band energies     occupation 
      1      -2.9985      2.00000
      2      -1.1205      2.00000
      3       1.4183      2.00000
      4       3.3411      2.00000
      5       7.5741      0.00000
      6      10.9410      0.00000
      7      11.6250      0.00000
      8      12.3477      0.00000

 k-point    94 :      -0.2667    0.3333    0.0667
  band No.  band energies     occupation 
      1      -3.4221      2.00000
      2      -0.6654      2.00000
      3       1.4800      2.00000
      4       3.6145      2.00000
      5       7.8813      0.00000
      6      10.5993      0.00000
      7      11.4515      0.00000
      8      12.3306      0.00000

 k-point    95 :       0.4667    0.4000    0.0667
  band No.  band energies     occupation 
      1      -3.4835      2.00000
      2      -0.5569      2.00000
      3       2.7180      2.00000
      4       2.8765      2.00000
      5       6.6609      0.00000
      6       7.3148      0.00000
      7      13.0649      0.00000
      8      14.0118      0.00000

 k-point    96 :      -0.4667    0.4000    0.0667
  band No.  band energies     occupation 
      1      -2.9898      2.00000
      2      -1.1100      2.00000
      3       2.2276      2.00000
      4       2.8046      2.00000
      5       6.9219      0.00000
      6       7.7841      0.00000
      7      12.8504      0.00000
      8      14.3122      0.00000

 k-point    97 :      -0.4000    0.4000    0.0667
  band No.  band energies     occupation 
      1      -2.5494      2.00000
      2      -1.5427      2.00000
      3       1.7161      2.00000
      4       2.8851      2.00000
      5       7.0578      0.00000
      6       8.8226      0.00000
      7      12.5987      0.00000
      8      13.7792      0.00000

 k-point    98 :      -0.3333    0.4000    0.0667
  band No.  band energies     occupation 
      1      -2.5813      2.00000
      2      -1.4858      2.00000
      3       1.3983      2.00000
      4       3.0692      2.00000
      5       7.2689      0.00000
      6      10.0863      0.00000
      7      12.1949      0.00000
      8      12.6681      0.00000

 k-point    99 :      -0.4667    0.4667    0.0667
  band No.  band energies     occupation 
      1      -2.5889      2.00000
      2      -1.6038      2.00000
      3       2.6145      2.00000
      4       2.6655      2.00000
      5       6.6834      0.00000
      6       6.8961      0.00000
      7      14.2290      0.00000
      8      15.0793      0.00000

 k-point   100 :      -0.4000    0.4667    0.0667
  band No.  band energies     occupation 
      1      -2.1719      2.00000
      2      -1.9817      2.00000
      3       2.1352      2.00000
      4       2.7125      2.00000
      5       6.8681      0.00000
      6       7.6473      0.00000
      7      13.9188      0.00000
      8      14.1018      0.00000

 k-point   101 :       0.4000    0.2667    0.1333
  band No.  band energies     occupation 
      1      -4.7212      2.00000
      2       1.0628      2.00000
      3       2.7740      2.00000
      4       4.0554      2.00000
      5       8.1164      0.00000
      6       9.4576      0.00000
      7       9.7484      0.00000
      8      11.3497      0.00000

 k-point   102 :       0.4667    0.2667    0.1333
  band No.  band energies     occupation 
      1      -4.2643      2.00000
      2       0.2991      2.00000
      3       2.3797      2.00000
      4       3.7802      2.00000
      5       8.4364      0.00000
      6       9.4063      0.00000
      7       9.8894      0.00000
      8      11.7084      0.00000

 k-point   103 :      -0.4667    0.2667    0.1333
  band No.  band energies     occupation 
      1      -3.7718      2.00000
      2      -0.4644      2.00000
      3       2.1813      2.00000
      4       3.5439      2.00000
      5       8.5644      0.00000
      6       9.1130      0.00000
      7      10.7844      0.00000
      8      11.7908      0.00000

 k-point   104 :      -0.4000    0.2667    0.1333
  band No.  band energies     occupation 
      1      -3.3819      2.00000
      2      -1.0065      2.00000
      3       2.1011      2.00000
      4       3.4103      2.00000
      5       8.6788      0.00000
      6       8.8665      0.00000
      7      11.7626      0.00000
      8      11.9712      0.00000

 k-point   105 :       0.4667    0.3333    0.1333
  band No.  band energies     occupation 
      1      -4.0850      2.00000
      2       0.2109      2.00000
      3       2.4086      2.00000
      4       3.3084      2.00000
      5       7.8331      0.00000
      6       8.7839      0.00000
      7      10.5111      0.00000
      8      12.6657      0.00000

 k-point   106 :      -0.4667    0.3333    0.1333
  band No.  band energies     occupation 
      1      -3.5963      2.00000
      2      -0.4277      2.00000
      3       2.0395      2.00000
      4       3.0581      2.00000
      5       8.1548      0.00000
      6       9.3262      0.00000
      7      10.2365      0.00000
      8      13.0335      0.00000

 k-point   107 :      -0.4000    0.3333    0.1333
  band No.  band energies     occupation 
      1      -3.1421      2.00000
      2      -0.9859      2.00000
      3       1.7858      2.00000
      4       2.9427      2.00000
      5       8.2981      0.00000
      6       9.8619      0.00000
      7      10.4941      0.00000
      8      13.0782      0.00000

 k-point   108 :      -0.3333    0.3333    0.1333
  band No.  band energies     occupation 
      1      -2.9933      2.00000
      2      -1.1571      2.00000
      3       1.6438      2.00000
      4       2.9873      2.00000
      5       8.4820      0.00000
      6       9.6817      0.00000
      7      11.6557      0.00000
      8      12.0978      0.00000

 k-point   109 :      -0.2667    0.3333    0.1333
  band No.  band energies     occupation 
      1      -3.3112      2.00000
      2      -0.7815      2.00000
      3       1.6483      2.00000
      4       3.1719      2.00000
      5       8.7436      0.00000
      6       9.5012      0.00000
      7      10.7822      0.00000
      8      12.9134      0.00000

 k-point   110 :      -0.2000    0.3333    0.1333
  band No.  band energies     occupation 
      1      -3.7957      2.00000
      2      -0.2111      2.00000
      3       1.8703      2.00000
      4       3.4573      2.00000
      5       9.0693      0.00000
      6       9.1413      0.00000
      7      10.0050      0.00000
      8      12.5249      0.00000

 k-point   111 :      -0.4667    0.4000    0.1333
  band No.  band energies     occupation 
      1      -3.3347      2.00000
      2      -0.6788      2.00000
      3       2.2017      2.00000
      4       2.7175      2.00000
      5       7.6804      0.00000
      6       8.2209      0.00000
      7      11.4863      0.00000
      8      13.9906      0.00000

 k-point   112 :      -0.4000    0.4000    0.1333
  band No.  band energies     occupation 
      1      -2.8467      2.00000
      2      -1.1895      2.00000
      3       1.8388      2.00000
      4       2.5599      2.00000
      5       7.9732      0.00000
      6       8.9996      0.00000
      7      11.2089      0.00000
      8      13.5304      0.00000

 k-point   113 :      -0.3333    0.4000    0.1333
  band No.  band energies     occupation 
      1      -2.5760      2.00000
      2      -1.4526      2.00000
      3       1.5305      2.00000
      4       2.6304      2.00000
      5       8.1529      0.00000
      6      10.1513      0.00000
      7      11.0114      0.00000
      8      12.1461      0.00000

 k-point   114 :      -0.2667    0.4000    0.1333
  band No.  band energies     occupation 
      1      -2.8421      2.00000
      2      -1.1852      2.00000
      3       1.4345      2.00000
      4       2.8490      2.00000
      5       8.4104      0.00000
      6      10.4480      0.00000
      7      11.0284      0.00000
      8      11.7367      0.00000

 k-point   115 :      -0.4000    0.4667    0.1333
  band No.  band energies     occupation 
      1      -2.4930      2.00000
      2      -1.5934      2.00000
      3       2.1718      2.00000
      4       2.3380      2.00000
      5       7.6824      0.00000
      6       7.8573      0.00000
      7      12.5743      0.00000
      8      13.7536      0.00000

 k-point   116 :      -0.3333    0.4667    0.1333
  band No.  band energies     occupation 
      1      -2.1958      2.00000
      2      -1.8417      2.00000
      3       1.7746      2.00000
      4       2.3829      2.00000
      5       7.9110      0.00000
      6       8.8908      0.00000
      7      12.2434      0.00000
      8      12.3959      0.00000

 k-point   117 :      -0.4000    0.4000    0.2000
  band No.  band energies     occupation 
      1      -3.1088      2.00000
      2      -0.8978      2.00000
      3       1.7275      2.00000
      4       2.6946      2.00000
      5       8.9994      0.00000
      6       9.3965      0.00000
      7       9.9885      0.00000
      8      13.3203      0.00000

 k-point   118 :      -0.3333    0.4000    0.2000
  band No.  band energies     occupation 
      1      -2.6876      2.00000
      2      -1.3192      2.00000
      3       1.5899      2.00000
      4       2.4785      2.00000
      5       9.2683      0.00000
      6       9.5916      0.00000
      7      10.5286      0.00000
      8      11.8912      0.00000

 k-point   119 :      -0.3333    0.4667    0.2000
  band No.  band energies     occupation 
      1      -2.3678      2.00000
      2      -1.6182      2.00000
      3       1.8020      2.00000
      4       2.1228      2.00000
      5       8.9912      0.00000
      6       9.1314      0.00000
      7      10.9299      0.00000
      8      12.0642      0.00000

 k-point   120 :      -0.2667    0.4667    0.2000
  band No.  band energies     occupation 
      1      -2.2581      2.00000
      2      -1.7058      2.00000
      3       1.6514      2.00000
      4       2.1416      2.00000
      5       9.2414      0.00000
      6      10.1292      0.00000
      7      10.7752      0.00000
      8      10.8260      0.00000


--------------------------------------------------------------------------------------------------------


 soft charge-density along one line, spin component           1
         0         1         2         3         4         5         6         7         8         9
 total charge-density along one line
 
 pseudopotential strength for first ion, spin component:           1
 18.437  25.723   0.000   0.000   0.000   0.000   0.000   0.000
 25.723  35.893   0.000   0.000   0.000   0.000   0.000   0.000
  0.000   0.000   4.181  -0.000   0.000   7.791  -0.000   0.000
  0.000   0.000  -0.000   4.181  -0.000  -0.000   7.791  -0.000
  0.000   0.000   0.000  -0.000   4.181   0.000  -0.000   7.791
  0.000   0.000   7.791  -0.000   0.000  14.528  -0.000   0.000
  0.000   0.000  -0.000   7.791  -0.000  -0.000  14.528  -0.000
  0.000   0.000   0.000  -0.000   7.791   0.000  -0.000  14.528
 total augmentation occupancy for first ion, spin component:           1
  5.523  -2.062  -0.000   0.000   0.000  -0.000   0.000   0.000
 -2.062   0.886   0.000  -0.000  -0.000  -0.000   0.000  -0.000
 -0.000   0.000   2.902   0.000   0.000  -0.649  -0.000  -0.000
 -0.000  -0.000  -0.000   2.902   0.000  -0.000  -0.649   0.000
  0.000   0.000   0.000  -0.000   2.902  -0.000   0.000  -0.649
  0.000  -0.000  -0.649   0.000  -0.000   0.153   0.000   0.000
 -0.000  -0.000   0.000  -0.649  -0.000   0.000   0.153  -0.000
  0.000  -0.000  -0.000   0.000  -0.649   0.000  -0.000   0.153


------------------------ aborting loop because EDIFF is reached ----------------------------------------


    CHARGE:  cpu time    0.1350: real time    0.1351
    FORLOC:  cpu time    0.0030: real time    0.0039
    FORNL :  cpu time    0.3110: real time    0.3116
    STRESS:  cpu time    2.2717: real time    2.2727
    FORCOR:  cpu time    0.0690: real time    0.0700
    FORHAR:  cpu time    0.0130: real time    0.0130
    MIXING:  cpu time    0.0020: real time    0.0025
    OFIELD:  cpu time    0.0010: real time    0.0002

  FORCE on cell =-STRESS in cart. coord.  units (eV):
  Direction    XX          YY          ZZ          XY          YZ          ZX
  --------------------------------------------------------------------------------------
  Alpha Z     3.29343     3.29343     3.29343
  Ewald     -75.65023   -75.65030   -75.65022     0.00001    -0.00000    -0.00000
  Hartree     5.05662     5.05662     5.05662     0.00000     0.00000     0.00000
  E(xc)     -25.24646   -25.24646   -25.24646     0.00000     0.00000     0.00000
  Local     -29.50129   -29.50127   -29.50128    -0.00000     0.00000     0.00000
  n-local    73.84057    77.18830    81.32073    -0.89768    -0.95010    -0.02192
  augment   -11.64951   -11.64951   -11.64951    -0.00000    -0.00000    -0.00000
  Kinetic    53.03451    55.00654    60.70700     0.86446     1.26632    -0.56553
  Fock        0.00000     0.00000     0.00000     0.00000     0.00000     0.00000
  -------------------------------------------------------------------------------------
  Total       0.00177     0.00177     0.00177    -0.00000     0.00000    -0.00000
  in kB       0.06939     0.06939     0.06939    -0.00000     0.00000    -0.00000
  external pressure =        0.07 kB  Pullay stress =        0.00 kB


 VOLUME and BASIS-vectors are now :
 -----------------------------------------------------------------------------
  energy-cutoff  :      600.00
  volume of cell :       40.89
      direct lattice vectors                 reciprocal lattice vectors
     3.348813228  0.000000000  1.933437946     0.298613250 -0.105575685 -0.000000000
     1.116271076  3.157292641  1.933437946    -0.000000000  0.316727055  0.000000000
     0.000000000  0.000000000  3.866875892    -0.149306625 -0.105575685  0.258606696

  length of vectors
     3.866876301  3.866877323  3.866875892     0.316727167  0.316727055  0.316727196


 FORCES acting on ions
    electron-ion (+dipol)            ewald-force                    non-local-force                 convergence-correction
 -----------------------------------------------------------------------------------------------
   0.524E-05 0.245E-04 0.365E-07   -.892E-05 -.418E-04 0.888E-15   0.156E-17 -.111E-15 -.236E-15   0.112E-08 0.105E-08 0.183E-08
   -.524E-05 -.245E-04 -.365E-07   0.892E-05 0.418E-04 -.861E-15   0.538E-17 0.555E-16 0.902E-16   -.112E-08 -.105E-08 -.183E-08
 -----------------------------------------------------------------------------------------------
   -.654E-13 0.294E-13 0.265E-12   -.260E-15 0.517E-16 0.272E-16   0.694E-17 -.555E-16 -.146E-15   -.196E-15 0.433E-15 0.118E-14
 
 
 POSITION                                       TOTAL-FORCE (eV/Angst)
 -----------------------------------------------------------------------------------
      3.90695      2.76263      6.76703         0.000000     -0.000000      0.000000
      0.55814      0.39466      0.96672        -0.000000      0.000000     -0.000000
 -----------------------------------------------------------------------------------
    total drift:                               -0.000000      0.000000      0.000000


--------------------------------------------------------------------------------------------------------



  FREE ENERGIE OF THE ION-ELECTRON SYSTEM (eV)
  ---------------------------------------------------
  free  energy   TOTEN  =       -10.85002644 eV

  energy  without entropy=      -10.85002644  energy(sigma->0) =      -10.85002644
 
 d Force = 0.0000000E+00[ 0.000E+00, 0.000E+00]  d Energy = 0.9651842E-03-0.965E-03
 d Force = 0.0000000E+00[ 0.000E+00, 0.000E+00]  d Ewald  = 0.7014992E+00-0.701E+00


--------------------------------------------------------------------------------------------------------


    POTLOK:  cpu time    0.2660: real time    0.2740


--------------------------------------------------------------------------------------------------------




--------------------------------------------------------------------------------------------------------


  
 reached required accuracy - stopping structural energy minimisation
     LOOP+:  cpu time   14.8067: real time   15.0383
    4ORBIT:  cpu time    0.0000: real time    0.0000

 total amount of memory used by VASP MPI-rank0    60249. kBytes
=======================================================================

   base      :      30000. kBytes
   nonl-proj :      10550. kBytes
   fftplans  :       9841. kBytes
   grid      :       4538. kBytes
   one-center:          6. kBytes
   wavefun   :       5314. kBytes
 
  
  
 General timing and accounting informations for this job:
 ========================================================
  
                  Total CPU time used (sec):       57.065
                            User time (sec):       55.394
                          System time (sec):        1.672
                         Elapsed time (sec):       58.510
  
                   Maximum memory used (kb):      106716.
                   Average memory used (kb):          N/A
  
                          Minor page faults:        21176
                          Major page faults:            1
                 Voluntary context switches:        22392
