 running on    4 total cores
 distrk:  each k-point on    4 cores,    1 groups
 distr:  one band on    1 cores,    4 groups
 vasp.6.2.0 18Jan21 (build Aug 12 2022 13:00:08) complex                        
  
 POSCAR found type information on POSCAR Si
 POSCAR found :  1 types and       2 ions
 scaLAPACK will be used
 LDA part: xc-table for Pade appr. of Perdew
 POSCAR, INCAR and KPOINTS ok, starting setup
 FFT: planning ...
 WAVECAR not read
 entering main loop
       N       E                     dE             d eps       ncg     rms          rms(c)
DAV:   1     0.653954218663E+01    0.65395E+01   -0.34835E+03  1920   0.897E+02
DAV:   2    -0.107788165615E+02   -0.17318E+02   -0.16922E+02  2816   0.813E+01
DAV:   3    -0.110228410933E+02   -0.24402E+00   -0.24402E+00  2688   0.120E+01
DAV:   4    -0.110237277269E+02   -0.88663E-03   -0.88663E-03  2864   0.768E-01
DAV:   5    -0.110237296438E+02   -0.19169E-05   -0.19168E-05  2760   0.292E-02    0.483E+00
DAV:   6    -0.109021762046E+02    0.12155E+00   -0.80280E-02  2368   0.148E+00    0.295E+00
DAV:   7    -0.108465741586E+02    0.55602E-01   -0.15232E-01  2416   0.218E+00    0.185E-01
DAV:   8    -0.108476508741E+02   -0.10767E-02   -0.39455E-03  2120   0.478E-01    0.735E-02
DAV:   9    -0.108478422768E+02   -0.19140E-03   -0.19212E-04  2912   0.110E-01    0.571E-02
DAV:  10    -0.108478684973E+02   -0.26221E-04   -0.32125E-05  2192   0.428E-02    0.106E-02
DAV:  11    -0.108478680919E+02    0.40540E-06   -0.50416E-07  2664   0.508E-03
   1 F= -.10847868E+02 E0= -.10847868E+02  d E =-.108479E+02
 curvature:   0.00 expect dE= 0.000E+00 dE for cont linesearch  0.000E+00
 trial: gam= 0.00000 g(F)=  0.226E-43 g(S)=  0.735E-02 ort = 0.000E+00 (trialstep = 0.100E+01)
 search vector abs. value=  0.735E-02
 bond charge predicted
       N       E                     dE             d eps       ncg     rms          rms(c)
DAV:   1    -0.108520032553E+02   -0.41348E-02   -0.11367E-01  2360   0.192E+00    0.318E-01
DAV:   2    -0.108500817343E+02    0.19215E-02   -0.16340E-03  2624   0.282E-01    0.194E-01
DAV:   3    -0.108490676449E+02    0.10141E-02   -0.21038E-03  2280   0.234E-01    0.630E-02
DAV:   4    -0.108490676471E+02   -0.22291E-08   -0.21461E-05  2728   0.419E-02    0.557E-02
DAV:   5    -0.108490610605E+02    0.65866E-05   -0.55173E-06  2240   0.175E-02    0.126E-02
DAV:   6    -0.108490612565E+02   -0.19608E-06   -0.60058E-08  1272   0.244E-03
   2 F= -.10849061E+02 E0= -.10849061E+02  d E =-.119316E-02
 trial-energy change:   -0.001193  1 .order   -0.001296   -0.007348    0.004755
 step:   0.5948(harm=  0.6071)  dis= 0.00000  next Energy=   -10.850032 (dE=-0.216E-02)
 bond charge predicted
       N       E                     dE             d eps       ncg     rms          rms(c)
DAV:   1    -0.108504971645E+02   -0.14361E-02   -0.18907E-02  2360   0.789E-01    0.132E-01
DAV:   2    -0.108501830612E+02    0.31410E-03   -0.26740E-04  2632   0.114E-01    0.800E-02
DAV:   3    -0.108500240474E+02    0.15901E-03   -0.34688E-04  2264   0.952E-02    0.261E-02
DAV:   4    -0.108500246924E+02   -0.64502E-06   -0.35316E-06  2648   0.170E-02    0.232E-02
DAV:   5    -0.108500265190E+02   -0.18266E-05   -0.89366E-07  2064   0.713E-03    0.567E-03
DAV:   6    -0.108500264407E+02    0.78332E-07   -0.11629E-08  1088   0.106E-03
   3 F= -.10850026E+02 E0= -.10850026E+02  d E =-.215835E-02
 curvature:  -0.30 expect dE=-0.688E-07 dE for cont linesearch -0.688E-07
 trial: gam=-0.00553 g(F)=  0.146E-42 g(S)=  0.227E-06 ort = 0.408E-04 (trialstep = 0.919E+00)
 search vector abs. value=  0.107E-09
 reached required accuracy - stopping structural energy minimisation
