unknown system                          
           1
     3.333573    0.000000    1.924639
     1.111191    3.142924    1.924639
     0.000000    0.000000    3.849278
   Si
     2
Direct configuration=     1
   0.87500000  0.87500000  0.87500000
   0.12500000  0.12500000  0.12500000
unknown system                          
           1
     3.359196    0.000000    1.939433
     1.119732    3.167082    1.939433
     0.000000    0.000000    3.878865
   Si
     2
Direct configuration=     2
   0.87500000  0.87500000  0.87500000
   0.12500000  0.12500000  0.12500000
unknown system                          
           1
     3.348813    0.000000    1.933438
     1.116271    3.157293    1.933438
     0.000000    0.000000    3.866876
   Si
     2
Direct configuration=     3
   0.87500000  0.87500000  0.87500000
   0.12500000  0.12500000  0.12500000
