   2   2   0   0
  0.2016476E+02  0.3849278E-09  0.3849279E-09  0.3849278E-09  0.5000000E-15
  1.000000000000000E-004
  CAR 
 unknown system                          
     15.79448237     -7.24128116  301      5.89150361      1.00000000
     -7.241  0.0000E+00  0.0000E+00
     -7.164  0.0000E+00  0.0000E+00
     -7.088  0.0000E+00  0.0000E+00
     -7.011  0.0000E+00  0.0000E+00
     -6.934  0.0000E+00  0.0000E+00
     -6.857  0.0000E+00  0.0000E+00
     -6.781  0.0000E+00  0.0000E+00
     -6.704  0.0000E+00  0.0000E+00
     -6.627  0.0000E+00  0.0000E+00
     -6.550  0.0000E+00  0.0000E+00
     -6.473  0.1096E-17  0.8416E-19
     -6.397  0.3910E-11  0.3002E-12
     -6.320  0.1441E-06  0.1107E-07
     -6.243  0.6324E-04  0.4867E-05
     -6.166  0.5328E-03  0.4578E-04
     -6.089  0.1620E-03  0.5822E-04
     -6.013  0.7309E-04  0.6383E-04
     -5.936  0.2769E-02  0.2764E-03
     -5.859  0.4655E-02  0.6338E-03
     -5.782  0.2953E-02  0.8606E-03
     -5.706  0.1823E-03  0.8746E-03
     -5.629  0.2105E-05  0.8748E-03
     -5.552  0.7951E-03  0.9358E-03
     -5.475  0.6425E-02  0.1429E-02
     -5.398  0.1878E-02  0.1573E-02
     -5.322  0.3495E-03  0.1600E-02
     -5.245  0.9599E-02  0.2337E-02
     -5.168  0.1191E-01  0.3252E-02
     -5.091  0.2414E-02  0.3437E-02
     -5.014  0.3670E-04  0.3440E-02
     -4.938  0.7921E-06  0.3440E-02
     -4.861  0.3618E-03  0.3468E-02
     -4.784  0.3180E-02  0.3712E-02
     -4.707  0.1126E-02  0.3799E-02
     -4.631  0.6805E-02  0.4321E-02
     -4.554  0.1257E-01  0.5287E-02
     -4.477  0.1357E-01  0.6329E-02
     -4.400  0.3366E-02  0.6587E-02
     -4.323  0.6295E-03  0.6636E-02
     -4.247  0.1098E-01  0.7479E-02
     -4.170  0.9029E-02  0.8172E-02
     -4.093  0.3528E-02  0.8443E-02
     -4.016  0.2432E-03  0.8462E-02
     -3.939  0.6070E-02  0.8928E-02
     -3.863  0.1134E-01  0.9799E-02
     -3.786  0.1111E-02  0.9884E-02
     -3.709  0.1070E-01  0.1071E-01
     -3.632  0.1443E-01  0.1181E-01
     -3.556  0.2824E-02  0.1203E-01
     -3.479  0.2090E-01  0.1364E-01
     -3.402  0.1427E-01  0.1473E-01
     -3.325  0.2769E-03  0.1475E-01
     -3.248  0.1562E-04  0.1475E-01
     -3.172  0.1337E-02  0.1486E-01
     -3.095  0.3506E-02  0.1513E-01
     -3.018  0.1144E-01  0.1600E-01
     -2.941  0.1793E-01  0.1738E-01
     -2.864  0.6670E-02  0.1789E-01
     -2.788  0.1077E-03  0.1790E-01
     -2.711  0.2708E-07  0.1790E-01
     -2.634  0.2452E-04  0.1790E-01
     -2.557  0.3685E-02  0.1819E-01
     -2.481  0.1288E-01  0.1917E-01
     -2.404  0.1630E-02  0.1930E-01
     -2.327  0.1763E-04  0.1930E-01
     -2.250  0.1924E-02  0.1945E-01
     -2.173  0.6403E-02  0.1994E-01
     -2.097  0.7693E-03  0.2000E-01
     -2.020  0.6562E-04  0.2000E-01
     -1.943  0.3470E-02  0.2027E-01
     -1.866  0.5309E-02  0.2068E-01
     -1.789  0.2694E-03  0.2070E-01
     -1.713  0.2249E-06  0.2070E-01
     -1.636  0.1373E-07  0.2070E-01
     -1.559  0.7586E-04  0.2071E-01
     -1.482  0.5763E-02  0.2115E-01
     -1.406  0.1158E-01  0.2204E-01
     -1.329  0.8025E-03  0.2210E-01
     -1.252  0.8068E-04  0.2211E-01
     -1.175  0.6219E-02  0.2258E-01
     -1.098  0.2553E-01  0.2454E-01
     -1.022  0.2237E-01  0.2626E-01
     -0.945  0.4721E-02  0.2662E-01
     -0.868  0.3834E-02  0.2692E-01
     -0.791  0.6600E-02  0.2742E-01
     -0.714  0.2625E-01  0.2944E-01
     -0.638  0.6126E-02  0.2991E-01
     -0.561  0.3222E-04  0.2991E-01
     -0.484  0.3586E-03  0.2994E-01
     -0.407  0.5661E-02  0.3037E-01
     -0.331  0.3338E-02  0.3063E-01
     -0.254  0.9049E-02  0.3133E-01
     -0.177  0.8675E-02  0.3199E-01
     -0.100  0.3246E-03  0.3202E-01
     -0.023  0.5572E-02  0.3244E-01
      0.053  0.1173E-01  0.3335E-01
      0.130  0.8555E-03  0.3341E-01
      0.207  0.1092E-05  0.3341E-01
      0.284  0.2378E-05  0.3341E-01
      0.361  0.1264E-02  0.3351E-01
      0.437  0.1250E-01  0.3447E-01
      0.514  0.4415E-02  0.3481E-01
      0.591  0.3812E-04  0.3481E-01
      0.668  0.1303E-03  0.3482E-01
      0.744  0.6988E-02  0.3536E-01
      0.821  0.1058E-01  0.3617E-01
      0.898  0.5302E-03  0.3621E-01
      0.975  0.5499E-06  0.3621E-01
      1.052  0.1550E-03  0.3622E-01
      1.128  0.3413E-02  0.3648E-01
      1.205  0.2456E-02  0.3667E-01
      1.282  0.5079E-04  0.3668E-01
      1.359  0.9161E-05  0.3668E-01
      1.436  0.2682E-02  0.3688E-01
      1.512  0.1699E-01  0.3819E-01
      1.589  0.1158E-01  0.3908E-01
      1.666  0.1520E-01  0.4024E-01
      1.743  0.3640E-02  0.4052E-01
      1.819  0.4121E-03  0.4055E-01
      1.896  0.9805E-02  0.4131E-01
      1.973  0.1429E-01  0.4241E-01
      2.050  0.3318E-01  0.4495E-01
      2.127  0.1990E-01  0.4648E-01
      2.203  0.4407E-02  0.4682E-01
      2.280  0.3653E-04  0.4682E-01
      2.357  0.4143E-06  0.4682E-01
      2.434  0.6123E-03  0.4687E-01
      2.511  0.1635E-01  0.4812E-01
      2.587  0.4141E-01  0.5130E-01
      2.664  0.2297E-01  0.5307E-01
      2.741  0.6793E-03  0.5312E-01
      2.818  0.5034E-04  0.5312E-01
      2.894  0.3371E-02  0.5338E-01
      2.971  0.1486E-01  0.5452E-01
      3.048  0.3059E-01  0.5687E-01
      3.125  0.5781E-02  0.5732E-01
      3.202  0.4178E-03  0.5735E-01
      3.278  0.1064E-01  0.5816E-01
      3.355  0.2903E-01  0.6039E-01
      3.432  0.3489E-01  0.6307E-01
      3.509  0.1823E-01  0.6447E-01
      3.586  0.6553E-02  0.6498E-01
      3.662  0.2393E-02  0.6516E-01
      3.739  0.1095E-01  0.6600E-01
      3.816  0.3351E-02  0.6626E-01
      3.893  0.1299E-01  0.6726E-01
      3.969  0.2214E-01  0.6896E-01
      4.046  0.1542E-01  0.7014E-01
      4.123  0.2356E-01  0.7195E-01
      4.200  0.2762E-01  0.7407E-01
      4.277  0.2058E-02  0.7423E-01
      4.353  0.4849E-05  0.7423E-01
      4.430  0.8709E-03  0.7429E-01
      4.507  0.8374E-02  0.7494E-01
      4.584  0.3480E-02  0.7520E-01
      4.661  0.1383E-01  0.7627E-01
      4.737  0.1487E-01  0.7741E-01
      4.814  0.9083E-02  0.7811E-01
      4.891  0.1125E-02  0.7819E-01
      4.968  0.2874E-05  0.7819E-01
      5.044  0.5854E-09  0.7819E-01
      5.121  0.7799E-05  0.7819E-01
      5.198  0.1684E-02  0.7832E-01
      5.275  0.1236E-01  0.7927E-01
      5.352  0.7020E-02  0.7981E-01
      5.428  0.1942E-03  0.7983E-01
      5.505  0.8622E-06  0.7983E-01
      5.582  0.2493E-03  0.7984E-01
      5.659  0.1635E-02  0.7997E-01
      5.736  0.3910E-03  0.8000E-01
      5.812  0.2089E-05  0.8000E-01
      5.889  0.1410E-09  0.8000E-01
      5.966  0.1497E-15  0.8000E-01
      6.043  0.1057E-09  0.8000E-01
      6.119  0.2260E-05  0.8000E-01
      6.196  0.5953E-03  0.8005E-01
      6.273  0.3290E-02  0.8030E-01
      6.350  0.6653E-03  0.8035E-01
      6.427  0.1150E-04  0.8035E-01
      6.503  0.1645E-02  0.8048E-01
      6.580  0.8689E-02  0.8114E-01
      6.657  0.3264E-02  0.8139E-01
      6.734  0.1396E-02  0.8150E-01
      6.811  0.4140E-02  0.8182E-01
      6.887  0.1258E-01  0.8279E-01
      6.964  0.4686E-02  0.8315E-01
      7.041  0.8373E-03  0.8321E-01
      7.118  0.1331E-01  0.8423E-01
      7.194  0.9816E-02  0.8499E-01
      7.271  0.3751E-03  0.8501E-01
      7.348  0.4517E-05  0.8501E-01
      7.425  0.9418E-03  0.8509E-01
      7.502  0.6077E-02  0.8555E-01
      7.578  0.3472E-02  0.8582E-01
      7.655  0.3261E-02  0.8607E-01
      7.732  0.2480E-01  0.8797E-01
      7.809  0.2955E-01  0.9024E-01
      7.886  0.2919E-01  0.9248E-01
      7.962  0.5154E-02  0.9288E-01
      8.039  0.4385E-02  0.9322E-01
      8.116  0.1251E-02  0.9331E-01
      8.193  0.1591E-01  0.9453E-01
      8.269  0.4058E-01  0.9765E-01
      8.346  0.2141E-01  0.9929E-01
      8.423  0.1876E-01  0.1007E+00
      8.500  0.1062E-02  0.1008E+00
      8.577  0.1145E-02  0.1009E+00
      8.653  0.1454E-01  0.1020E+00
      8.730  0.3644E-01  0.1048E+00
      8.807  0.6268E-02  0.1053E+00
      8.884  0.2711E-02  0.1055E+00
      8.961  0.6809E-02  0.1060E+00
      9.037  0.1118E-01  0.1069E+00
      9.114  0.3095E-01  0.1093E+00
      9.191  0.2453E-01  0.1112E+00
      9.268  0.3635E-02  0.1114E+00
      9.344  0.1239E-01  0.1124E+00
      9.421  0.2593E-01  0.1144E+00
      9.498  0.4030E-01  0.1175E+00
      9.575  0.3286E-01  0.1200E+00
      9.652  0.6355E-02  0.1205E+00
      9.728  0.1190E-01  0.1214E+00
      9.805  0.2262E-01  0.1231E+00
      9.882  0.2475E-02  0.1233E+00
      9.959  0.3291E-02  0.1236E+00
     10.036  0.6005E-03  0.1236E+00
     10.112  0.4101E-02  0.1239E+00
     10.189  0.2179E-01  0.1256E+00
     10.266  0.1061E-01  0.1264E+00
     10.343  0.9683E-02  0.1272E+00
     10.419  0.1111E-01  0.1280E+00
     10.496  0.1845E-01  0.1294E+00
     10.573  0.1676E-01  0.1307E+00
     10.650  0.4628E-02  0.1311E+00
     10.727  0.4208E-04  0.1311E+00
     10.803  0.5107E-08  0.1311E+00
     10.880  0.7561E-07  0.1311E+00
     10.957  0.2510E-03  0.1311E+00
     11.034  0.1503E-01  0.1323E+00
     11.111  0.2882E-01  0.1345E+00
     11.187  0.1376E-01  0.1355E+00
     11.264  0.1431E-01  0.1366E+00
     11.341  0.1083E-01  0.1375E+00
     11.418  0.3155E-01  0.1399E+00
     11.494  0.3896E-02  0.1402E+00
     11.571  0.1208E-04  0.1402E+00
     11.648  0.1475E-02  0.1403E+00
     11.725  0.2248E-01  0.1420E+00
     11.802  0.1343E-01  0.1430E+00
     11.878  0.1963E-01  0.1446E+00
     11.955  0.2085E-01  0.1462E+00
     12.032  0.4110E-02  0.1465E+00
     12.109  0.7194E-02  0.1470E+00
     12.186  0.5158E-01  0.1510E+00
     12.262  0.2274E-01  0.1527E+00
     12.339  0.7934E-02  0.1533E+00
     12.416  0.1035E-01  0.1541E+00
     12.493  0.4844E-03  0.1542E+00
     12.569  0.3682E-06  0.1542E+00
     12.646  0.3146E-11  0.1542E+00
     12.723  0.2162E-11  0.1542E+00
     12.800  0.1993E-06  0.1542E+00
     12.877  0.2088E-03  0.1542E+00
     12.953  0.3664E-02  0.1545E+00
     13.030  0.2166E-02  0.1546E+00
     13.107  0.3525E-04  0.1546E+00
     13.184  0.8102E-08  0.1546E+00
     13.261  0.1169E-05  0.1546E+00
     13.337  0.5095E-03  0.1547E+00
     13.414  0.4266E-02  0.1550E+00
     13.491  0.1289E-02  0.1551E+00
     13.568  0.9275E-05  0.1551E+00
     13.644  0.2274E-03  0.1551E+00
     13.721  0.8375E-02  0.1558E+00
     13.798  0.9298E-02  0.1565E+00
     13.875  0.3241E-03  0.1565E+00
     13.952  0.1754E-06  0.1565E+00
     14.028  0.5672E-07  0.1565E+00
     14.105  0.1725E-03  0.1565E+00
     14.182  0.7674E-02  0.1571E+00
     14.259  0.1006E-01  0.1579E+00
     14.336  0.4492E-02  0.1582E+00
     14.412  0.4758E-02  0.1586E+00
     14.489  0.3876E-03  0.1586E+00
     14.566  0.4998E-02  0.1590E+00
     14.643  0.3832E-02  0.1593E+00
     14.719  0.2029E-02  0.1595E+00
     14.796  0.6394E-02  0.1599E+00
     14.873  0.7589E-03  0.1600E+00
     14.950  0.1729E-05  0.1600E+00
     15.027  0.4692E-10  0.1600E+00
     15.103  0.1315E-16  0.1600E+00
     15.180  0.0000E+00  0.1600E+00
     15.257  0.0000E+00  0.1600E+00
     15.334  0.0000E+00  0.1600E+00
     15.411  0.0000E+00  0.1600E+00
     15.487  0.0000E+00  0.1600E+00
     15.564  0.0000E+00  0.1600E+00
     15.641  0.0000E+00  0.1600E+00
     15.718  0.0000E+00  0.1600E+00
     15.794  0.0000E+00  0.1600E+00
