    2    2  100    1
  0.2016476E+02  0.3849278E-09  0.3849279E-09  0.3849278E-09  0.5000000E-15
  1.000000000000000E-004
  CAR 
 unknown system                          
      8     20      8
 
  0.0000000E+00  0.0000000E+00  0.0000000E+00  0.2915452E-02
    1       -6.194201   1.000000
    2        5.625367   1.000000
    3        5.625367   1.000000
    4        5.625370   1.000000
    5        8.181452   0.000000
    6        8.181459   0.000000
    7        8.181460   0.000000
    8        8.763943   0.000000
 
  0.1428571E+00 -0.6938894E-17  0.0000000E+00  0.2332362E-01
    1       -5.932728   1.000000
    2        3.704540   1.000000
    3        5.275534   1.000000
    4        5.275537   1.000000
    5        8.004806   0.000000
    6        8.693721   0.000000
    7        8.693728   0.000000
    8       10.479313   0.000000
 
  0.2857143E+00  0.0000000E+00  0.0000000E+00  0.2332362E-01
    1       -5.180036   1.000000
    2        1.120570   1.000000
    3        4.767300   1.000000
    4        4.767303   1.000000
    5        7.461342   0.000000
    6        9.150930   0.000000
    7        9.150938   0.000000
    8       12.940958   0.000000
 
  0.4285714E+00  0.2775558E-16  0.0000000E+00  0.2332362E-01
    1       -4.161954   1.000000
    2       -0.874962   1.000000
    3        4.481873   1.000000
    4        4.481876   1.000000
    5        7.135830   0.000000
    6        9.013569   0.000000
    7        9.013578   0.000000
    8       13.386065   0.000000
 
  0.1428571E+00  0.1428571E+00  0.0000000E+00  0.1749271E-01
    1       -5.844229   1.000000
    2        3.977163   1.000000
    3        4.674534   1.000000
    4        4.674534   1.000000
    5        7.512595   0.000000
    6        9.561226   0.000000
    7        9.561229   0.000000
    8        9.918322   0.000000
 
  0.2857143E+00  0.1428571E+00  0.0000000E+00  0.6997085E-01
    1       -5.247870   1.000000
    2        1.891115   1.000000
    3        4.092437   1.000000
    4        4.140771   1.000000
    5        7.700912   0.000000
    6        9.454037   0.000000
    7       10.188421   0.000000
    8       10.339590   0.000000
 
  0.4285714E+00  0.1428571E+00  0.0000000E+00  0.6997085E-01
    1       -4.258651   1.000000
    2       -0.254652   1.000000
    3        3.413334   1.000000
    4        3.953415   1.000000
    5        7.758103   0.000000
    6        9.404839   0.000000
    7       10.140752   0.000000
    8       11.374623   0.000000
 
 -0.4285714E+00  0.1428571E+00  0.0000000E+00  0.6997085E-01
    1       -3.714079   1.000000
    2       -1.100042   1.000000
    3        3.007530   1.000000
    4        4.146127   1.000000
    5        7.844989   0.000000
    6        9.328503   0.000000
    7        9.754296   0.000000
    8       13.723745   0.000000
 
 -0.2857143E+00  0.1428571E+00  0.0000000E+00  0.6997085E-01
    1       -4.619695   1.000000
    2        0.412827   1.000000
    3        3.016577   1.000000
    4        4.650042   1.000000
    5        8.228440   0.000000
    6        9.511392   0.000000
    7        9.534790   0.000000
    8       12.197576   0.000000
 
 -0.1428571E+00  0.1428571E+00  0.0000000E+00  0.3498542E-01
    1       -5.504031   1.000000
    2        2.501357   1.000000
    3        3.702228   1.000000
    4        5.232229   1.000000
    5        8.617915   0.000000
    6        8.903412   0.000000
    7        9.151621   0.000000
    8       11.168810   0.000000
 
  0.2857143E+00  0.2857143E+00  0.0000000E+00  0.1749271E-01
    1       -4.811141   1.000000
    2        1.473112   1.000000
    3        3.529494   1.000000
    4        3.529496   1.000000
    5        6.581361   0.000000
    6        8.253275   0.000000
    7       11.945667   0.000000
    8       11.945667   0.000000
 
  0.4285714E+00  0.2857143E+00  0.0000000E+00  0.6997085E-01
    1       -3.924696   1.000000
    2       -0.005830   1.000000
    3        2.570962   1.000000
    4        3.273252   1.000000
    5        6.864518   0.000000
    6        8.335450   0.000000
    7       12.153707   0.000000
    8       12.347551   0.000000
 
 -0.4285714E+00  0.2857143E+00  0.0000000E+00  0.6997085E-01
    1       -3.027965   1.000000
    2       -1.159268   1.000000
    3        1.636113   1.000000
    4        3.438363   1.000000
    5        7.101844   0.000000
    6       10.549682   0.000000
    7       11.858369   0.000000
    8       11.887403   0.000000
 
 -0.2857143E+00  0.2857143E+00  0.0000000E+00  0.3498542E-01
    1       -3.664773   1.000000
    2       -0.421978   1.000000
    3        1.565368   1.000000
    4        3.977160   1.000000
    5        7.692878   0.000000
    6       11.034785   0.000000
    7       11.372580   0.000000
    8       12.135211   0.000000
 
  0.4285714E+00  0.4285714E+00  0.0000000E+00  0.1749271E-01
    1       -3.152766   1.000000
    2       -0.990019   1.000000
    3        2.907638   1.000000
    4        2.907641   1.000000
    5        6.235878   0.000000
    6        6.753070   0.000000
    7       14.559520   0.000000
    8       14.559521   0.000000
 
 -0.4285714E+00  0.4285714E+00  0.0000000E+00  0.3498542E-01
    1       -2.222015   1.000000
    2       -1.932979   1.000000
    3        2.037324   1.000000
    4        2.967932   1.000000
    5        6.536491   0.000000
    6        7.774295   0.000000
    7       14.339231   0.000000
    8       14.747402   0.000000
 
  0.4285714E+00  0.2857143E+00  0.1428571E+00  0.6997085E-01
    1       -4.508587   1.000000
    2        0.754274   1.000000
    3        2.574823   1.000000
    4        3.872221   1.000000
    5        8.204250   0.000000
    6        9.441066   0.000000
    7        9.734736   0.000000
    8       11.705241   0.000000
 
 -0.4285714E+00  0.2857143E+00  0.1428571E+00  0.1399417E+00
    1       -3.487818   1.000000
    2       -0.748365   1.000000
    3        2.007005   1.000000
    4        3.348541   1.000000
    5        8.686083   0.000000
    6        9.090620   0.000000
    7       11.052589   0.000000
    8       12.157140   0.000000
 
 -0.4285714E+00  0.4285714E+00  0.1428571E+00  0.6997085E-01
    1       -2.953491   1.000000
    2       -1.076786   1.000000
    3        2.101646   1.000000
    4        2.506661   1.000000
    5        7.843862   0.000000
    6        8.214394   0.000000
    7       11.715511   0.000000
    8       14.188164   0.000000
 
 -0.2857143E+00  0.4285714E+00  0.1428571E+00  0.6997085E-01
    1       -2.528029   1.000000
    2       -1.465840   1.000000
    3        1.478582   1.000000
    4        2.596136   1.000000
    5        8.365397   0.000000
    6       10.457384   0.000000
    7       11.203335   0.000000
    8       11.360289   0.000000
