 vasp.6.2.0 18Jan21 (build Aug 12 2022 13:00:08) complex                        
  
 executed on             LinuxIFC date 2024.11.03  21:53:22
 running on    4 total cores
 distrk:  each k-point on    4 cores,    1 groups
 distr:  one band on NCORE=   1 cores,    4 groups


--------------------------------------------------------------------------------------------------------


 INCAR:
   ISTART = 0            (Read existing wavefunction, if there)
   ISPIN = 1            (Non-Spin polarised DFT)
   LREAL = .FALSE.       (Projection operators: automatic)
   LWAVE = .FALSE.        (Write WAVECAR or not)
   LCHARG = .FALSE.        (Write CHGCAR or not)
   ADDGRID = .TRUE.        (Increase grid, helps GGA convergence)
   LASPH = .TRUE.        (Give more accurate total energies and band structure calculations)
   PREC = Accurate      (Accurate strictly avoids any aliasing or wrap around errors)
   ENCUT = 350          (Cut-off energy for plane wave basis set, in eV)
   ISMEAR = 0            (Gaussian smearing, metals:1)
   SIGMA = 0.05         (Smearing value in eV, metals:0.2)
   NELM = 90           (Max electronic SCF steps)
   NELMIN = 6            (Min electronic SCF steps)
   EDIFF = 1E-06        (SCF energy convergence, in eV)
   NSW = 100          (Max ionic steps)
   IBRION = 2            (Algorithm: 0-MD, 1-Quasi-New, 2-CG)
   ISIF = 3            (Stress/relaxation: 2-Ions, 3-Shape/Ions/V, 4-Shape/Ions)
   EDIFFG = -2E-03        (Ionic convergence, eV/AA)
   ISYM = 2              (Symmetry: 0\=none, 2\=GGA, 3\=hybrids)

 POTCAR:    PAW_PBE Si 05Jan2001                  
 POTCAR:    PAW_PBE Si 05Jan2001                  
   VRHFIN =Si: s2p2                                                                                 
   LEXCH  = PE                                                                                      
   EATOM  =   103.0669 eV,    7.5752 Ry                                                             
                                                                                                    
   TITEL  = PAW_PBE Si 05Jan2001                                                                    
   LULTRA =        F    use ultrasoft PP ?                                                          
   IUNSCR =        1    unscreen: 0-lin 1-nonlin 2-no                                               
   RPACOR =    1.500    partial core radius                                                         
   POMASS =   28.085; ZVAL   =    4.000    mass and valenz                                          
   RCORE  =    1.900    outmost cutoff radius                                                       
   RWIGS  =    2.480; RWIGS  =    1.312    wigner-seitz radius (au A)                               
   ENMAX  =  245.345; ENMIN  =  184.009 eV                                                          
   ICORE  =        2    local potential                                                             
   LCOR   =        T    correct aug charges                                                         
   LPAW   =        T    paw PP                                                                      
   EAUG   =  322.069                                                                                
   DEXC   =    0.000                                                                                
   RMAX   =    1.950    core radius for proj-oper                                                   
   RAUG   =    1.300    factor for augmentation sphere                                              
   RDEP   =    1.993    radius for radial grids                                                     
   RDEPT  =    1.837    core radius for aug-charge                                                  
                                                                                                    
   Atomic configuration                                                                             
    6 entries                                                                                       
     n  l   j            E        occ.                                                              
     1  0  0.50     -1785.8828   2.0000                                                             
     2  0  0.50      -139.4969   2.0000                                                             
     2  1  1.50       -95.5546   6.0000                                                             
     3  0  0.50       -10.8127   2.0000                                                             
     3  1  0.50        -4.0811   2.0000                                                             
     3  2  1.50        -4.0817   0.0000                                                             
   Description                                                                                      
     l       E           TYP  RCUT    TYP  RCUT                                                     
     0    -10.8127223     23  1.900                                                                 
     0     -7.6451159     23  1.900                                                                 
     1     -4.0811372     23  1.900                                                                 
     1      2.4879257     23  1.900                                                                 
     2     -4.0817478      7  1.900                                                                 
  local pseudopotential read in
  partial core-charges read in
  partial kinetic energy density read in
  atomic valenz-charges read in
  non local Contribution for L=           0  read in
    real space projection operators read in
  non local Contribution for L=           0  read in
    real space projection operators read in
  non local Contribution for L=           1  read in
    real space projection operators read in
  non local Contribution for L=           1  read in
    real space projection operators read in
    PAW grid and wavefunctions read in
 
   number of l-projection  operators is LMAX  =           4
   number of lm-projection operators is LMMAX =           8
 
  PAW_PBE Si 05Jan2001                  :
 energy of atom  1       EATOM= -103.0669
 kinetic energy error for atom=    0.0013 (will be added to EATOM!!)
 
 
 POSCAR: Si2
  positions in direct lattice
  No initial velocities read in
 exchange correlation table for  LEXCH =        8
   RHO(1)=    0.500       N(1)  =     2000
   RHO(2)=  100.500       N(2)  =     4000
 


--------------------------------------------------------------------------------------------------------


 ion  position               nearest neighbor table
   1  0.875  0.875  0.875-   2 2.36   2 2.36   2 2.36   2 2.36
   2  0.125  0.125  0.125-   1 2.36   1 2.36   1 2.36   1 2.36
 
  LATTYP: Found a face centered cubic cell.
 ALAT       =     5.4437031493
  
  Lattice vectors:
  
 A1 = (   3.3335730000,   0.0000000000,   1.9246390000)
 A2 = (   1.1111910000,   3.1429240000,   1.9246390000)
 A3 = (   0.0000000000,   0.0000000000,   3.8492780000)


Analysis of symmetry for initial positions (statically):
=====================================================================
 Subroutine PRICEL returns:
 Original cell was already a primitive cell.
 

 Routine SETGRP: Setting up the symmetry group for a 
 face centered cubic supercell.


 Subroutine GETGRP returns: Found 48 space group operations
 (whereof 12 operations were pure point group operations)
 out of a pool of 48 trial point group operations.


The static configuration has the point symmetry D_3d.
 The point group associated with its full space group is O_h .


Analysis of symmetry for dynamics (positions and initial velocities):
=====================================================================
 Subroutine PRICEL returns:
 Original cell was already a primitive cell.
 

 Routine SETGRP: Setting up the symmetry group for a 
 face centered cubic supercell.


 Subroutine GETGRP returns: Found 48 space group operations
 (whereof 12 operations were pure point group operations)
 out of a pool of 48 trial point group operations.


The dynamic configuration has the point symmetry D_3d.
 The point group associated with its full space group is O_h .


 Subroutine INISYM returns: Found 48 space group operations
 (whereof 12 operations are pure point group operations),
 and found     1 'primitive' translations


----------------------------------------------------------------------------------------

                                     Primitive cell                                     

  volume of cell :      40.3295

  direct lattice vectors                    reciprocal lattice vectors
     3.333573000  0.000000000  1.924639000     0.299978432 -0.106058350  0.000000000
     1.111191000  3.142924000  1.924639000     0.000000000  0.318175050  0.000000000
     0.000000000  0.000000000  3.849278000    -0.149989216 -0.106058350  0.259788979

  length of vectors
     3.849278403  3.849279412  3.849278000     0.318175161  0.318175050  0.318175190

  position of ions in fractional coordinates (direct lattice)
     0.875000000  0.875000000  0.875000000
     0.125000000  0.125000000  0.125000000

  ion indices of the primitive-cell ions
   primitive index   ion index
                 1           1
                 2           2

----------------------------------------------------------------------------------------

 
 
 KPOINTS: Automatic                               

Automatic generation of k-mesh.
 Grid dimensions read from file:
 generate k-points for:    7    7    7

 Generating k-lattice:

  Cartesian coordinates                     Fractional coordinates (reciprocal lattice)
     0.042854062 -0.015151193  0.000000000     0.142857143  0.000000000  0.000000000
     0.000000000  0.045453579  0.000000000     0.000000000  0.142857143  0.000000000
    -0.021427031 -0.015151193  0.037112711     0.000000000  0.000000000  0.142857143

  Length of vectors
     0.045453594  0.045453579  0.045453599

  Shift w.r.t. Gamma in fractional coordinates (k-lattice)
     0.000000000  0.000000000  0.000000000

 
 Subroutine IBZKPT returns following result:
 ===========================================
 
 Found     20 irreducible k-points:
 
 Following reciprocal coordinates:
            Coordinates               Weight
  0.000000  0.000000  0.000000      1.000000
  0.142857 -0.000000  0.000000      8.000000
  0.285714  0.000000  0.000000      8.000000
  0.428571  0.000000  0.000000      8.000000
  0.142857  0.142857  0.000000      6.000000
  0.285714  0.142857  0.000000     24.000000
  0.428571  0.142857  0.000000     24.000000
 -0.428571  0.142857  0.000000     24.000000
 -0.285714  0.142857  0.000000     24.000000
 -0.142857  0.142857  0.000000     12.000000
  0.285714  0.285714  0.000000      6.000000
  0.428571  0.285714  0.000000     24.000000
 -0.428571  0.285714  0.000000     24.000000
 -0.285714  0.285714  0.000000     12.000000
  0.428571  0.428571  0.000000      6.000000
 -0.428571  0.428571  0.000000     12.000000
  0.428571  0.285714  0.142857     24.000000
 -0.428571  0.285714  0.142857     48.000000
 -0.428571  0.428571  0.142857     24.000000
 -0.285714  0.428571  0.142857     24.000000
 
 Following cartesian coordinates:
            Coordinates               Weight
  0.000000  0.000000  0.000000      1.000000
  0.042854 -0.015151  0.000000      8.000000
  0.085708 -0.030302  0.000000      8.000000
  0.128562 -0.045454  0.000000      8.000000
  0.042854  0.030302  0.000000      6.000000
  0.085708  0.015151  0.000000     24.000000
  0.128562  0.000000  0.000000     24.000000
 -0.128562  0.090907  0.000000     24.000000
 -0.085708  0.075756  0.000000     24.000000
 -0.042854  0.060605  0.000000     12.000000
  0.085708  0.060605  0.000000      6.000000
  0.128562  0.045454  0.000000     24.000000
 -0.128562  0.136361  0.000000     24.000000
 -0.085708  0.121210  0.000000     12.000000
  0.128562  0.090907  0.000000      6.000000
 -0.128562  0.181814  0.000000     12.000000
  0.107135  0.030302  0.037113     24.000000
 -0.149989  0.121210  0.037113     48.000000
 -0.149989  0.166663  0.037113     24.000000
 -0.107135  0.151512  0.037113     24.000000
 


--------------------------------------------------------------------------------------------------------




 Dimension of arrays:
   k-points           NKPTS =     20   k-points in BZ     NKDIM =     20   number of bands    NBANDS=      8
   number of dos      NEDOS =    301   number of ions     NIONS =      2
   non local maximal  LDIM  =      4   non local SUM 2l+1 LMDIM =      8
   total plane-waves  NPLWV =  13824
   max r-space proj   IRMAX =      1   max aug-charges    IRDMAX=  91874
   dimension x,y,z NGX =    24 NGY =   24 NGZ =   24
   dimension x,y,z NGXF=    48 NGYF=   48 NGZF=   48
   support grid    NGXF=    96 NGYF=   96 NGZF=   96
   ions per type =               2
   NGX,Y,Z   is equivalent  to a cutoff of  10.37, 10.37, 10.37 a.u.
   NGXF,Y,Z  is equivalent  to a cutoff of  20.73, 20.73, 20.73 a.u.

 SYSTEM =  unknown system                          
 POSCAR =  Si2                                     

 Startparameter for this run:
   NWRITE =      2    write-flag & timer
   PREC   = accura    normal or accurate (medium, high low for compatibility)
   ISTART =      0    job   : 0-new  1-cont  2-samecut
   ICHARG =      2    charge: 1-file 2-atom 10-const
   ISPIN  =      1    spin polarized calculation?
   LNONCOLLINEAR =      F non collinear calculations
   LSORBIT =      F    spin-orbit coupling
   INIWAV =      1    electr: 0-lowe 1-rand  2-diag
   LASPH  =      T    aspherical Exc in radial PAW
   METAGGA=      F    non-selfconsistent MetaGGA calc.

 Electronic Relaxation 1
   ENCUT  =  350.0 eV  25.72 Ry    5.07 a.u.   5.87  5.87  5.87*2*pi/ulx,y,z
   ENINI  =  350.0     initial cutoff
   ENAUG  =  322.1 eV  augmentation charge cutoff
   NELM   =     90;   NELMIN=  6; NELMDL= -5     # of ELM steps 
   EDIFF  = 0.1E-05   stopping-criterion for ELM
   LREAL  =      F    real-space projection
   NLSPLINE    = F    spline interpolate recip. space projectors
   LCOMPAT=      F    compatible to vasp.4.4
   GGA_COMPAT  = T    GGA compatible to vasp.4.4-vasp.4.6
   LMAXPAW     = -100 max onsite density
   LMAXMIX     =    2 max onsite mixed and CHGCAR
   VOSKOWN=      0    Vosko Wilk Nusair interpolation
   ROPT   =    0.00000
 Ionic relaxation
   EDIFFG = -.2E-02   stopping-criterion for IOM
   NSW    =    100    number of steps for IOM
   NBLOCK =      1;   KBLOCK =    100    inner block; outer block 
   IBRION =      2    ionic relax: 0-MD 1-quasi-New 2-CG
   NFREE  =      1    steps in history (QN), initial steepest desc. (CG)
   ISIF   =      3    stress and relaxation
   IWAVPR =     11    prediction:  0-non 1-charg 2-wave 3-comb
   ISYM   =      2    0-nonsym 1-usesym 2-fastsym
   LCORR  =      T    Harris-Foulkes like correction to forces

   POTIM  = 0.5000    time-step for ionic-motion
   TEIN   =    0.0    initial temperature
   TEBEG  =    0.0;   TEEND  =   0.0 temperature during run
   SMASS  =  -3.00    Nose mass-parameter (am)
   estimated Nose-frequenzy (Omega)   =  0.10E-29 period in steps = 0.13E+47 mass=  -0.339E-27a.u.
   SCALEE = 1.0000    scale energy and forces
   NPACO  =    256;   APACO  = 16.0  distance and # of slots for P.C.
   PSTRESS=    0.0 pullay stress

  Mass of Ions in am
   POMASS =  28.09
  Ionic Valenz
   ZVAL   =   4.00
  Atomic Wigner-Seitz radii
   RWIGS  =  -1.00
  virtual crystal weights 
   VCA    =   1.00
   NELECT =       8.0000    total number of electrons
   NUPDOWN=      -1.0000    fix difference up-down

 DOS related values:
   EMIN   =  10.00;   EMAX   =-10.00  energy-range for DOS
   EFERMI =   0.00
   ISMEAR =     0;   SIGMA  =   0.05  broadening in eV -4-tet -1-fermi 0-gaus

 Electronic relaxation 2 (details)
   IALGO  =     38    algorithm
   LDIAG  =      T    sub-space diagonalisation (order eigenvalues)
   LSUBROT=      F    optimize rotation matrix (better conditioning)
   TURBO    =      0    0=normal 1=particle mesh
   IRESTART =      0    0=no restart 2=restart with 2 vectors
   NREBOOT  =      0    no. of reboots
   NMIN     =      0    reboot dimension
   EREF     =   0.00    reference energy to select bands
   IMIX   =      4    mixing-type and parameters
     AMIX     =   0.40;   BMIX     =  1.00
     AMIX_MAG =   1.60;   BMIX_MAG =  1.00
     AMIN     =   0.10
     WC   =   100.;   INIMIX=   1;  MIXPRE=   1;  MAXMIX= -45

 Intra band minimization:
   WEIMIN = 0.0010     energy-eigenvalue tresh-hold
   EBREAK =  0.31E-07  absolut break condition
   DEPER  =   0.30     relativ break condition  

   TIME   =   0.40     timestep for ELM

  volume/ion in A,a.u.               =      20.16       136.08
  Fermi-wavevector in a.u.,A,eV,Ry     =   0.954766  1.804247 12.402783  0.911579
  Thomas-Fermi vector in A             =   2.083543
 
 Write flags
   LWAVE        =      F    write WAVECAR
   LDOWNSAMPLE  =      F    k-point downsampling of WAVECAR
   LCHARG       =      F    write CHGCAR
   LVTOT        =      F    write LOCPOT, total local potential
   LVHAR        =      F    write LOCPOT, Hartree potential only
   LELF         =      F    write electronic localiz. function (ELF)
   LORBIT       =      0    0 simple, 1 ext, 2 COOP (PROOUT), +10 PAW based schemes


 Dipole corrections
   LMONO  =      F    monopole corrections only (constant potential shift)
   LDIPOL =      F    correct potential (dipole corrections)
   IDIPOL =      0    1-x, 2-y, 3-z, 4-all directions 
   EPSILON=  1.0000000 bulk dielectric constant

 Exchange correlation treatment:
   GGA     =    --    GGA type
   LEXCH   =     8    internal setting for exchange type
   VOSKOWN=      0    Vosko Wilk Nusair interpolation
   LHFCALC =     F    Hartree Fock is set to
   LHFONE  =     F    Hartree Fock one center treatment
   AEXX    =    0.0000 exact exchange contribution

 Linear response parameters
   LEPSILON=     F    determine dielectric tensor
   LRPA    =     F    only Hartree local field effects (RPA)
   LNABLA  =     F    use nabla operator in PAW spheres
   LVEL    =     F    velocity operator in full k-point grid
   LINTERFAST=   F  fast interpolation
   KINTER  =     0    interpolate to denser k-point grid
   CSHIFT  =0.1000    complex shift for real part using Kramers Kronig
   OMEGAMAX=  -1.0    maximum frequency
   DEG_THRESHOLD= 0.2000000E-02 threshold for treating states as degnerate
   RTIME   =   -0.100 relaxation time in fs
  (WPLASMAI=    0.000 imaginary part of plasma frequency in eV, 0.658/RTIME)
   DFIELD  = 0.0000000 0.0000000 0.0000000 field for delta impulse in time
 
 Orbital magnetization related:
   ORBITALMAG=     F  switch on orbital magnetization
   LCHIMAG   =     F  perturbation theory with respect to B field
   DQ        =  0.001000  dq finite difference perturbation B field
   LLRAUG    =     F  two centre corrections for induced B field



--------------------------------------------------------------------------------------------------------


 conjugate gradient relaxation of ions
 charge density and potential will be updated during run
 non-spin polarized calculation
 Variant of blocked Davidson
 Davidson routine will perform the subspace rotation
 perform sub-space diagonalisation
    after iterative eigenvector-optimisation
 modified Broyden-mixing scheme, WC =      100.0
 initial mixing is a Kerker type mixing with AMIX =  0.4000 and BMIX =      1.0000
 Hartree-type preconditioning will be used
 using additional bands            4
 reciprocal scheme for non local part
 use partial core corrections
 calculate Harris-corrections to forces 
   (improved forces if not selfconsistent)
 use gradient corrections 
 use of overlap-Matrix (Vanderbilt PP)
 Gauss-broadening in eV      SIGMA  =   0.05


--------------------------------------------------------------------------------------------------------


  energy-cutoff  :      350.00
  volume of cell :       40.33
      direct lattice vectors                 reciprocal lattice vectors
     3.333573000  0.000000000  1.924639000     0.299978432 -0.106058350  0.000000000
     1.111191000  3.142924000  1.924639000     0.000000000  0.318175050  0.000000000
     0.000000000  0.000000000  3.849278000    -0.149989216 -0.106058350  0.259788979

  length of vectors
     3.849278403  3.849279412  3.849278000     0.318175161  0.318175050  0.318175190


 
 k-points in units of 2pi/SCALE and weight: Automatic                               
   0.00000000  0.00000000  0.00000000       0.003
   0.04285406 -0.01515119  0.00000000       0.023
   0.08570812 -0.03030239  0.00000000       0.023
   0.12856218 -0.04545358  0.00000000       0.023
   0.04285406  0.03030239  0.00000000       0.017
   0.08570812  0.01515119  0.00000000       0.070
   0.12856218  0.00000000  0.00000000       0.070
  -0.12856218  0.09090716  0.00000000       0.070
  -0.08570812  0.07575596  0.00000000       0.070
  -0.04285406  0.06060477  0.00000000       0.035
   0.08570812  0.06060477  0.00000000       0.017
   0.12856218  0.04545358  0.00000000       0.070
  -0.12856218  0.13636074  0.00000000       0.070
  -0.08570812  0.12120954  0.00000000       0.035
   0.12856218  0.09090716  0.00000000       0.017
  -0.12856218  0.18181431  0.00000000       0.035
   0.10713515  0.03030239  0.03711271       0.070
  -0.14998922  0.12120954  0.03711271       0.140
  -0.14998922  0.16666312  0.03711271       0.070
  -0.10713515  0.15151193  0.03711271       0.070
 
 k-points in reciprocal lattice and weights: Automatic                               
   0.00000000  0.00000000  0.00000000       0.003
   0.14285714 -0.00000000  0.00000000       0.023
   0.28571429  0.00000000  0.00000000       0.023
   0.42857143  0.00000000  0.00000000       0.023
   0.14285714  0.14285714  0.00000000       0.017
   0.28571429  0.14285714  0.00000000       0.070
   0.42857143  0.14285714  0.00000000       0.070
  -0.42857143  0.14285714  0.00000000       0.070
  -0.28571429  0.14285714  0.00000000       0.070
  -0.14285714  0.14285714  0.00000000       0.035
   0.28571429  0.28571429  0.00000000       0.017
   0.42857143  0.28571429  0.00000000       0.070
  -0.42857143  0.28571429  0.00000000       0.070
  -0.28571429  0.28571429  0.00000000       0.035
   0.42857143  0.42857143  0.00000000       0.017
  -0.42857143  0.42857143  0.00000000       0.035
   0.42857143  0.28571429  0.14285714       0.070
  -0.42857143  0.28571429  0.14285714       0.140
  -0.42857143  0.42857143  0.14285714       0.070
  -0.28571429  0.42857143  0.14285714       0.070
 
 position of ions in fractional coordinates (direct lattice) 
   0.87500000  0.87500000  0.87500000
   0.12500000  0.12500000  0.12500000
 
 position of ions in cartesian coordinates  (Angst):
   3.88916850  2.75005850  6.73623650
   0.55559550  0.39286550  0.96231950
 


--------------------------------------------------------------------------------------------------------


 k-point   1 :   0.0000 0.0000 0.0000  plane waves:     609
 k-point   2 :   0.1429-0.0000 0.0000  plane waves:     585
 k-point   3 :   0.2857 0.0000 0.0000  plane waves:     598
 k-point   4 :   0.4286 0.0000 0.0000  plane waves:     595
 k-point   5 :   0.1429 0.1429 0.0000  plane waves:     593
 k-point   6 :   0.2857 0.1429 0.0000  plane waves:     602
 k-point   7 :   0.4286 0.1429 0.0000  plane waves:     595
 k-point   8 :  -0.4286 0.1429 0.0000  plane waves:     598
 k-point   9 :  -0.2857 0.1429 0.0000  plane waves:     599
 k-point  10 :  -0.1429 0.1429 0.0000  plane waves:     594
 k-point  11 :   0.2857 0.2857 0.0000  plane waves:     592
 k-point  12 :   0.4286 0.2857 0.0000  plane waves:     597
 k-point  13 :  -0.4286 0.2857 0.0000  plane waves:     601
 k-point  14 :  -0.2857 0.2857 0.0000  plane waves:     610
 k-point  15 :   0.4286 0.4286 0.0000  plane waves:     612
 k-point  16 :  -0.4286 0.4286 0.0000  plane waves:     608
 k-point  17 :   0.4286 0.2857 0.1429  plane waves:     594
 k-point  18 :  -0.4286 0.2857 0.1429  plane waves:     597
 k-point  19 :  -0.4286 0.4286 0.1429  plane waves:     596
 k-point  20 :  -0.2857 0.4286 0.1429  plane waves:     600

 maximum and minimum number of plane-waves per node :       612      585

 maximum number of plane-waves:       612
 maximum index in each direction: 
   IXMAX=    6   IYMAX=    5   IZMAX=    5
   IXMIN=   -6   IYMIN=   -6   IZMIN=   -5


 serial   3D FFT for wavefunctions
 parallel 3D FFT for charge:
    minimum data exchange during FFTs selected (reduces bandwidth)


 total amount of memory used by VASP MPI-rank0    37312. kBytes
=======================================================================

   base      :      30000. kBytes
   nonl-proj :        802. kBytes
   fftplans  :       4177. kBytes
   grid      :       1926. kBytes
   one-center:          6. kBytes
   wavefun   :        401. kBytes
 
     INWAV:  cpu time    0.0000: real time    0.0007
 Broyden mixing: mesh for mixing (old mesh)
   NGX = 11   NGY = 11   NGZ = 11
  (NGX  = 48   NGY  = 48   NGZ  = 48)
  gives a total of   1331 points

 initial charge density was supplied:
 charge density of overlapping atoms calculated
 number of electron       8.0000000 magnetization 
 keeping initial charge density in first step


--------------------------------------------------------------------------------------------------------


 Maximum index for augmentation-charges        22271 (set IRDMAX)


--------------------------------------------------------------------------------------------------------


 First call to EWALD:  gamma=   0.517
 Maximum number of real-space cells 3x 3x 3
 Maximum number of reciprocal cells 3x 3x 3

    FEWALD:  cpu time    0.0040: real time    0.0039


--------------------------------------- Iteration      1(   1)  ---------------------------------------


    POTLOK:  cpu time    0.0410: real time    0.0448
    SETDIJ:  cpu time    0.2390: real time    0.2386
     EDDAV:  cpu time    0.2600: real time    0.2604
       DOS:  cpu time    0.0010: real time    0.0012
    --------------------------------------------
      LOOP:  cpu time    0.5409: real time    0.5452

 eigenvalue-minimisations  :   320
 total energy-change (2. order) : 0.1898293E+01  (-0.2546237E+03)
 number of electron       8.0000000 magnetization 
 augmentation part        8.0000000 magnetization 

 Free energy of the ion-electron system (eV)
  ---------------------------------------------------
  alpha Z        PSCENC =         3.33880741
  Ewald energy   TEWEN  =      -227.98820643
  -Hartree energ DENC   =       -11.11484531
  -exchange      EXHF   =         0.00000000
  -V(xc)+E(xc)   XCENC  =       -18.63153637
  PAW double counting   =       176.24759923     -141.06103558
  entropy T*S    EENTRO =        -0.00042613
  eigenvalues    EBANDS =        14.97668245
  atomic energy  EATOM  =       206.13125414
  Solvation  Ediel_sol  =         0.00000000
  ---------------------------------------------------
  free energy    TOTEN  =         1.89829341 eV

  energy without entropy =        1.89871954  energy(sigma->0) =        1.89850647


--------------------------------------------------------------------------------------------------------




--------------------------------------- Iteration      1(   2)  ---------------------------------------


     EDDAV:  cpu time    0.3809: real time    0.3902
       DOS:  cpu time    0.0000: real time    0.0008
    --------------------------------------------
      LOOP:  cpu time    0.3819: real time    0.3909

 eigenvalue-minimisations  :   504
 total energy-change (2. order) :-0.1275852E+02  (-0.1225784E+02)
 number of electron       8.0000000 magnetization 
 augmentation part        8.0000000 magnetization 

 Free energy of the ion-electron system (eV)
  ---------------------------------------------------
  alpha Z        PSCENC =         3.33880741
  Ewald energy   TEWEN  =      -227.98820643
  -Hartree energ DENC   =       -11.11484531
  -exchange      EXHF   =         0.00000000
  -V(xc)+E(xc)   XCENC  =       -18.63153637
  PAW double counting   =       176.24759923     -141.06103558
  entropy T*S    EENTRO =        -0.00000000
  eigenvalues    EBANDS =         2.21774001
  atomic energy  EATOM  =       206.13125414
  Solvation  Ediel_sol  =         0.00000000
  ---------------------------------------------------
  free energy    TOTEN  =       -10.86022290 eV

  energy without entropy =      -10.86022290  energy(sigma->0) =      -10.86022290


--------------------------------------------------------------------------------------------------------




--------------------------------------- Iteration      1(   3)  ---------------------------------------


     EDDAV:  cpu time    0.2070: real time    0.2135
       DOS:  cpu time    0.0010: real time    0.0006
    --------------------------------------------
      LOOP:  cpu time    0.2070: real time    0.2140

 eigenvalue-minimisations  :   408
 total energy-change (2. order) :-0.1531576E+00  (-0.1531576E+00)
 number of electron       8.0000000 magnetization 
 augmentation part        8.0000000 magnetization 

 Free energy of the ion-electron system (eV)
  ---------------------------------------------------
  alpha Z        PSCENC =         3.33880741
  Ewald energy   TEWEN  =      -227.98820643
  -Hartree energ DENC   =       -11.11484531
  -exchange      EXHF   =         0.00000000
  -V(xc)+E(xc)   XCENC  =       -18.63153637
  PAW double counting   =       176.24759923     -141.06103558
  entropy T*S    EENTRO =        -0.00000000
  eigenvalues    EBANDS =         2.06458241
  atomic energy  EATOM  =       206.13125414
  Solvation  Ediel_sol  =         0.00000000
  ---------------------------------------------------
  free energy    TOTEN  =       -11.01338051 eV

  energy without entropy =      -11.01338051  energy(sigma->0) =      -11.01338051


--------------------------------------------------------------------------------------------------------




--------------------------------------- Iteration      1(   4)  ---------------------------------------


     EDDAV:  cpu time    0.2420: real time    0.2503
       DOS:  cpu time    0.0000: real time    0.0006
    --------------------------------------------
      LOOP:  cpu time    0.2420: real time    0.2510

 eigenvalue-minimisations  :   512
 total energy-change (2. order) :-0.4766227E-03  (-0.4766226E-03)
 number of electron       8.0000000 magnetization 
 augmentation part        8.0000000 magnetization 

 Free energy of the ion-electron system (eV)
  ---------------------------------------------------
  alpha Z        PSCENC =         3.33880741
  Ewald energy   TEWEN  =      -227.98820643
  -Hartree energ DENC   =       -11.11484531
  -exchange      EXHF   =         0.00000000
  -V(xc)+E(xc)   XCENC  =       -18.63153637
  PAW double counting   =       176.24759923     -141.06103558
  entropy T*S    EENTRO =        -0.00000000
  eigenvalues    EBANDS =         2.06410578
  atomic energy  EATOM  =       206.13125414
  Solvation  Ediel_sol  =         0.00000000
  ---------------------------------------------------
  free energy    TOTEN  =       -11.01385713 eV

  energy without entropy =      -11.01385713  energy(sigma->0) =      -11.01385713


--------------------------------------------------------------------------------------------------------




--------------------------------------- Iteration      1(   5)  ---------------------------------------


     EDDAV:  cpu time    0.1910: real time    0.2033
       DOS:  cpu time    0.0010: real time    0.0006
    CHARGE:  cpu time    0.0360: real time    0.0362
    MIXING:  cpu time    0.0010: real time    0.0014
    --------------------------------------------
      LOOP:  cpu time    0.2290: real time    0.2416

 eigenvalue-minimisations  :   392
 total energy-change (2. order) :-0.4004538E-06  (-0.4006107E-06)
 number of electron       8.0000000 magnetization 
 augmentation part       -0.4699949 magnetization 

 Broyden mixing:
  rms(total) = 0.48673E+00    rms(broyden)= 0.48673E+00
  rms(prec ) = 0.95010E+00
  weight for this iteration     100.00

 Free energy of the ion-electron system (eV)
  ---------------------------------------------------
  alpha Z        PSCENC =         3.33880741
  Ewald energy   TEWEN  =      -227.98820643
  -Hartree energ DENC   =       -11.11484531
  -exchange      EXHF   =         0.00000000
  -V(xc)+E(xc)   XCENC  =       -18.63153637
  PAW double counting   =       176.24759923     -141.06103558
  entropy T*S    EENTRO =        -0.00000000
  eigenvalues    EBANDS =         2.06410538
  atomic energy  EATOM  =       206.13125414
  Solvation  Ediel_sol  =         0.00000000
  ---------------------------------------------------
  free energy    TOTEN  =       -11.01385753 eV

  energy without entropy =      -11.01385753  energy(sigma->0) =      -11.01385753


--------------------------------------------------------------------------------------------------------




--------------------------------------- Iteration      1(   6)  ---------------------------------------


    POTLOK:  cpu time    0.0320: real time    0.0417
    SETDIJ:  cpu time    0.1730: real time    0.1735
     EDDAV:  cpu time    0.1990: real time    0.2002
       DOS:  cpu time    0.0010: real time    0.0007
    CHARGE:  cpu time    0.0300: real time    0.0297
    MIXING:  cpu time    0.0010: real time    0.0015
    --------------------------------------------
      LOOP:  cpu time    0.4369: real time    0.4473

 eigenvalue-minimisations  :   416
 total energy-change (2. order) : 0.1227392E+00  (-0.8053030E-02)
 number of electron       8.0000000 magnetization 
 augmentation part       -0.4641701 magnetization 

 Broyden mixing:
  rms(total) = 0.29803E+00    rms(broyden)= 0.29803E+00
  rms(prec ) = 0.56540E+00
  weight for this iteration     100.00

 eigenvalues of (default mixing * dielectric matrix)
  average eigenvalue GAMMA=   2.5697
  2.5697

 Free energy of the ion-electron system (eV)
  ---------------------------------------------------
  alpha Z        PSCENC =         3.33880741
  Ewald energy   TEWEN  =      -227.98820643
  -Hartree energ DENC   =       -12.60817390
  -exchange      EXHF   =         0.00000000
  -V(xc)+E(xc)   XCENC  =       -18.39530913
  PAW double counting   =       378.95769329     -343.87951187
  entropy T*S    EENTRO =        -0.00000000
  eigenvalues    EBANDS =         3.55232810
  atomic energy  EATOM  =       206.13125414
  Solvation  Ediel_sol  =         0.00000000
  ---------------------------------------------------
  free energy    TOTEN  =       -10.89111838 eV

  energy without entropy =      -10.89111838  energy(sigma->0) =      -10.89111838


--------------------------------------------------------------------------------------------------------




--------------------------------------- Iteration      1(   7)  ---------------------------------------


    POTLOK:  cpu time    0.0320: real time    0.0386
    SETDIJ:  cpu time    0.1730: real time    0.1737
     EDDAV:  cpu time    0.2030: real time    0.2035
       DOS:  cpu time    0.0000: real time    0.0006
    CHARGE:  cpu time    0.0310: real time    0.0309
    MIXING:  cpu time    0.0010: real time    0.0014
    --------------------------------------------
      LOOP:  cpu time    0.4399: real time    0.4486

 eigenvalue-minimisations  :   416
 total energy-change (2. order) : 0.5617787E-01  (-0.1532025E-01)
 number of electron       8.0000000 magnetization 
 augmentation part       -0.4570752 magnetization 

 Broyden mixing:
  rms(total) = 0.18568E-01    rms(broyden)= 0.18568E-01
  rms(prec ) = 0.41400E-01
  weight for this iteration     100.00

 eigenvalues of (default mixing * dielectric matrix)
  average eigenvalue GAMMA=   2.0617
  1.7421  2.3813

 Free energy of the ion-electron system (eV)
  ---------------------------------------------------
  alpha Z        PSCENC =         3.33880741
  Ewald energy   TEWEN  =      -227.98820643
  -Hartree energ DENC   =       -15.05392866
  -exchange      EXHF   =         0.00000000
  -V(xc)+E(xc)   XCENC  =       -18.00085309
  PAW double counting   =       864.93044580     -829.99263634
  entropy T*S    EENTRO =        -0.00000000
  eigenvalues    EBANDS =         5.80017666
  atomic energy  EATOM  =       206.13125414
  Solvation  Ediel_sol  =         0.00000000
  ---------------------------------------------------
  free energy    TOTEN  =       -10.83494050 eV

  energy without entropy =      -10.83494050  energy(sigma->0) =      -10.83494050


--------------------------------------------------------------------------------------------------------




--------------------------------------- Iteration      1(   8)  ---------------------------------------


    POTLOK:  cpu time    0.0320: real time    0.0387
    SETDIJ:  cpu time    0.1730: real time    0.1729
     EDDAV:  cpu time    0.1790: real time    0.1798
       DOS:  cpu time    0.0010: real time    0.0008
    CHARGE:  cpu time    0.0290: real time    0.0300
    MIXING:  cpu time    0.0020: real time    0.0013
    --------------------------------------------
      LOOP:  cpu time    0.4149: real time    0.4234

 eigenvalue-minimisations  :   360
 total energy-change (2. order) :-0.1090081E-02  (-0.3759881E-03)
 number of electron       8.0000000 magnetization 
 augmentation part       -0.4580369 magnetization 

 Broyden mixing:
  rms(total) = 0.74098E-02    rms(broyden)= 0.74095E-02
  rms(prec ) = 0.13294E-01
  weight for this iteration     100.00

 eigenvalues of (default mixing * dielectric matrix)
  average eigenvalue GAMMA=   2.2657
  2.8976  1.9497  1.9497

 Free energy of the ion-electron system (eV)
  ---------------------------------------------------
  alpha Z        PSCENC =         3.33880741
  Ewald energy   TEWEN  =      -227.98820643
  -Hartree energ DENC   =       -14.98349420
  -exchange      EXHF   =         0.00000000
  -V(xc)+E(xc)   XCENC  =       -18.00082286
  PAW double counting   =       874.27568783     -839.31114856
  entropy T*S    EENTRO =        -0.00000000
  eigenvalues    EBANDS =         5.70189208
  atomic energy  EATOM  =       206.13125414
  Solvation  Ediel_sol  =         0.00000000
  ---------------------------------------------------
  free energy    TOTEN  =       -10.83603059 eV

  energy without entropy =      -10.83603059  energy(sigma->0) =      -10.83603059


--------------------------------------------------------------------------------------------------------




--------------------------------------- Iteration      1(   9)  ---------------------------------------


    POTLOK:  cpu time    0.0320: real time    0.0425
    SETDIJ:  cpu time    0.1740: real time    0.1738
     EDDAV:  cpu time    0.2170: real time    0.2182
       DOS:  cpu time    0.0010: real time    0.0006
    CHARGE:  cpu time    0.0300: real time    0.0300
    MIXING:  cpu time    0.0010: real time    0.0015
    --------------------------------------------
      LOOP:  cpu time    0.4549: real time    0.4667

 eigenvalue-minimisations  :   456
 total energy-change (2. order) :-0.2045472E-03  (-0.2043261E-04)
 number of electron       8.0000000 magnetization 
 augmentation part       -0.4581623 magnetization 

 Broyden mixing:
  rms(total) = 0.56841E-02    rms(broyden)= 0.56841E-02
  rms(prec ) = 0.65374E-02
  weight for this iteration     100.00

 eigenvalues of (default mixing * dielectric matrix)
  average eigenvalue GAMMA=   2.0959
  2.7084  2.3790  2.3790  0.9173

 Free energy of the ion-electron system (eV)
  ---------------------------------------------------
  alpha Z        PSCENC =         3.33880741
  Ewald energy   TEWEN  =      -227.98820643
  -Hartree energ DENC   =       -15.02620036
  -exchange      EXHF   =         0.00000000
  -V(xc)+E(xc)   XCENC  =       -17.99236939
  PAW double counting   =       876.50391414     -841.53668630
  entropy T*S    EENTRO =        -0.00000000
  eigenvalues    EBANDS =         5.73325166
  atomic energy  EATOM  =       206.13125414
  Solvation  Ediel_sol  =         0.00000000
  ---------------------------------------------------
  free energy    TOTEN  =       -10.83623513 eV

  energy without entropy =      -10.83623513  energy(sigma->0) =      -10.83623513


--------------------------------------------------------------------------------------------------------




--------------------------------------- Iteration      1(  10)  ---------------------------------------


    POTLOK:  cpu time    0.0320: real time    0.0391
    SETDIJ:  cpu time    0.1730: real time    0.1737
     EDDAV:  cpu time    0.1890: real time    0.1894
       DOS:  cpu time    0.0010: real time    0.0007
    CHARGE:  cpu time    0.0300: real time    0.0297
    MIXING:  cpu time    0.0000: real time    0.0016
    --------------------------------------------
      LOOP:  cpu time    0.4259: real time    0.4342

 eigenvalue-minimisations  :   376
 total energy-change (2. order) :-0.2517894E-04  (-0.2932560E-05)
 number of electron       8.0000000 magnetization 
 augmentation part       -0.4581398 magnetization 

 Broyden mixing:
  rms(total) = 0.88127E-03    rms(broyden)= 0.88126E-03
  rms(prec ) = 0.97963E-03
  weight for this iteration     100.00

 eigenvalues of (default mixing * dielectric matrix)
  average eigenvalue GAMMA=   1.9093
  2.9067  2.4402  2.0800  1.0597  1.0597

 Free energy of the ion-electron system (eV)
  ---------------------------------------------------
  alpha Z        PSCENC =         3.33880741
  Ewald energy   TEWEN  =      -227.98820643
  -Hartree energ DENC   =       -15.03391615
  -exchange      EXHF   =         0.00000000
  -V(xc)+E(xc)   XCENC  =       -17.99210161
  PAW double counting   =       864.99611174     -830.02881736
  entropy T*S    EENTRO =        -0.00000000
  eigenvalues    EBANDS =         5.74060794
  atomic energy  EATOM  =       206.13125414
  Solvation  Ediel_sol  =         0.00000000
  ---------------------------------------------------
  free energy    TOTEN  =       -10.83626031 eV

  energy without entropy =      -10.83626031  energy(sigma->0) =      -10.83626031


--------------------------------------------------------------------------------------------------------




--------------------------------------- Iteration      1(  11)  ---------------------------------------


    POTLOK:  cpu time    0.0330: real time    0.0387
    SETDIJ:  cpu time    0.1730: real time    0.1732
     EDDAV:  cpu time    0.2260: real time    0.2270
       DOS:  cpu time    0.0010: real time    0.0007
    --------------------------------------------
      LOOP:  cpu time    0.4319: real time    0.4394

 eigenvalue-minimisations  :   464
 total energy-change (2. order) : 0.2642370E-06  (-0.5595828E-07)
 number of electron       8.0000000 magnetization 
 augmentation part       -0.4581398 magnetization 

 Free energy of the ion-electron system (eV)
  ---------------------------------------------------
  alpha Z        PSCENC =         3.33880741
  Ewald energy   TEWEN  =      -227.98820643
  -Hartree energ DENC   =       -15.03267383
  -exchange      EXHF   =         0.00000000
  -V(xc)+E(xc)   XCENC  =       -17.99215346
  PAW double counting   =       866.27711835     -831.30939111
  entropy T*S    EENTRO =        -0.00000000
  eigenvalues    EBANDS =         5.73898488
  atomic energy  EATOM  =       206.13125414
  Solvation  Ediel_sol  =         0.00000000
  ---------------------------------------------------
  free energy    TOTEN  =       -10.83626005 eV

  energy without entropy =      -10.83626005  energy(sigma->0) =      -10.83626005


--------------------------------------------------------------------------------------------------------




 average (electrostatic) potential at core
  the test charge radii are     0.9892
  (the norm of the test charge is              1.0000)
       1 -83.3241       2 -83.3241
 
 
 
 E-fermi :   5.9737     XC(G=0):  -9.3794     alpha+bet :-11.8943

 Fermi energy:         5.9737196217

 k-point     1 :       0.0000    0.0000    0.0000
  band No.  band energies     occupation 
      1      -6.1520      2.00000
      2       5.7577      2.00000
      3       5.7577      2.00000
      4       5.7577      2.00000
      5       8.3196      0.00000
      6       8.3196      0.00000
      7       8.3196      0.00000
      8       9.0480      0.00000

 k-point     2 :       0.1429   -0.0000    0.0000
  band No.  band energies     occupation 
      1      -5.8875      2.00000
      2       3.8309      2.00000
      3       5.4033      2.00000
      4       5.4033      2.00000
      5       8.1791      0.00000
      6       8.8382      0.00000
      7       8.8382      0.00000
      8      10.7260      0.00000

 k-point     3 :       0.2857    0.0000    0.0000
  band No.  band energies     occupation 
      1      -5.1255      2.00000
      2       1.2229      2.00000
      3       4.8903      2.00000
      4       4.8903      2.00000
      5       7.6400      0.00000
      6       9.2911      0.00000
      7       9.2911      0.00000
      8      13.1713      0.00000

 k-point     4 :       0.4286    0.0000    0.0000
  band No.  band energies     occupation 
      1      -4.0918      2.00000
      2      -0.7974      2.00000
      3       4.6029      2.00000
      4       4.6029      2.00000
      5       7.3148      0.00000
      6       9.1420      0.00000
      7       9.1421      0.00000
      8      13.5380      0.00000

 k-point     5 :       0.1429    0.1429    0.0000
  band No.  band energies     occupation 
      1      -5.7980      2.00000
      2       4.1224      2.00000
      3       4.7928      2.00000
      4       4.7928      2.00000
      5       7.6423      0.00000
      6       9.7178      0.00000
      7       9.7178      0.00000
      8      10.1458      0.00000

 k-point     6 :       0.2857    0.1429    0.0000
  band No.  band energies     occupation 
      1      -5.1945      2.00000
      2       2.0099      2.00000
      3       4.2114      2.00000
      4       4.2534      2.00000
      5       7.8347      0.00000
      6       9.6446      0.00000
      7      10.3176      0.00000
      8      10.4992      0.00000

 k-point     7 :       0.4286    0.1429    0.0000
  band No.  band energies     occupation 
      1      -4.1917      2.00000
      2      -0.1632      2.00000
      3       3.5261      2.00000
      4       4.0653      2.00000
      5       7.8982      0.00000
      6       9.5702      0.00000
      7      10.2857      0.00000
      8      11.5325      0.00000

 k-point     8 :      -0.4286    0.1429    0.0000
  band No.  band energies     occupation 
      1      -3.6369      2.00000
      2      -1.0223      2.00000
      3       3.1143      2.00000
      4       4.2617      2.00000
      5       7.9950      0.00000
      6       9.4821      0.00000
      7       9.8920      0.00000
      8      13.9097      0.00000

 k-point     9 :      -0.2857    0.1429    0.0000
  band No.  band energies     occupation 
      1      -4.5579      2.00000
      2       0.5132      2.00000
      3       3.1194      2.00000
      4       4.7725      2.00000
      5       8.3944      0.00000
      6       9.6543      0.00000
      7       9.6830      0.00000
      8      12.3891      0.00000

 k-point    10 :      -0.1429    0.1429    0.0000
  band No.  band energies     occupation 
      1      -5.4537      2.00000
      2       2.6268      2.00000
      3       3.8067      2.00000
      4       5.3620      2.00000
      5       8.7978      0.00000
      6       9.0484      0.00000
      7       9.3043      0.00000
      8      11.3649      0.00000

 k-point    11 :       0.2857    0.2857    0.0000
  band No.  band energies     occupation 
      1      -4.7529      2.00000
      2       1.6029      2.00000
      3       3.6346      2.00000
      4       3.6346      2.00000
      5       6.6982      0.00000
      6       8.3752      0.00000
      7      12.1276      0.00000
      8      12.1276      0.00000

 k-point    12 :       0.4286    0.2857    0.0000
  band No.  band energies     occupation 
      1      -3.8553      2.00000
      2       0.1069      2.00000
      3       2.6622      2.00000
      4       3.3761      2.00000
      5       6.9807      0.00000
      6       8.4622      0.00000
      7      12.3511      0.00000
      8      12.5214      0.00000

 k-point    13 :      -0.4286    0.2857    0.0000
  band No.  band energies     occupation 
      1      -2.9434      2.00000
      2      -1.0651      2.00000
      3       1.7144      2.00000
      4       3.5438      2.00000
      5       7.2198      0.00000
      6      10.6955      0.00000
      7      12.0226      0.00000
      8      12.0899      0.00000

 k-point    14 :      -0.2857    0.2857    0.0000
  band No.  band energies     occupation 
      1      -3.5899      2.00000
      2      -0.3179      2.00000
      3       1.6409      2.00000
      4       4.0899      2.00000
      5       7.8232      0.00000
      6      11.2014      0.00000
      7      11.5351      0.00000
      8      12.3464      0.00000

 k-point    15 :       0.4286    0.4286    0.0000
  band No.  band energies     occupation 
      1      -3.0748      2.00000
      2      -0.8865      2.00000
      3       3.0063      2.00000
      4       3.0063      2.00000
      5       6.3440      0.00000
      6       6.8602      0.00000
      7      14.7707      0.00000
      8      14.7707      0.00000

 k-point    16 :      -0.4286    0.4286    0.0000
  band No.  band energies     occupation 
      1      -2.1302      2.00000
      2      -1.8412      2.00000
      3       2.1189      2.00000
      4       3.0674      2.00000
      5       6.6452      0.00000
      6       7.8989      0.00000
      7      14.5499      0.00000
      8      14.9891      0.00000

 k-point    17 :       0.4286    0.2857    0.1429
  band No.  band energies     occupation 
      1      -4.4461      2.00000
      2       0.8714      2.00000
      3       2.6653      2.00000
      4       3.9824      2.00000
      5       8.3408      0.00000
      6       9.5899      0.00000
      7       9.8888      0.00000
      8      11.8823      0.00000

 k-point    18 :      -0.4286    0.2857    0.1429
  band No.  band energies     occupation 
      1      -3.4102      2.00000
      2      -0.6526      2.00000
      3       2.0950      2.00000
      4       3.4493      2.00000
      5       8.8248      0.00000
      6       9.2370      0.00000
      7      11.2166      0.00000
      8      12.3344      0.00000

 k-point    19 :      -0.4286    0.4286    0.1429
  band No.  band energies     occupation 
      1      -2.8714      2.00000
      2      -0.9726      2.00000
      3       2.1851      2.00000
      4       2.5941      2.00000
      5       7.9723      0.00000
      6       8.3406      0.00000
      7      11.8935      0.00000
      8      14.4010      0.00000

 k-point    20 :      -0.2857    0.4286    0.1429
  band No.  band energies     occupation 
      1      -2.4375      2.00000
      2      -1.3675      2.00000
      3       1.5501      2.00000
      4       2.6854      2.00000
      5       8.4971      0.00000
      6      10.5955      0.00000
      7      11.3868      0.00000
      8      11.5310      0.00000


--------------------------------------------------------------------------------------------------------


 soft charge-density along one line, spin component           1
         0         1         2         3         4         5         6         7         8         9
 total charge-density along one line
 
 pseudopotential strength for first ion, spin component:           1
 18.421  25.701   0.000   0.000   0.000   0.000   0.000   0.000
 25.701  35.862   0.000   0.000   0.000   0.000   0.000   0.000
  0.000   0.000   4.179  -0.000  -0.000   7.788  -0.000  -0.000
  0.000   0.000  -0.000   4.179  -0.000  -0.000   7.788  -0.000
  0.000   0.000  -0.000  -0.000   4.179  -0.000  -0.000   7.788
  0.000   0.000   7.788  -0.000  -0.000  14.523  -0.000  -0.000
  0.000   0.000  -0.000   7.788  -0.000  -0.000  14.523  -0.000
  0.000   0.000  -0.000  -0.000   7.788  -0.000  -0.000  14.523
 total augmentation occupancy for first ion, spin component:           1
  5.644  -2.126  -0.000   0.000  -0.000  -0.000   0.000  -0.000
 -2.126   0.914  -0.000  -0.000   0.000  -0.000  -0.000   0.000
 -0.000  -0.000   2.992   0.000   0.000  -0.678  -0.000  -0.000
  0.000   0.000   0.000   2.992   0.000  -0.000  -0.678  -0.000
  0.000   0.000   0.000   0.000   2.992  -0.000  -0.000  -0.678
 -0.000  -0.000  -0.678  -0.000  -0.000   0.162   0.000   0.000
 -0.000   0.000  -0.000  -0.678  -0.000   0.000   0.162   0.000
  0.000  -0.000  -0.000  -0.000  -0.678   0.000   0.000   0.162


------------------------ aborting loop because EDIFF is reached ----------------------------------------


    CHARGE:  cpu time    0.0290: real time    0.0295
    FORLOC:  cpu time    0.0020: real time    0.0018
    FORNL :  cpu time    0.1010: real time    0.1013
    STRESS:  cpu time    0.4269: real time    0.4263
    FORCOR:  cpu time    0.0310: real time    0.0314
    FORHAR:  cpu time    0.0060: real time    0.0062
    MIXING:  cpu time    0.0010: real time    0.0013
    OFIELD:  cpu time    0.0010: real time    0.0002

  FORCE on cell =-STRESS in cart. coord.  units (eV):
  Direction    XX          YY          ZZ          XY          YZ          ZX
  --------------------------------------------------------------------------------------
  Alpha Z     3.33881     3.33881     3.33881
  Ewald     -75.99608   -75.99616   -75.99607     0.00001     0.00000    -0.00000
  Hartree     5.01146     5.01146     5.01146     0.00000     0.00000     0.00000
  E(xc)     -25.33151   -25.33151   -25.33151    -0.00000    -0.00000    -0.00000
  Local     -29.35552   -29.35551   -29.35551    -0.00000     0.00001     0.00001
  n-local    73.98374    77.38296    81.71559    -0.95425    -0.62057    -0.01447
  augment   -11.63854   -11.63854   -11.63856    -0.00000    -0.00001    -0.00001
  Kinetic    53.36288    55.42607    60.97642     0.87184     0.96742    -0.55280
  Fock        0.00000     0.00000     0.00000     0.00000     0.00000     0.00000
  -------------------------------------------------------------------------------------
  Total       0.31114     0.31114     0.31114     0.00000    -0.00000    -0.00000
  in kB      12.36088    12.36089    12.36087     0.00000    -0.00000    -0.00000
  external pressure =       12.36 kB  Pullay stress =        0.00 kB


 VOLUME and BASIS-vectors are now :
 -----------------------------------------------------------------------------
  energy-cutoff  :      350.00
  volume of cell :       40.33
      direct lattice vectors                 reciprocal lattice vectors
     3.333573000  0.000000000  1.924639000     0.299978432 -0.106058350  0.000000000
     1.111191000  3.142924000  1.924639000     0.000000000  0.318175050  0.000000000
     0.000000000  0.000000000  3.849278000    -0.149989216 -0.106058350  0.259788979

  length of vectors
     3.849278403  3.849279412  3.849278000     0.318175161  0.318175050  0.318175190


 FORCES acting on ions
    electron-ion (+dipol)            ewald-force                    non-local-force                 convergence-correction
 -----------------------------------------------------------------------------------------------
   0.522E-05 0.244E-04 0.437E-07   -.892E-05 -.418E-04 0.782E-16   -.347E-17 -.486E-16 -.139E-15   0.596E-07 0.438E-07 0.103E-06
   -.522E-05 -.244E-04 -.437E-07   0.892E-05 0.418E-04 -.194E-15   -.382E-16 0.208E-16 0.236E-15   -.596E-07 -.438E-07 -.103E-06
 -----------------------------------------------------------------------------------------------
   0.584E-13 -.466E-13 0.108E-12   -.365E-15 -.270E-16 -.116E-15   -.416E-16 -.278E-16 0.971E-16   0.894E-15 -.337E-15 0.329E-15
 
 
 POSITION                                       TOTAL-FORCE (eV/Angst)
 -----------------------------------------------------------------------------------
      3.88917      2.75006      6.73624        -0.000000     -0.000000      0.000000
      0.55560      0.39287      0.96232         0.000000      0.000000     -0.000000
 -----------------------------------------------------------------------------------
    total drift:                                0.000000     -0.000000      0.000000


--------------------------------------------------------------------------------------------------------



  FREE ENERGIE OF THE ION-ELECTRON SYSTEM (eV)
  ---------------------------------------------------
  free  energy   TOTEN  =       -10.83626005 eV

  energy  without entropy=      -10.83626005  energy(sigma->0) =      -10.83626005
 


--------------------------------------------------------------------------------------------------------


    POTLOK:  cpu time    0.2050: real time    0.2122


--------------------------------------------------------------------------------------------------------




--------------------------------------------------------------------------------------------------------


    WAVPRE:  cpu time    0.0080: real time    0.0192
    FEWALD:  cpu time    0.0010: real time    0.0003
    GENKIN:  cpu time    0.0110: real time    0.0109
    ORTHCH:  cpu time    0.0050: real time    0.0053
     LOOP+:  cpu time    5.2232: real time    5.3693


--------------------------------------- Iteration      2(   1)  ---------------------------------------


    POTLOK:  cpu time    0.0310: real time    0.0347
    SETDIJ:  cpu time    0.1760: real time    0.1761
     EDDAV:  cpu time    0.1980: real time    0.1986
       DOS:  cpu time    0.0010: real time    0.0006
    CHARGE:  cpu time    0.0310: real time    0.0321
    MIXING:  cpu time    0.0010: real time    0.0012
    --------------------------------------------
      LOOP:  cpu time    0.4389: real time    0.4437

 eigenvalue-minimisations  :   368
 total energy-change (2. order) :-0.3888872E-02  (-0.1077817E-01)
 number of electron       8.0000000 magnetization 
 augmentation part       -0.4596065 magnetization 

 Broyden mixing:
  rms(total) = 0.30483E-01    rms(broyden)= 0.30481E-01
  rms(prec ) = 0.78764E-01
  weight for this iteration     100.00

 Free energy of the ion-electron system (eV)
  ---------------------------------------------------
  alpha Z        PSCENC =         3.26474648
  Ewald energy   TEWEN  =      -226.28985265
  -Hartree energ DENC   =       -14.92229323
  -exchange      EXHF   =         0.00000000
  -V(xc)+E(xc)   XCENC  =       -18.10178686
  PAW double counting   =       866.19102736     -831.22332328
  entropy T*S    EENTRO =        -0.00000000
  eigenvalues    EBANDS =         4.11007886
  atomic energy  EATOM  =       206.13125414
  Solvation  Ediel_sol  =         0.00000000
  ---------------------------------------------------
  free energy    TOTEN  =       -10.84014918 eV

  energy without entropy =      -10.84014918  energy(sigma->0) =      -10.84014918


--------------------------------------------------------------------------------------------------------




--------------------------------------- Iteration      2(   2)  ---------------------------------------


    POTLOK:  cpu time    0.0330: real time    0.0416
    SETDIJ:  cpu time    0.1710: real time    0.1725
     EDDAV:  cpu time    0.1980: real time    0.1980
       DOS:  cpu time    0.0010: real time    0.0006
    CHARGE:  cpu time    0.0310: real time    0.0307
    MIXING:  cpu time    0.0010: real time    0.0015
    --------------------------------------------
      LOOP:  cpu time    0.4339: real time    0.4449

 eigenvalue-minimisations  :   400
 total energy-change (2. order) : 0.1819183E-02  (-0.1545304E-03)
 number of electron       8.0000000 magnetization 
 augmentation part       -0.4589719 magnetization 

 Broyden mixing:
  rms(total) = 0.18668E-01    rms(broyden)= 0.18668E-01
  rms(prec ) = 0.45628E-01
  weight for this iteration     100.00

 eigenvalues of (default mixing * dielectric matrix)
  average eigenvalue GAMMA=   2.5386
  2.5386

 Free energy of the ion-electron system (eV)
  ---------------------------------------------------
  alpha Z        PSCENC =         3.26474648
  Ewald energy   TEWEN  =      -226.28985265
  -Hartree energ DENC   =       -15.08676563
  -exchange      EXHF   =         0.00000000
  -V(xc)+E(xc)   XCENC  =       -18.09649205
  PAW double counting   =       845.51765561     -810.54513547
  entropy T*S    EENTRO =        -0.00000000
  eigenvalues    EBANDS =         4.26625957
  atomic energy  EATOM  =       206.13125414
  Solvation  Ediel_sol  =         0.00000000
  ---------------------------------------------------
  free energy    TOTEN  =       -10.83833000 eV

  energy without entropy =      -10.83833000  energy(sigma->0) =      -10.83833000


--------------------------------------------------------------------------------------------------------




--------------------------------------- Iteration      2(   3)  ---------------------------------------


    POTLOK:  cpu time    0.0320: real time    0.0407
    SETDIJ:  cpu time    0.1760: real time    0.1753
     EDDAV:  cpu time    0.2350: real time    0.2348
       DOS:  cpu time    0.0000: real time    0.0009
    CHARGE:  cpu time    0.0340: real time    0.0347
    MIXING:  cpu time    0.0020: real time    0.0020
    --------------------------------------------
      LOOP:  cpu time    0.4799: real time    0.4884

 eigenvalue-minimisations  :   408
 total energy-change (2. order) : 0.9639437E-03  (-0.1989333E-03)
 number of electron       8.0000000 magnetization 
 augmentation part       -0.4576467 magnetization 

 Broyden mixing:
  rms(total) = 0.62619E-02    rms(broyden)= 0.62619E-02
  rms(prec ) = 0.69589E-02
  weight for this iteration     100.00

 eigenvalues of (default mixing * dielectric matrix)
  average eigenvalue GAMMA=   1.3685
  2.2786  0.4584

 Free energy of the ion-electron system (eV)
  ---------------------------------------------------
  alpha Z        PSCENC =         3.26474648
  Ewald energy   TEWEN  =      -226.28985265
  -Hartree energ DENC   =       -15.30586065
  -exchange      EXHF   =         0.00000000
  -V(xc)+E(xc)   XCENC  =       -18.09190787
  PAW double counting   =       814.18455213     -779.20224239
  entropy T*S    EENTRO =        -0.00000000
  eigenvalues    EBANDS =         4.47194475
  atomic energy  EATOM  =       206.13125414
  Solvation  Ediel_sol  =         0.00000000
  ---------------------------------------------------
  free energy    TOTEN  =       -10.83736606 eV

  energy without entropy =      -10.83736606  energy(sigma->0) =      -10.83736606


--------------------------------------------------------------------------------------------------------




--------------------------------------- Iteration      2(   4)  ---------------------------------------


    POTLOK:  cpu time    0.0330: real time    0.0489
    SETDIJ:  cpu time    0.1810: real time    0.1813
     EDDAV:  cpu time    0.2000: real time    0.2009
       DOS:  cpu time    0.0010: real time    0.0006
    CHARGE:  cpu time    0.0300: real time    0.0302
    MIXING:  cpu time    0.0020: real time    0.0013
    --------------------------------------------
      LOOP:  cpu time    0.4459: real time    0.4635

 eigenvalue-minimisations  :   376
 total energy-change (2. order) : 0.1859236E-06  (-0.1835201E-05)
 number of electron       8.0000000 magnetization 
 augmentation part       -0.4576531 magnetization 

 Broyden mixing:
  rms(total) = 0.54502E-02    rms(broyden)= 0.54502E-02
  rms(prec ) = 0.59939E-02
  weight for this iteration     100.00

 eigenvalues of (default mixing * dielectric matrix)
  average eigenvalue GAMMA=   1.9181
  2.5952  1.4210  1.7380

 Free energy of the ion-electron system (eV)
  ---------------------------------------------------
  alpha Z        PSCENC =         3.26474648
  Ewald energy   TEWEN  =      -226.28985265
  -Hartree energ DENC   =       -15.30182142
  -exchange      EXHF   =         0.00000000
  -V(xc)+E(xc)   XCENC  =       -18.09252515
  PAW double counting   =       816.72583105     -781.74263997
  entropy T*S    EENTRO =        -0.00000000
  eigenvalues    EBANDS =         4.46764166
  atomic energy  EATOM  =       206.13125414
  Solvation  Ediel_sol  =         0.00000000
  ---------------------------------------------------
  free energy    TOTEN  =       -10.83736587 eV

  energy without entropy =      -10.83736587  energy(sigma->0) =      -10.83736587


--------------------------------------------------------------------------------------------------------




--------------------------------------- Iteration      2(   5)  ---------------------------------------


    POTLOK:  cpu time    0.0310: real time    0.0407
    SETDIJ:  cpu time    0.1740: real time    0.1736
     EDDAV:  cpu time    0.2050: real time    0.2047
       DOS:  cpu time    0.0000: real time    0.0007
    CHARGE:  cpu time    0.0290: real time    0.0293
    MIXING:  cpu time    0.0010: real time    0.0015
    --------------------------------------------
      LOOP:  cpu time    0.4409: real time    0.4501

 eigenvalue-minimisations  :   424
 total energy-change (2. order) : 0.6039471E-05  (-0.5233873E-06)
 number of electron       8.0000000 magnetization 
 augmentation part       -0.4576364 magnetization 

 Broyden mixing:
  rms(total) = 0.95187E-03    rms(broyden)= 0.95186E-03
  rms(prec ) = 0.97916E-03
  weight for this iteration     100.00

 eigenvalues of (default mixing * dielectric matrix)
  average eigenvalue GAMMA=   1.7352
  2.6905  2.2504  1.0000  1.0000

 Free energy of the ion-electron system (eV)
  ---------------------------------------------------
  alpha Z        PSCENC =         3.26474648
  Ewald energy   TEWEN  =      -226.28985265
  -Hartree energ DENC   =       -15.30196148
  -exchange      EXHF   =         0.00000000
  -V(xc)+E(xc)   XCENC  =       -18.09442510
  PAW double counting   =       827.92290690     -792.93567624
  entropy T*S    EENTRO =        -0.00000000
  eigenvalues    EBANDS =         4.46564812
  atomic energy  EATOM  =       206.13125414
  Solvation  Ediel_sol  =         0.00000000
  ---------------------------------------------------
  free energy    TOTEN  =       -10.83735983 eV

  energy without entropy =      -10.83735983  energy(sigma->0) =      -10.83735983


--------------------------------------------------------------------------------------------------------




--------------------------------------- Iteration      2(   6)  ---------------------------------------


    POTLOK:  cpu time    0.0320: real time    0.0395
    SETDIJ:  cpu time    0.1730: real time    0.1732
     EDDAV:  cpu time    0.1180: real time    0.1187
       DOS:  cpu time    0.0010: real time    0.0007
    --------------------------------------------
      LOOP:  cpu time    0.3230: real time    0.3320

 eigenvalue-minimisations  :   200
 total energy-change (2. order) :-0.1108727E-06  (-0.5534946E-08)
 number of electron       8.0000000 magnetization 
 augmentation part       -0.4576364 magnetization 

 Free energy of the ion-electron system (eV)
  ---------------------------------------------------
  alpha Z        PSCENC =         3.26474648
  Ewald energy   TEWEN  =      -226.28985265
  -Hartree energ DENC   =       -15.30165510
  -exchange      EXHF   =         0.00000000
  -V(xc)+E(xc)   XCENC  =       -18.09439765
  PAW double counting   =       827.20628447     -792.21918890
  entropy T*S    EENTRO =        -0.00000000
  eigenvalues    EBANDS =         4.46544926
  atomic energy  EATOM  =       206.13125414
  Solvation  Ediel_sol  =         0.00000000
  ---------------------------------------------------
  free energy    TOTEN  =       -10.83735994 eV

  energy without entropy =      -10.83735994  energy(sigma->0) =      -10.83735994


--------------------------------------------------------------------------------------------------------




 average (electrostatic) potential at core
  the test charge radii are     0.9892
  (the norm of the test charge is              1.0000)
       1 -83.5727       2 -83.5727
 
 
 
 E-fermi :   5.7837     XC(G=0):  -9.2917     alpha+bet :-11.6304

 Fermi energy:         5.7837103464

 k-point     1 :       0.0000    0.0000    0.0000
  band No.  band energies     occupation 
      1      -6.2233      2.00000
      2       5.5347      2.00000
      3       5.5347      2.00000
      4       5.5347      2.00000
      5       8.0869      0.00000
      6       8.0869      0.00000
      7       8.0869      0.00000
      8       8.5693      0.00000

 k-point     2 :       0.1429   -0.0000    0.0000
  band No.  band energies     occupation 
      1      -5.9639      2.00000
      2       3.6176      2.00000
      3       5.1880      2.00000
      4       5.1880      2.00000
      5       7.8842      0.00000
      6       8.5948      0.00000
      7       8.5948      0.00000
      8      10.3116      0.00000

 k-point     3 :       0.2857    0.0000    0.0000
  band No.  band energies     occupation 
      1      -5.2175      2.00000
      2       1.0502      2.00000
      3       4.6831      2.00000
      4       4.6831      2.00000
      5       7.3385      0.00000
      6       9.0548      0.00000
      7       9.0548      0.00000
      8      12.7818      0.00000

 k-point     4 :       0.4286    0.0000    0.0000
  band No.  band energies     occupation 
      1      -4.2101      2.00000
      2      -0.9284      2.00000
      3       4.3991      2.00000
      4       4.3991      2.00000
      5       7.0129      0.00000
      6       8.9254      0.00000
      7       8.9254      0.00000
      8      13.2807      0.00000

 k-point     5 :       0.1429    0.1429    0.0000
  band No.  band energies     occupation 
      1      -5.8761      2.00000
      2       3.8773      2.00000
      3       4.5935      2.00000
      4       4.5935      2.00000
      5       7.4237      0.00000
      6       9.4539      0.00000
      7       9.4539      0.00000
      8       9.7601      0.00000

 k-point     6 :       0.2857    0.1429    0.0000
  band No.  band energies     occupation 
      1      -5.2846      2.00000
      2       1.8094      2.00000
      3       4.0111      2.00000
      4       4.0637      2.00000
      5       7.6089      0.00000
      6       9.3230      0.00000
      7      10.0993      0.00000
      8      10.2301      0.00000

 k-point     7 :       0.4286    0.1429    0.0000
  band No.  band energies     occupation 
      1      -4.3047      2.00000
      2      -0.3176      2.00000
      3       3.3362      2.00000
      4       3.8769      2.00000
      5       7.6612      0.00000
      6       9.2916      0.00000
      7      10.0413      0.00000
      8      11.2664      0.00000

 k-point     8 :      -0.4286    0.1429    0.0000
  band No.  band energies     occupation 
      1      -3.7670      2.00000
      2      -1.1537      2.00000
      3       2.9345      2.00000
      4       4.0671      2.00000
      5       7.7412      0.00000
      6       9.2236      0.00000
      7       9.6598      0.00000
      8      13.5957      0.00000

 k-point     9 :      -0.2857    0.1429    0.0000
  band No.  band energies     occupation 
      1      -4.6621      2.00000
      2       0.3437      2.00000
      3       2.9462      2.00000
      4       4.5662      2.00000
      5       8.1140      0.00000
      6       9.4133      0.00000
      7       9.4333      0.00000
      8      12.0659      0.00000

 k-point    10 :      -0.1429    0.1429    0.0000
  band No.  band energies     occupation 
      1      -5.5387      2.00000
      2       2.4151      2.00000
      3       3.6306      2.00000
      4       5.1434      2.00000
      5       8.4939      0.00000
      6       8.8041      0.00000
      7       9.0468      0.00000
      8      11.0339      0.00000

 k-point    11 :       0.2857    0.2857    0.0000
  band No.  band energies     occupation 
      1      -4.8512      2.00000
      2       1.3840      2.00000
      3       3.4575      2.00000
      4       3.4575      2.00000
      5       6.5011      0.00000
      6       8.1688      0.00000
      7      11.8209      0.00000
      8      11.8209      0.00000

 k-point    12 :       0.4286    0.2857    0.0000
  band No.  band energies     occupation 
      1      -3.9724      2.00000
      2      -0.0832      2.00000
      3       2.5085      2.00000
      4       3.2029      2.00000
      5       6.7845      0.00000
      6       8.2480      0.00000
      7      12.0184      0.00000
      8      12.2282      0.00000

 k-point    13 :      -0.4286    0.2857    0.0000
  band No.  band energies     occupation 
      1      -3.0859      2.00000
      2      -1.2240      2.00000
      3       1.5825      2.00000
      4       3.3662      2.00000
      5       7.0205      0.00000
      6      10.4491      0.00000
      7      11.7456      0.00000
      8      11.7488      0.00000

 k-point    14 :      -0.2857    0.2857    0.0000
  band No.  band energies     occupation 
      1      -3.7161      2.00000
      2      -0.4935      2.00000
      3       1.5135      2.00000
      4       3.9000      2.00000
      5       7.6030      0.00000
      6      10.9206      0.00000
      7      11.2604      0.00000
      8      11.9905      0.00000

 k-point    15 :       0.4286    0.4286    0.0000
  band No.  band energies     occupation 
      1      -3.2063      2.00000
      2      -1.0611      2.00000
      3       2.8402      2.00000
      4       2.8402      2.00000
      5       6.1614      0.00000
      6       6.6791      0.00000
      7      14.4143      0.00000
      8      14.4143      0.00000

 k-point    16 :      -0.4286    0.4286    0.0000
  band No.  band energies     occupation 
      1      -2.2850      2.00000
      2      -1.9960      2.00000
      3       1.9814      2.00000
      4       2.8999      2.00000
      5       6.4615      0.00000
      6       7.6885      0.00000
      7      14.1946      0.00000
      8      14.5819      0.00000

 k-point    17 :       0.4286    0.2857    0.1429
  band No.  band energies     occupation 
      1      -4.5516      2.00000
      2       0.6739      2.00000
      3       2.5128      2.00000
      4       3.7968      2.00000
      5       8.1105      0.00000
      6       9.3346      0.00000
      7       9.6327      0.00000
      8      11.5837      0.00000

 k-point    18 :      -0.4286    0.2857    0.1429
  band No.  band energies     occupation 
      1      -3.5411      2.00000
      2      -0.8143      2.00000
      3       1.9468      2.00000
      4       3.2795      2.00000
      5       8.5898      0.00000
      6       8.9906      0.00000
      7      10.9397      0.00000
      8      12.0358      0.00000

 k-point    19 :      -0.4286    0.4286    0.1429
  band No.  band energies     occupation 
      1      -3.0098      2.00000
      2      -1.1483      2.00000
      3       2.0445      2.00000
      4       2.4467      2.00000
      5       7.7555      0.00000
      6       8.1274      0.00000
      7      11.5933      0.00000
      8      14.0412      0.00000

 k-point    20 :      -0.2857    0.4286    0.1429
  band No.  band energies     occupation 
      1      -2.5901      2.00000
      2      -1.5333      2.00000
      3       1.4294      2.00000
      4       2.5350      2.00000
      5       8.2746      0.00000
      6      10.3623      0.00000
      7      11.0774      0.00000
      8      11.2429      0.00000


--------------------------------------------------------------------------------------------------------


 soft charge-density along one line, spin component           1
         0         1         2         3         4         5         6         7         8         9
 total charge-density along one line
 
 pseudopotential strength for first ion, spin component:           1
 18.447  25.736   0.000   0.000   0.000   0.000   0.000   0.000
 25.736  35.912   0.000   0.000   0.000   0.000   0.000   0.000
  0.000   0.000   4.182  -0.000  -0.000   7.792  -0.000  -0.000
  0.000   0.000  -0.000   4.182  -0.000  -0.000   7.792  -0.000
  0.000   0.000  -0.000  -0.000   4.182  -0.000  -0.000   7.792
  0.000   0.000   7.792  -0.000  -0.000  14.532  -0.000  -0.000
  0.000   0.000  -0.000   7.792  -0.000  -0.000  14.532  -0.000
  0.000   0.000  -0.000  -0.000   7.792  -0.000  -0.000  14.532
 total augmentation occupancy for first ion, spin component:           1
  5.455  -2.021   0.000   0.000   0.000   0.000  -0.000  -0.000
 -2.021   0.863  -0.000  -0.000   0.000   0.000   0.000  -0.000
 -0.000   0.000   2.914  -0.000   0.000  -0.655   0.000  -0.000
  0.000  -0.000  -0.000   2.914  -0.000   0.000  -0.655   0.000
  0.000  -0.000   0.000  -0.000   2.914  -0.000   0.000  -0.655
  0.000   0.000  -0.655   0.000  -0.000   0.155  -0.000   0.000
 -0.000   0.000   0.000  -0.655   0.000  -0.000   0.155  -0.000
  0.000  -0.000  -0.000   0.000  -0.655   0.000  -0.000   0.155


------------------------ aborting loop because EDIFF is reached ----------------------------------------


    CHARGE:  cpu time    0.0290: real time    0.0296
    FORLOC:  cpu time    0.0010: real time    0.0017
    FORNL :  cpu time    0.0990: real time    0.0989
    STRESS:  cpu time    0.4139: real time    0.4149
    FORCOR:  cpu time    0.0310: real time    0.0314
    FORHAR:  cpu time    0.0060: real time    0.0060
    MIXING:  cpu time    0.0010: real time    0.0012
    OFIELD:  cpu time    0.0000: real time    0.0002

  FORCE on cell =-STRESS in cart. coord.  units (eV):
  Direction    XX          YY          ZZ          XY          YZ          ZX
  --------------------------------------------------------------------------------------
  Alpha Z     3.26475     3.26475     3.26475
  Ewald     -75.42996   -75.43004   -75.42995     0.00001     0.00000     0.00000
  Hartree     5.10075     5.10074     5.10075     0.00000     0.00000     0.00000
  E(xc)     -25.20303   -25.20302   -25.20302     0.00000     0.00000     0.00000
  Local     -29.67090   -29.67088   -29.67088    -0.00000     0.00001     0.00001
  n-local    73.63831    76.97810    81.25316    -0.97500    -0.61487    -0.00955
  augment   -11.63305   -11.63305   -11.63306    -0.00000    -0.00001    -0.00001
  Kinetic    52.74581    54.93805    60.54683     0.76140     0.89991    -0.52820
  Fock        0.00000     0.00000     0.00000     0.00000     0.00000     0.00000
  -------------------------------------------------------------------------------------
  Total      -0.20470    -0.20470    -0.20470    -0.00000    -0.00000    -0.00000
  in kB      -7.95170    -7.95170    -7.95170    -0.00000    -0.00000    -0.00000
  external pressure =       -7.95 kB  Pullay stress =        0.00 kB


 VOLUME and BASIS-vectors are now :
 -----------------------------------------------------------------------------
  energy-cutoff  :      350.00
  volume of cell :       41.24
      direct lattice vectors                 reciprocal lattice vectors
     3.358592175  0.000000000  1.939083821     0.297743801 -0.105268288  0.000000000
     1.119530725  3.166512332  1.939083821    -0.000000000  0.315804865  0.000000000
    -0.000000000 -0.000000000  3.878167642    -0.148871900 -0.105268288  0.257853732

  length of vectors
     3.878168055  3.878169086  3.878167642     0.315804977  0.315804865  0.315805007


 FORCES acting on ions
    electron-ion (+dipol)            ewald-force                    non-local-force                 convergence-correction
 -----------------------------------------------------------------------------------------------
   0.528E-05 0.246E-04 0.681E-07   -.892E-05 -.418E-04 0.474E-14   -.694E-16 -.832E-16 -.187E-15   0.879E-07 0.616E-07 0.153E-06
[...]




--------------------------------------- Iteration      3(   4)  ---------------------------------------


    POTLOK:  cpu time    0.0320: real time    0.0423
    SETDIJ:  cpu time    0.1740: real time    0.1736
     EDDAV:  cpu time    0.1920: real time    0.1937
       DOS:  cpu time    0.0010: real time    0.0006
    CHARGE:  cpu time    0.0300: real time    0.0299
    MIXING:  cpu time    0.0010: real time    0.0015
    --------------------------------------------
      LOOP:  cpu time    0.4309: real time    0.4417

 eigenvalue-minimisations  :   392
 total energy-change (2. order) :-0.6508808E-06  (-0.3177324E-06)
 number of electron       8.0000000 magnetization 
 augmentation part       -0.4578177 magnetization 

 Broyden mixing:
  rms(total) = 0.23045E-02    rms(broyden)= 0.23044E-02
  rms(prec ) = 0.25290E-02
  weight for this iteration     100.00

 eigenvalues of (default mixing * dielectric matrix)
  average eigenvalue GAMMA=   1.9426
  2.6234  1.4846  1.7199

 Free energy of the ion-electron system (eV)
  ---------------------------------------------------
  alpha Z        PSCENC =         3.29477874
  Ewald energy   TEWEN  =      -226.98161266
  -Hartree energ DENC   =       -15.19254623
  -exchange      EXHF   =         0.00000000
  -V(xc)+E(xc)   XCENC  =       -18.05353726
  PAW double counting   =       846.41885186     -811.43804743
  entropy T*S    EENTRO =        -0.00000000
  eigenvalues    EBANDS =         4.98255632
  atomic energy  EATOM  =       206.13125414
  Solvation  Ediel_sol  =         0.00000000
  ---------------------------------------------------
  free energy    TOTEN  =       -10.83830252 eV

  energy without entropy =      -10.83830252  energy(sigma->0) =      -10.83830252


--------------------------------------------------------------------------------------------------------




--------------------------------------- Iteration      3(   5)  ---------------------------------------


    POTLOK:  cpu time    0.0330: real time    0.0383
    SETDIJ:  cpu time    0.1720: real time    0.1731
     EDDAV:  cpu time    0.1810: real time    0.1811
       DOS:  cpu time    0.0010: real time    0.0006
    CHARGE:  cpu time    0.0290: real time    0.0299
    MIXING:  cpu time    0.0010: real time    0.0016
    --------------------------------------------
      LOOP:  cpu time    0.4169: real time    0.4246

 eigenvalue-minimisations  :   360
 total energy-change (2. order) :-0.1740578E-05  (-0.8635577E-07)
 number of electron       8.0000000 magnetization 
 augmentation part       -0.4578245 magnetization 

 Broyden mixing:
  rms(total) = 0.49525E-03    rms(broyden)= 0.49524E-03
  rms(prec ) = 0.50667E-03
  weight for this iteration     100.00

 eigenvalues of (default mixing * dielectric matrix)
  average eigenvalue GAMMA=   1.7354
  2.6825  2.2463  1.0063  1.0063

 Free energy of the ion-electron system (eV)
  ---------------------------------------------------
  alpha Z        PSCENC =         3.29477874
  Ewald energy   TEWEN  =      -226.98161266
  -Hartree energ DENC   =       -15.19259267
  -exchange      EXHF   =         0.00000000
  -V(xc)+E(xc)   XCENC  =       -18.05271374
  PAW double counting   =       841.45233956     -806.47321663
  entropy T*S    EENTRO =        -0.00000000
  eigenvalues    EBANDS =         4.98345901
  atomic energy  EATOM  =       206.13125414
  Solvation  Ediel_sol  =         0.00000000
  ---------------------------------------------------
  free energy    TOTEN  =       -10.83830426 eV

  energy without entropy =      -10.83830426  energy(sigma->0) =      -10.83830426


--------------------------------------------------------------------------------------------------------




--------------------------------------- Iteration      3(   6)  ---------------------------------------


    POTLOK:  cpu time    0.0330: real time    0.0438
    SETDIJ:  cpu time    0.1730: real time    0.1735
     EDDAV:  cpu time    0.1100: real time    0.1103
       DOS:  cpu time    0.0010: real time    0.0007
    --------------------------------------------
      LOOP:  cpu time    0.3160: real time    0.3280

 eigenvalue-minimisations  :   176
 total energy-change (2. order) : 0.3102423E-07  (-0.1129286E-08)
 number of electron       8.0000000 magnetization 
 augmentation part       -0.4578245 magnetization 

 Free energy of the ion-electron system (eV)
  ---------------------------------------------------
  alpha Z        PSCENC =         3.29477874
  Ewald energy   TEWEN  =      -226.98161266
  -Hartree energ DENC   =       -15.19273057
  -exchange      EXHF   =         0.00000000
  -V(xc)+E(xc)   XCENC  =       -18.05272818
  PAW double counting   =       841.85450234     -806.87531483
  entropy T*S    EENTRO =        -0.00000000
  eigenvalues    EBANDS =         4.98354679
  atomic energy  EATOM  =       206.13125414
  Solvation  Ediel_sol  =         0.00000000
  ---------------------------------------------------
  free energy    TOTEN  =       -10.83830423 eV

  energy without entropy =      -10.83830423  energy(sigma->0) =      -10.83830423


--------------------------------------------------------------------------------------------------------




 average (electrostatic) potential at core
  the test charge radii are     0.9892
  (the norm of the test charge is              1.0000)
       1 -83.4713       2 -83.4713
 
 
 
 E-fermi :   5.8915     XC(G=0):  -9.3271     alpha+bet :-11.7374

 Fermi energy:         5.8915036118

 k-point     1 :       0.0000    0.0000    0.0000
  band No.  band energies     occupation 
      1      -6.1942      2.00000
      2       5.6254      2.00000
      3       5.6254      2.00000
      4       5.6254      2.00000
      5       8.1815      0.00000
      6       8.1815      0.00000
      7       8.1815      0.00000
      8       8.7639      0.00000

 k-point     2 :       0.1429   -0.0000    0.0000
  band No.  band energies     occupation 
      1      -5.9327      2.00000
      2       3.7045      2.00000
      3       5.2755      2.00000
      4       5.2755      2.00000
      5       8.0048      0.00000
      6       8.6937      0.00000
      7       8.6937      0.00000
      8      10.4793      0.00000

 k-point     3 :       0.2857    0.0000    0.0000
  band No.  band energies     occupation 
      1      -5.1800      2.00000
      2       1.1206      2.00000
      3       4.7673      2.00000
      4       4.7673      2.00000
      5       7.4613      0.00000
      6       9.1509      0.00000
      7       9.1509      0.00000
      8      12.9410      0.00000

 k-point     4 :       0.4286    0.0000    0.0000
  band No.  band energies     occupation 
      1      -4.1620      2.00000
      2      -0.8750      2.00000
      3       4.4819      2.00000
      4       4.4819      2.00000
      5       7.1358      0.00000
      6       9.0136      0.00000
      7       9.0136      0.00000
      8      13.3861      0.00000

 k-point     5 :       0.1429    0.1429    0.0000
  band No.  band energies     occupation 
      1      -5.8442      2.00000
      2       3.9772      2.00000
      3       4.6745      2.00000
      4       4.6745      2.00000
      5       7.5126      0.00000
      6       9.5612      0.00000
      7       9.5612      0.00000
      8       9.9183      0.00000

 k-point     6 :       0.2857    0.1429    0.0000
  band No.  band energies     occupation 
      1      -5.2479      2.00000
      2       1.8911      2.00000
      3       4.0924      2.00000
      4       4.1408      2.00000
      5       7.7009      0.00000
      6       9.4540      0.00000
      7      10.1884      0.00000
      8      10.3396      0.00000

 k-point     7 :       0.4286    0.1429    0.0000
  band No.  band energies     occupation 
      1      -4.2587      2.00000
      2      -0.2547      2.00000
      3       3.4133      2.00000
      4       3.9534      2.00000
      5       7.7581      0.00000
      6       9.4048      0.00000
      7      10.1408      0.00000
      8      11.3746      0.00000

 k-point     8 :      -0.4286    0.1429    0.0000
  band No.  band energies     occupation 
      1      -3.7141      2.00000
      2      -1.1000      2.00000
      3       3.0075      2.00000
      4       4.1461      2.00000
      5       7.8450      0.00000
      6       9.3285      0.00000
      7       9.7543      0.00000
      8      13.7237      0.00000

 k-point     9 :      -0.2857    0.1429    0.0000
  band No.  band energies     occupation 
      1      -4.6197      2.00000
      2       0.4128      2.00000
      3       3.0166      2.00000
      4       4.6500      2.00000
      5       8.2284      0.00000
      6       9.5114      0.00000
      7       9.5348      0.00000
      8      12.1976      0.00000

 k-point    10 :      -0.1429    0.1429    0.0000
  band No.  band energies     occupation 
      1      -5.5040      2.00000
      2       2.5014      2.00000
      3       3.7022      2.00000
      4       5.2322      2.00000
      5       8.6179      0.00000
      6       8.9034      0.00000
      7       9.1516      0.00000
      8      11.1688      0.00000

 k-point    11 :       0.2857    0.2857    0.0000
  band No.  band energies     occupation 
      1      -4.8111      2.00000
      2       1.4731      2.00000
      3       3.5295      2.00000
      4       3.5295      2.00000
      5       6.5814      0.00000
      6       8.2533      0.00000
      7      11.9457      0.00000
      8      11.9457      0.00000

 k-point    12 :       0.4286    0.2857    0.0000
  band No.  band energies     occupation 
      1      -3.9247      2.00000
      2      -0.0058      2.00000
      3       2.5710      2.00000
      4       3.2733      2.00000
      5       6.8645      0.00000
      6       8.3355      0.00000
      7      12.1537      0.00000
      8      12.3476      0.00000

 k-point    13 :      -0.4286    0.2857    0.0000
  band No.  band energies     occupation 
      1      -3.0280      2.00000
      2      -1.1593      2.00000
      3       1.6361      2.00000
      4       3.4384      2.00000
      5       7.1018      0.00000
      6      10.5497      0.00000
      7      11.8584      0.00000
      8      11.8874      0.00000

 k-point    14 :      -0.2857    0.2857    0.0000
  band No.  band energies     occupation 
      1      -3.6648      2.00000
      2      -0.4220      2.00000
      3       1.5654      2.00000
      4       3.9772      2.00000
      5       7.6929      0.00000
      6      11.0348      0.00000
      7      11.3726      0.00000
      8      12.1352      0.00000

 k-point    15 :       0.4286    0.4286    0.0000
  band No.  band energies     occupation 
      1      -3.1528      2.00000
      2      -0.9900      2.00000
      3       2.9076      2.00000
      4       2.9076      2.00000
      5       6.2359      0.00000
      6       6.7531      0.00000
      7      14.5595      0.00000
      8      14.5595      0.00000

 k-point    16 :      -0.4286    0.4286    0.0000
  band No.  band energies     occupation 
      1      -2.2220      2.00000
      2      -1.9330      2.00000
      3       2.0373      2.00000
      4       2.9679      2.00000
      5       6.5365      0.00000
      6       7.7743      0.00000
      7      14.3392      0.00000
      8      14.7474      0.00000

 k-point    17 :       0.4286    0.2857    0.1429
  band No.  band energies     occupation 
      1      -4.5086      2.00000
      2       0.7543      2.00000
      3       2.5748      2.00000
      4       3.8722      2.00000
      5       8.2043      0.00000
      6       9.4411      0.00000
      7       9.7347      0.00000
      8      11.7052      0.00000

 k-point    18 :      -0.4286    0.2857    0.1429
  band No.  band energies     occupation 
      1      -3.4878      2.00000
      2      -0.7484      2.00000
      3       2.0070      2.00000
      4       3.3485      2.00000
      5       8.6861      0.00000
      6       9.0906      0.00000
      7      11.0526      0.00000
      8      12.1571      0.00000

 k-point    19 :      -0.4286    0.4286    0.1429
  band No.  band energies     occupation 
      1      -2.9535      2.00000
      2      -1.0768      2.00000
      3       2.1016      2.00000
      4       2.5067      2.00000
      5       7.8439      0.00000
      6       8.2144      0.00000
      7      11.7155      0.00000
      8      14.1882      0.00000

 k-point    20 :      -0.2857    0.4286    0.1429
  band No.  band energies     occupation 
      1      -2.5280      2.00000
      2      -1.4658      2.00000
      3       1.4786      2.00000
      4       2.5961      2.00000
      5       8.3654      0.00000
      6      10.4574      0.00000
      7      11.2033      0.00000
      8      11.3603      0.00000


--------------------------------------------------------------------------------------------------------


 soft charge-density along one line, spin component           1
         0         1         2         3         4         5         6         7         8         9
 total charge-density along one line
 
 pseudopotential strength for first ion, spin component:           1
 18.436  25.722   0.000  -0.000   0.000   0.000  -0.000   0.000
 25.722  35.891   0.000  -0.000   0.000   0.000  -0.000   0.000
  0.000   0.000   4.181  -0.000  -0.000   7.790  -0.000  -0.000
 -0.000  -0.000  -0.000   4.181  -0.000  -0.000   7.790  -0.000
  0.000   0.000  -0.000  -0.000   4.181  -0.000  -0.000   7.790
  0.000   0.000   7.790  -0.000  -0.000  14.528  -0.000  -0.000
 -0.000  -0.000  -0.000   7.790  -0.000  -0.000  14.528  -0.000
  0.000   0.000  -0.000  -0.000   7.790  -0.000  -0.000  14.528
 total augmentation occupancy for first ion, spin component:           1
  5.531  -2.064  -0.000   0.000  -0.000   0.000  -0.000  -0.000
 -2.064   0.884  -0.000  -0.000   0.000  -0.000   0.000  -0.000
 -0.000  -0.000   2.945   0.000   0.000  -0.664   0.000  -0.000
  0.000   0.000   0.000   2.945   0.000  -0.000  -0.664  -0.000
  0.000   0.000   0.000  -0.000   2.945  -0.000   0.000  -0.664
 -0.000  -0.000  -0.664  -0.000  -0.000   0.158  -0.000   0.000
 -0.000   0.000  -0.000  -0.664  -0.000   0.000   0.158   0.000
  0.000  -0.000  -0.000  -0.000  -0.664   0.000   0.000   0.158


------------------------ aborting loop because EDIFF is reached ----------------------------------------


    CHARGE:  cpu time    0.0300: real time    0.0298
    FORLOC:  cpu time    0.0020: real time    0.0017
    FORNL :  cpu time    0.0990: real time    0.1001
    STRESS:  cpu time    0.4129: real time    0.4136
    FORCOR:  cpu time    0.0310: real time    0.0310
    FORHAR:  cpu time    0.0050: real time    0.0060
    MIXING:  cpu time    0.0010: real time    0.0012
    OFIELD:  cpu time    0.0000: real time    0.0002

  FORCE on cell =-STRESS in cart. coord.  units (eV):
  Direction    XX          YY          ZZ          XY          YZ          ZX
  --------------------------------------------------------------------------------------
  Alpha Z     3.29478     3.29478     3.29478
  Ewald     -75.66055   -75.66062   -75.66054     0.00001     0.00000     0.00000
  Hartree     5.06416     5.06416     5.06416     0.00000     0.00000     0.00000
  E(xc)     -25.25538   -25.25538   -25.25538    -0.00000    -0.00000    -0.00000
  Local     -29.54100   -29.54099   -29.54098    -0.00000     0.00001     0.00001
  n-local    73.77534    77.13907    81.43710    -0.96658    -0.61716    -0.01154
  augment   -11.63466   -11.63466   -11.63467    -0.00000    -0.00001    -0.00001
  Kinetic    52.99573    55.13560    60.72053     0.80622     0.92720    -0.53815
  Fock        0.00000     0.00000     0.00000     0.00000     0.00000     0.00000
  -------------------------------------------------------------------------------------
  Total       0.00179     0.00179     0.00179     0.00000     0.00000     0.00000
  in kB       0.07016     0.07016     0.07016     0.00000     0.00000     0.00000
  external pressure =        0.07 kB  Pullay stress =        0.00 kB


 VOLUME and BASIS-vectors are now :
 -----------------------------------------------------------------------------
  energy-cutoff  :      350.00
  volume of cell :       40.87
      direct lattice vectors                 reciprocal lattice vectors
     3.348356370  0.000000000  1.933174179     0.298653993 -0.105590090  0.000000000
     1.116118790  3.156861912  1.933174179    -0.000000000  0.316770270  0.000000000
    -0.000000000 -0.000000000  3.866348359    -0.149326996 -0.105590090  0.258641981

  length of vectors
     3.866348767  3.866349789  3.866348359     0.316770382  0.316770270  0.316770411


 FORCES acting on ions
    electron-ion (+dipol)            ewald-force                    non-local-force                 convergence-correction
 -----------------------------------------------------------------------------------------------
   0.526E-05 0.245E-04 0.597E-07   -.892E-05 -.418E-04 -.132E-14   0.833E-16 0.764E-16 -.347E-16   -.413E-07 -.290E-07 -.717E-07
   -.526E-05 -.245E-04 -.597E-07   0.892E-05 0.418E-04 0.148E-14   -.833E-16 -.347E-16 0.208E-15   0.413E-07 0.290E-07 0.717E-07
 -----------------------------------------------------------------------------------------------
   0.687E-13 -.500E-13 0.127E-12   0.466E-15 -.988E-16 0.164E-15   -.185E-26 0.416E-16 0.173E-15   0.204E-14 -.222E-15 0.634E-15
 
 
 POSITION                                       TOTAL-FORCE (eV/Angst)
 -----------------------------------------------------------------------------------
      3.90642      2.76225      6.76611        -0.000000     -0.000000      0.000000
      0.55806      0.39461      0.96659         0.000000      0.000000     -0.000000
 -----------------------------------------------------------------------------------
    total drift:                                0.000000     -0.000000      0.000000


--------------------------------------------------------------------------------------------------------



  FREE ENERGIE OF THE ION-ELECTRON SYSTEM (eV)
  ---------------------------------------------------
  free  energy   TOTEN  =       -10.83830423 eV

  energy  without entropy=      -10.83830423  energy(sigma->0) =      -10.83830423
 
 d Force = 0.0000000E+00[ 0.000E+00, 0.000E+00]  d Energy = 0.9442840E-03-0.944E-03
 d Force = 0.0000000E+00[ 0.000E+00, 0.000E+00]  d Ewald  = 0.6917600E+00-0.692E+00


--------------------------------------------------------------------------------------------------------


    POTLOK:  cpu time    0.2050: real time    0.2111


--------------------------------------------------------------------------------------------------------




--------------------------------------------------------------------------------------------------------


  
 reached required accuracy - stopping structural energy minimisation
     LOOP+:  cpu time    3.4295: real time    3.5447
    4ORBIT:  cpu time    0.0000: real time    0.0000

 total amount of memory used by VASP MPI-rank0    37312. kBytes
=======================================================================

   base      :      30000. kBytes
   nonl-proj :        802. kBytes
   fftplans  :       4177. kBytes
   grid      :       1926. kBytes
   one-center:          6. kBytes
   wavefun   :        401. kBytes
 
  
  
 General timing and accounting informations for this job:
 ========================================================
  
                  Total CPU time used (sec):       12.850
                            User time (sec):       12.549
                          System time (sec):        0.301
                         Elapsed time (sec):       13.763
  
                   Maximum memory used (kb):       58360.
                   Average memory used (kb):          N/A
  
                          Minor page faults:        13633
                          Major page faults:            1
                 Voluntary context switches:        10071
