unknown system                          
   1.00000000000000     
     2.801765   -0.000000    0.000000
     0.000000    2.801765    0.000000
    -0.000000    0.000000    2.801765
   Fe
     2
Direct
  0.000000  0.000000  0.000000
  0.500000  0.500000  0.500000
 
   48   48   48
  199.04      196.22      188.01      175.04      158.29      138.98      118.40      97.792      78.254      60.645    
  45.547      33.264      23.828      17.047      12.549      9.8325      8.3375      7.4823      6.8430      6.3481    
  5.9903      5.7459      5.5912      5.5067      5.4799      5.5067      5.5912      5.7459      5.9903      6.3481    
  6.8430      7.4823      8.3375      9.8325      12.549      17.047      23.828      33.264      45.547      60.645    
  78.254      97.792      118.40      138.98      158.29      175.04      188.01      196.22      196.22      193.46    
  185.37      172.61      156.12      137.10      116.82      96.508      77.239      59.867      44.973      32.855    
  23.553      16.874      12.450      9.7842      8.3176      7.4723      6.8358      6.3440      5.9883      5.7455    
  5.5916      5.5076      5.4808      5.5076      5.5916      5.7455      5.9883      6.3440      6.8358      7.4723    
  8.3176      9.7842      12.450      16.874      23.553      32.855      44.973      59.867      77.239      96.508    
  116.82      137.10      156.12      172.61      185.37      193.46      188.01      185.37      177.67      165.50    
  149.77      131.60      112.20      92.738      74.258      57.583      43.283      31.656      22.746      16.368    
  12.165      9.6445      8.2599      7.4420      6.8143      6.3317      5.9822      5.7442      5.5926      5.5101    
  5.4835      5.5101      5.5926      5.7442      5.9822      6.3317      6.8143      7.4420      8.2599      9.6445    
  12.165      16.368      22.746      31.656      43.283      57.583      74.258      92.738      112.20      131.60    
  149.77      165.50      177.67      185.37      175.04      172.61      165.50      154.26      139.71      122.86    
  104.84      86.729      69.499      53.933      40.584      29.744      21.464      15.572      11.719      9.4297    
  8.1699      7.3911      6.7783      6.3112      5.9721      5.7418      5.5941      5.5141      5.4878      5.5141    
  5.5941      5.7418      5.9721      6.3112      6.7783      7.3911      8.1699      9.4297      11.719      15.572    
  21.464      29.744      40.584      53.933      69.499      86.729      104.84      122.86      139.71      154.26    
  165.50      172.61      158.29      156.12      149.77      139.71      126.65      111.50      95.249      78.873    
  63.264      49.149      37.049      27.250      19.805      14.551      11.158      9.1638      8.0542      7.3187    
  6.7284      6.2824      5.9582      5.7380      5.5960      5.5190      5.4934      5.5190      5.5960      5.7380    
  5.9582      6.2824      6.7284      7.3187      8.0542      9.1638      11.158      14.551      19.805      27.250    
  37.049      49.149      63.264      78.873      95.249      111.50      126.65      139.71      149.77      156.12    
  138.98      137.10      131.60      122.86      111.50      98.281      84.053      69.680      55.955      43.540    
  32.916      24.350      17.896      13.397      10.536      8.8744      7.9176      7.2241      6.6658      6.2456    
  5.9408      5.7327      5.5981      5.5243      5.5001      5.5243      5.5981      5.7327      5.9408      6.2456    
  6.6658      7.2241      7.9176      8.8744      10.536      13.397      17.896      24.350      32.916      43.540    
  55.955      69.680      84.053      98.281      111.50      122.86      131.60      137.10      118.40      116.82    
  112.20      104.84      95.249      84.053      71.969      59.735      48.042      37.476      28.468      21.260    
  15.890      12.212      9.9134      8.5853      7.7601      7.1089      6.5920      6.2019      5.9204      5.7256    
  5.6001      5.5296      5.5073      5.5296      5.6001      5.7256      5.9204      6.2019      6.5920      7.1089    
  7.7601      8.5853      9.9134      12.212      15.890      21.260      28.468      37.476      48.042      59.735    
  71.969      84.053      95.249      104.84      112.20      116.82      97.792      96.508      92.738      86.729    
  78.873      69.680      59.735      49.656      40.028      31.357      24.015      18.206      13.949      11.094    
  9.3416      8.3070      7.5789      6.9782      6.5086      6.1532      5.8969      5.7173      5.6012      5.5347    
  5.5141      5.5347      5.6012      5.7173      5.8969      6.1532      6.5086      6.9782      7.5789      8.3070    
  9.3416      11.094      13.949      18.206      24.015      31.357      40.028      49.656      59.735      69.680    
  78.873      86.729      92.738      96.508      78.254      77.239      74.258      69.499      63.264      55.955    
  48.042      40.028      32.398      25.572      19.855      15.404      12.214      10.123      8.8501      8.0318    
  7.3761      6.8380      6.4181      6.1016      5.8707      5.7082      5.6008      5.5397      5.5198      5.5397    
  5.6008      5.7082      5.8707      6.1016      6.4181      6.8380      7.3761      8.0318      8.8501      10.123    
  12.214      15.404      19.855      25.572      32.398      40.028      48.042      55.955      63.264      69.499    
  74.258      77.239      60.645      59.867      57.583      53.933      49.149      43.540      37.476      31.357    
  25.572      20.454      16.237      13.026      10.784      9.3420      8.4313      7.7451      7.1621      6.6925    
  6.3249      6.0480      5.8430      5.6976      5.5994      5.5435      5.5247      5.5435      5.5994      5.6976    
  5.8430      6.0480      6.3249      6.6925      7.1621      7.7451      8.4313      9.3420      10.784      13.026    
  16.237      20.454      25.572      31.357      37.476      43.540      49.149      53.933      57.583      59.867    
  45.547      44.973      43.283      40.584      37.049      32.916      28.468      24.015      19.855      16.237    
  13.323      11.166      9.6947      8.7387      8.0445      7.4478      6.9486      6.5461      6.2328      5.9933    
  5.8150      5.6852      5.5972      5.5454      5.5288      5.5454      5.5972      5.6852      5.8150      5.9933    
  6.2328      6.5461      6.9486      7.4478      8.0445      8.7387      9.6947      11.166      13.323      16.237    
  19.855      24.015      28.468      32.916      37.049      40.584      43.283      44.973      33.264      32.855    
  31.656      29.744      27.250      24.350      21.260      18.206      15.404      13.026      11.166      9.8238    
  8.9088      8.2405      7.6612      7.1583      6.7410      6.4059      6.1429      5.9399      5.7856      5.6719    
  5.5930      5.5465      5.5310      5.5465      5.5930      5.6719      5.7856      5.9399      6.1429      6.4059    
  6.7410      7.1583      7.6612      8.2405      8.9088      9.8238      11.166      13.026      15.404      18.206    
  21.260      24.350      27.250      29.744      31.656      32.855      23.828      23.553      22.746      21.464    
  19.805      17.896      15.890      13.949      12.214      10.784      9.6947      8.9088      8.3090      7.7753    
  7.2961      6.8865      6.5474      6.2742      6.0575      5.8876      5.7561      5.6571      5.5873      5.5457    
  5.5317      5.5457      5.5873      5.6571      5.7561      5.8876      6.0575      6.2742      6.5474      6.8865    
  7.2961      7.7753      8.3090      8.9088      9.6947      10.784      12.214      13.949      15.890      17.896    
  19.805      21.464      22.746      23.553      17.047      16.874      16.368      15.572      14.551      13.397    
  12.212      11.094      10.123      9.3420      8.7387      8.2405      7.7753      7.3442      6.9643      6.6402    
  6.3718      6.1533      5.9777      5.8370      5.7259      5.6407      5.5799      5.5432      5.5310      5.5432    
  5.5799      5.6407      5.7259      5.8370      5.9777      6.1533      6.3718      6.6402      6.9643      7.3442    
  7.7753      8.2405      8.7387      9.3420      10.123      11.094      12.212      13.397      14.551      15.572    
  16.368      16.874      12.549      12.450      12.165      11.719      11.158      10.536      9.9134      9.3416    
  8.8501      8.4313      8.0445      7.6612      7.2961      6.9643      6.6725      6.4238      6.2158      6.0442    
  5.9031      5.7881      5.6954      5.6233      5.5711      5.5395      5.5288      5.5395      5.5711      5.6233    
  5.6954      5.7881      5.9031      6.0442      6.2158      6.4238      6.6725      6.9643      7.2961      7.6612    
  8.0445      8.4313      8.8501      9.3416      9.9134      10.536      11.158      11.719      12.165      12.450    
  9.8325      9.7842      9.6445      9.4297      9.1638      8.8744      8.5853      8.3070      8.0318      7.7451    
  7.4478      7.1583      6.8865      6.6402      6.4238      6.2375      6.0795      5.9461      5.8345      5.7414    
  5.6649      5.6044      5.5605      5.5336      5.5247      5.5336      5.5605      5.6044      5.6649      5.7414    
  5.8345      5.9461      6.0795      6.2375      6.4238      6.6402      6.8865      7.1583      7.4478      7.7451    
  8.0318      8.3070      8.5853      8.8744      9.1638      9.4297      9.6445      9.7842      8.3375      8.3176    
  8.2599      8.1699      8.0542      7.9176      7.7601      7.5789      7.3761      7.1621      6.9486      6.7410    
  6.5474      6.3718      6.2158      6.0795      5.9610      5.8591      5.7713      5.6965      5.6342      5.5850    
  5.5490      5.5272      5.5198      5.5272      5.5490      5.5850      5.6342      5.6965      5.7713      5.8591    
  5.9610      6.0795      6.2158      6.3718      6.5474      6.7410      6.9486      7.1621      7.3761      7.5789    
  7.7601      7.9176      8.0542      8.1699      8.2599      8.3176      7.4823      7.4723      7.4420      7.3911    
  7.3187      7.2241      7.1089      6.9782      6.8380      6.6925      6.5461      6.4059      6.2742      6.1533    
  6.0442      5.9461      5.8591      5.7816      5.7133      5.6544      5.6052      5.5660      5.5374      5.5199    
  5.5141      5.5199      5.5374      5.5660      5.6052      5.6544      5.7133      5.7816      5.8591      5.9461    
  6.0442      6.1533      6.2742      6.4059      6.5461      6.6925      6.8380      6.9782      7.1089      7.2241    
  7.3187      7.3911      7.4420      7.4723      6.8430      6.8358      6.8143      6.7783      6.7284      6.6658    
  6.5920      6.5086      6.4181      6.3249      6.2328      6.1429      6.0575      5.9777      5.9031      5.8345    
  5.7713      5.7133      5.6614      5.6162      5.5781      5.5476      5.5253      5.5118      5.5073      5.5118    
  5.5253      5.5476      5.5781      5.6162      5.6614      5.7133      5.7713      5.8345      5.9031      5.9777    
  6.0575      6.1429      6.2328      6.3249      6.4181      6.5086      6.5920      6.6658      6.7284      6.7783    
  6.8143      6.8358      6.3481      6.3440      6.3317      6.3112      6.2824      6.2456      6.2019      6.1532    
  6.1016      6.0480      5.9933      5.9399      5.8876      5.8370      5.7881      5.7414      5.6965      5.6544    
  5.6162      5.5824      5.5536      5.5304      5.5136      5.5035      5.5001      5.5035      5.5136      5.5304    
  5.5536      5.5824      5.6162      5.6544      5.6965      5.7414      5.7881      5.8370      5.8876      5.9399    
  5.9933      6.0480      6.1016      6.1532      6.2019      6.2456      6.2824      6.3112      6.3317      6.3440    
  5.9903      5.9883      5.9822      5.9721      5.9582      5.9408      5.9204      5.8969      5.8707      5.8430    
  5.8150      5.7856      5.7561      5.7259      5.6954      5.6649      5.6342      5.6052      5.5781      5.5536    
  5.5324      5.5154      5.5032      5.4959      5.4934      5.4959      5.5032      5.5154      5.5324      5.5536    
  5.5781      5.6052      5.6342      5.6649      5.6954      5.7259      5.7561      5.7856      5.8150      5.8430    
  5.8707      5.8969      5.9204      5.9408      5.9582      5.9721      5.9822      5.9883      5.7459      5.7455    
  5.7442      5.7418      5.7380      5.7327      5.7256      5.7173      5.7082      5.6976      5.6852      5.6719    
  5.6571      5.6407      5.6233      5.6044      5.5850      5.5660      5.5476      5.5304      5.5154      5.5034    
  5.4947      5.4895      5.4878      5.4895      5.4947      5.5034      5.5154      5.5304      5.5476      5.5660    
  5.5850      5.6044      5.6233      5.6407      5.6571      5.6719      5.6852      5.6976      5.7082      5.7173    
  5.7256      5.7327      5.7380      5.7418      5.7442      5.7455      5.5912      5.5916      5.5926      5.5941    
  5.5960      5.5981      5.6001      5.6012      5.6008      5.5994      5.5972      5.5930      5.5873      5.5799    
  5.5711      5.5605      5.5490      5.5374      5.5253      5.5136      5.5032      5.4947      5.4885      5.4848    
  5.4835      5.4848      5.4885      5.4947      5.5032      5.5136      5.5253      5.5374      5.5490      5.5605    
  5.5711      5.5799      5.5873      5.5930      5.5972      5.5994      5.6008      5.6012      5.6001      5.5981    
  5.5960      5.5941      5.5926      5.5916      5.5067      5.5076      5.5101      5.5141      5.5190      5.5243    
  5.5296      5.5347      5.5397      5.5435      5.5454      5.5465      5.5457      5.5432      5.5395      5.5336    
  5.5272      5.5199      5.5118      5.5035      5.4959      5.4895      5.4848      5.4818      5.4808      5.4818    
  5.4848      5.4895      5.4959      5.5035      5.5118      5.5199      5.5272      5.5336      5.5395      5.5432    
  5.5457      5.5465      5.5454      5.5435      5.5397      5.5347      5.5296      5.5243      5.5190      5.5141    
  5.5101      5.5076      5.4799      5.4808      5.4835      5.4878      5.4934      5.5001      5.5073      5.5141    
  5.5198      5.5247      5.5288      5.5310      5.5317      5.5310      5.5288      5.5247      5.5198      5.5141    
  5.5073      5.5001      5.4934      5.4878      5.4835      5.4808      5.4799      5.4808      5.4835      5.4878    
  5.4934      5.5001      5.5073      5.5141      5.5198      5.5247      5.5288      5.5310      5.5317      5.5310    
  5.5288      5.5247      5.5198      5.5141      5.5073      5.5001      5.4934      5.4878      5.4835      5.4808    
  5.5067      5.5076      5.5101      5.5141      5.5190      5.5243      5.5296      5.5347      5.5397      5.5435    
  5.5454      5.5465      5.5457      5.5432      5.5395      5.5336      5.5272      5.5199      5.5118      5.5035    
  5.4959      5.4895      5.4848      5.4818      5.4808      5.4818      5.4848      5.4895      5.4959      5.5035    
  5.5118      5.5199      5.5272      5.5336      5.5395      5.5432      5.5457      5.5465      5.5454      5.5435    
  5.5397      5.5347      5.5296      5.5243      5.5190      5.5141      5.5101      5.5076      5.5912      5.5916    
  5.5926      5.5941      5.5960      5.5981      5.6001      5.6012      5.6008      5.5994      5.5972      5.5930    
  5.5873      5.5799      5.5711      5.5605      5.5490      5.5374      5.5253      5.5136      5.5032      5.4947    
  5.4885      5.4848      5.4835      5.4848      5.4885      5.4947      5.5032      5.5136      5.5253      5.5374    
  5.5490      5.5605      5.5711      5.5799      5.5873      5.5930      5.5972      5.5994      5.6008      5.6012    
  5.6001      5.5981      5.5960      5.5941      5.5926      5.5916      5.7459      5.7455      5.7442      5.7418    
  5.7380      5.7327      5.7256      5.7173      5.7082      5.6976      5.6852      5.6719      5.6571      5.6407    
  5.6233      5.6044      5.5850      5.5660      5.5476      5.5304      5.5154      5.5034      5.4947      5.4895    
  5.4878      5.4895      5.4947      5.5034      5.5154      5.5304      5.5476      5.5660      5.5850      5.6044    
  5.6233      5.6407      5.6571      5.6719      5.6852      5.6976      5.7082      5.7173      5.7256      5.7327    
  5.7380      5.7418      5.7442      5.7455      5.9903      5.9883      5.9822      5.9721      5.9582      5.9408    
  5.9204      5.8969      5.8707      5.8430      5.8150      5.7856      5.7561      5.7259      5.6954      5.6649    
  5.6342      5.6052      5.5781      5.5536      5.5324      5.5154      5.5032      5.4959      5.4934      5.4959    
  5.5032      5.5154      5.5324      5.5536      5.5781      5.6052      5.6342      5.6649      5.6954      5.7259    
  5.7561      5.7856      5.8150      5.8430      5.8707      5.8969      5.9204      5.9408      5.9582      5.9721    
  5.9822      5.9883      6.3481      6.3440      6.3317      6.3112      6.2824      6.2456      6.2019      6.1532    
  6.1016      6.0480      5.9933      5.9399      5.8876      5.8370      5.7881      5.7414      5.6965      5.6544    
  5.6162      5.5824      5.5536      5.5304      5.5136      5.5035      5.5001      5.5035      5.5136      5.5304    
  5.5536      5.5824      5.6162      5.6544      5.6965      5.7414      5.7881      5.8370      5.8876      5.9399    
  5.9933      6.0480      6.1016      6.1532      6.2019      6.2456      6.2824      6.3112      6.3317      6.3440    
  6.8430      6.8358      6.8143      6.7783      6.7284      6.6658      6.5920      6.5086      6.4181      6.3249    
  6.2328      6.1429      6.0575      5.9777      5.9031      5.8345      5.7713      5.7133      5.6614      5.6162    
  5.5781      5.5476      5.5253      5.5118      5.5073      5.5118      5.5253      5.5476      5.5781      5.6162    
  5.6614      5.7133      5.7713      5.8345      5.9031      5.9777      6.0575      6.1429      6.2328      6.3249    
  6.4181      6.5086      6.5920      6.6658      6.7284      6.7783      6.8143      6.8358      7.4823      7.4723    
  7.4420      7.3911      7.3187      7.2241      7.1089      6.9782      6.8380      6.6925      6.5461      6.4059    
  6.2742      6.1533      6.0442      5.9461      5.8591      5.7816      5.7133      5.6544      5.6052      5.5660    
  5.5374      5.5199      5.5141      5.5199      5.5374      5.5660      5.6052      5.6544      5.7133      5.7816    
  5.8591      5.9461      6.0442      6.1533      6.2742      6.4059      6.5461      6.6925      6.8380      6.9782    
  7.1089      7.2241      7.3187      7.3911      7.4420      7.4723      8.3375      8.3176      8.2599      8.1699    
  8.0542      7.9176      7.7601      7.5789      7.3761      7.1621      6.9486      6.7410      6.5474      6.3718    
  6.2158      6.0795      5.9610      5.8591      5.7713      5.6965      5.6342      5.5850      5.5490      5.5272    
  5.5198      5.5272      5.5490      5.5850      5.6342      5.6965      5.7713      5.8591      5.9610      6.0795    
  6.2158      6.3718      6.5474      6.7410      6.9486      7.1621      7.3761      7.5789      7.7601      7.9176    
  8.0542      8.1699      8.2599      8.3176      9.8325      9.7842      9.6445      9.4297      9.1638      8.8744    
  8.5853      8.3070      8.0318      7.7451      7.4478      7.1583      6.8865      6.6402      6.4238      6.2375    
  6.0795      5.9461      5.8345      5.7414      5.6649      5.6044      5.5605      5.5336      5.5247      5.5336    
  5.5605      5.6044      5.6649      5.7414      5.8345      5.9461      6.0795      6.2375      6.4238      6.6402    
  6.8865      7.1583      7.4478      7.7451      8.0318      8.3070      8.5853      8.8744      9.1638      9.4297    
  9.6445      9.7842      12.549      12.450      12.165      11.719      11.158      10.536      9.9134      9.3416    
  8.8501      8.4313      8.0445      7.6612      7.2961      6.9643      6.6725      6.4238      6.2158      6.0442    
  5.9031      5.7881      5.6954      5.6233      5.5711      5.5395      5.5288      5.5395      5.5711      5.6233    
  5.6954      5.7881      5.9031      6.0442      6.2158      6.4238      6.6725      6.9643      7.2961      7.6612    
  8.0445      8.4313      8.8501      9.3416      9.9134      10.536      11.158      11.719      12.165      12.450    
  17.047      16.874      16.368      15.572      14.551      13.397      12.212      11.094      10.123      9.3420    
  8.7387      8.2405      7.7753      7.3442      6.9643      6.6402      6.3718      6.1533      5.9777      5.8370    
  5.7259      5.6407      5.5799      5.5432      5.5310      5.5432      5.5799      5.6407      5.7259      5.8370    
  5.9777      6.1533      6.3718      6.6402      6.9643      7.3442      7.7753      8.2405      8.7387      9.3420    
  10.123      11.094      12.212      13.397      14.551      15.572      16.368      16.874      23.828      23.553    
  22.746      21.464      19.805      17.896      15.890      13.949      12.214      10.784      9.6947      8.9088    
  8.3090      7.7753      7.2961      6.8865      6.5474      6.2742      6.0575      5.8876      5.7561      5.6571    
  5.5873      5.5457      5.5317      5.5457      5.5873      5.6571      5.7561      5.8876      6.0575      6.2742    
  6.5474      6.8865      7.2961      7.7753      8.3090      8.9088      9.6947      10.784      12.214      13.949    
  15.890      17.896      19.805      21.464      22.746      23.553      33.264      32.855      31.656      29.744    
  27.250      24.350      21.260      18.206      15.404      13.026      11.166      9.8238      8.9088      8.2405    
  7.6612      7.1583      6.7410      6.4059      6.1429      5.9399      5.7856      5.6719      5.5930      5.5465    
  5.5310      5.5465      5.5930      5.6719      5.7856      5.9399      6.1429      6.4059      6.7410      7.1583    
  7.6612      8.2405      8.9088      9.8238      11.166      13.026      15.404      18.206      21.260      24.350    
  27.250      29.744      31.656      32.855      45.547      44.973      43.283      40.584      37.049      32.916    
  28.468      24.015      19.855      16.237      13.323      11.166      9.6947      8.7387      8.0445      7.4478    
  6.9486      6.5461      6.2328      5.9933      5.8150      5.6852      5.5972      5.5454      5.5288      5.5454    
  5.5972      5.6852      5.8150      5.9933      6.2328      6.5461      6.9486      7.4478      8.0445      8.7387    
  9.6947      11.166      13.323      16.237      19.855      24.015      28.468      32.916      37.049      40.584    
  43.283      44.973      60.645      59.867      57.583      53.933      49.149      43.540      37.476      31.357    
  25.572      20.454      16.237      13.026      10.784      9.3420      8.4313      7.7451      7.1621      6.6925    
  6.3249      6.0480      5.8430      5.6976      5.5994      5.5435      5.5247      5.5435      5.5994      5.6976    
  5.8430      6.0480      6.3249      6.6925      7.1621      7.7451      8.4313      9.3420      10.784      13.026    
  16.237      20.454      25.572      31.357      37.476      43.540      49.149      53.933      57.583      59.867    
  78.254      77.239      74.258      69.499      63.264      55.955      48.042      40.028      32.398      25.572    
  19.855      15.404      12.214      10.123      8.8501      8.0318      7.3761      6.8380      6.4181      6.1016    
  5.8707      5.7082      5.6008      5.5397      5.5198      5.5397      5.6008      5.7082      5.8707      6.1016    
  6.4181      6.8380      7.3761      8.0318      8.8501      10.123      12.214      15.404      19.855      25.572    
  32.398      40.028      48.042      55.955      63.264      69.499      74.258      77.239      97.792      96.508    
  92.738      86.729      78.873      69.680      59.735      49.656      40.028      31.357      24.015      18.206    
  13.949      11.094      9.3416      8.3070      7.5789      6.9782      6.5086      6.1532      5.8969      5.7173    
  5.6012      5.5347      5.5141      5.5347      5.6012      5.7173      5.8969      6.1532      6.5086      6.9782    
  7.5789      8.3070      9.3416      11.094      13.949      18.206      24.015      31.357      40.028      49.656    
  59.735      69.680      78.873      86.729      92.738      96.508      118.40      116.82      112.20      104.84    
  95.249      84.053      71.969      59.735      48.042      37.476      28.468      21.260      15.890      12.212    
  9.9134      8.5853      7.7601      7.1089      6.5920      6.2019      5.9204      5.7256      5.6001      5.5296    
  5.5073      5.5296      5.6001      5.7256      5.9204      6.2019      6.5920      7.1089      7.7601      8.5853    
  9.9134      12.212      15.890      21.260      28.468      37.476      48.042      59.735      71.969      84.053    
  95.249      104.84      112.20      116.82      138.98      137.10      131.60      122.86      111.50      98.281    
  84.053      69.680      55.955      43.540      32.916      24.350      17.896      13.397      10.536      8.8744    
  7.9176      7.2241      6.6658      6.2456      5.9408      5.7327      5.5981      5.5243      5.5001      5.5243    
  5.5981      5.7327      5.9408      6.2456      6.6658      7.2241      7.9176      8.8744      10.536      13.397    
  17.896      24.350      32.916      43.540      55.955      69.680      84.053      98.281      111.50      122.86    
  131.60      137.10      158.29      156.12      149.77      139.71      126.65      111.50      95.249      78.873    
  63.264      49.149      37.049      27.250      19.805      14.551      11.158      9.1638      8.0542      7.3187    
  6.7284      6.2824      5.9582      5.7380      5.5960      5.5190      5.4934      5.5190      5.5960      5.7380    
  5.9582      6.2824      6.7284      7.3187      8.0542      9.1638      11.158      14.551      19.805      27.250    
  37.049      49.149      63.264      78.873      95.249      111.50      126.65      139.71      149.77      156.12    
  175.04      172.61      165.50      154.26      139.71      122.86      104.84      86.729      69.499      53.933    
  40.584      29.744      21.464      15.572      11.719      9.4297      8.1699      7.3911      6.7783      6.3112    
  5.9721      5.7418      5.5941      5.5141      5.4878      5.5141      5.5941      5.7418      5.9721      6.3112    
  6.7783      7.3911      8.1699      9.4297      11.719      15.572      21.464      29.744      40.584      53.933    
  69.499      86.729      104.84      122.86      139.71      154.26      165.50      172.61      188.01      185.37    
  177.67      165.50      149.77      131.60      112.20      92.738      74.258      57.583      43.283      31.656    
  22.746      16.368      12.165      9.6445      8.2599      7.4420      6.8143      6.3317      5.9822      5.7442    
  5.5926      5.5101      5.4835      5.5101      5.5926      5.7442      5.9822      6.3317      6.8143      7.4420    
  8.2599      9.6445      12.165      16.368      22.746      31.656      43.283      57.583      74.258      92.738    
  112.20      131.60      149.77      165.50      177.67      185.37      196.22      193.46      185.37      172.61    
  156.12      137.10      116.82      96.508      77.239      59.867      44.973      32.855      23.553      16.874    
  12.450      9.7842      8.3176      7.4723      6.8358      6.3440      5.9883      5.7455      5.5916      5.5076    
  5.4808      5.5076      5.5916      5.7455      5.9883      6.3440      6.8358      7.4723      8.3176      9.7842    
  12.450      16.874      23.553      32.855      44.973      59.867      77.239      96.508      116.82      137.10    
  156.12      172.61      185.37      193.46      196.22      193.46      185.37      172.61      156.12      137.10    
  116.82      96.508      77.239      59.867      44.973      32.855      23.553      16.874      12.450      9.7842    
  8.3176      7.4723      6.8358      6.3440      5.9883      5.7455      5.5916      5.5076      5.4808      5.5076    
  5.5916      5.7455      5.9883      6.3440      6.8358      7.4723      8.3176      9.7842      12.450      16.874    
  23.553      32.855      44.973      59.867      77.239      96.508      116.82      137.10      156.12      172.61    
  185.37      193.46      193.46      190.73      182.78      170.22      153.99      135.25      115.27      95.241    
  76.237      59.100      44.405      32.452      23.281      16.704      12.354      9.7369      8.2981      7.4623    
  6.8288      6.3400      5.9864      5.7452      5.5920      5.5085      5.4818      5.5085      5.5920      5.7452    
  5.9864      6.3400      6.8288      7.4623      8.2981      9.7369      12.354      16.704      23.281      32.452    
  44.405      59.100      76.237      95.241      115.27      135.25      153.99      170.22      182.78      190.73    
  185.37      182.78      175.20      163.22      147.73      129.83      110.71      91.521      73.294      56.844    
  42.736      31.268      22.485      16.206      12.073      9.6004      8.2418      7.4323      6.8075      6.3280    
  5.9806      5.7441      5.5933      5.5114      5.4848      5.5114      5.5933      5.7441      5.9806      6.3280    
  6.8075      7.4323      8.2418      9.6004      12.073      16.206      22.485      31.268      42.736      56.844    
  73.294      91.521      110.71      129.83      147.73      163.22      175.20      182.78      172.61      170.22    