unknown system                          
   1.00000000000000     
     2.830456   -0.000000    0.000000
     0.000000    2.830456    0.000000
    -0.000000    0.000000    2.830456
   Fe
     2
Direct
  0.000000 -0.000000  0.000000
  0.500000  0.500000  0.500000
 
   48   48   48
 0.19207922425E+03 0.18942681158E+03 0.18167646594E+03 0.16942381844E+03 0.15357968605E+03
 0.13526382914E+03 0.11568091303E+03 0.96000796000E+02 0.77255372053E+02 0.60265582128E+02
 0.45600065920E+02 0.33568062008E+02 0.24229772408E+02 0.17430445486E+02 0.12843697658E+02
 0.10019315905E+02 0.84388438796E+01 0.75606197017E+01 0.69349131841E+01 0.64438159614E+01
 0.60877069965E+01 0.58422973402E+01 0.56878986217E+01 0.56027511701E+01 0.55764555091E+01
 0.56027511701E+01 0.56878986217E+01 0.58422973402E+01 0.60877069965E+01 0.64438159614E+01
 0.69349131841E+01 0.75606197017E+01 0.84388438796E+01 0.10019315905E+02 0.12843697658E+02
 0.17430445486E+02 0.24229772408E+02 0.33568062008E+02 0.45600065920E+02 0.60265582128E+02
 0.77255372053E+02 0.96000796000E+02 0.11568091303E+03 0.13526382914E+03 0.15357968605E+03
 0.16942381844E+03 0.18167646594E+03 0.18942681158E+03 0.18942681158E+03 0.18681617887E+03
 0.17918721827E+03 0.16712375711E+03 0.15151956932E+03 0.13347423493E+03 0.11417261415E+03
 0.94766659415E+02 0.76274873730E+02 0.59509831044E+02 0.45037224145E+02 0.33164622157E+02
 0.23954502864E+02 0.17254782273E+02 0.12741638627E+02 0.99676756789E+01 0.84171045283E+01
 0.75508592136E+01 0.69280381848E+01 0.64398075601E+01 0.60857224557E+01 0.58419219756E+01
 0.56883145047E+01 0.56037187708E+01 0.55774630256E+01 0.56037187708E+01 0.56883145047E+01
 0.58419219756E+01 0.60857224557E+01 0.64398075601E+01 0.69280381848E+01 0.75508592136E+01
 0.84171045283E+01 0.99676756789E+01 0.12741638627E+02 0.17254782273E+02 0.23954502864E+02
 0.33164622157E+02 0.45037224145E+02 0.59509831044E+02 0.76274873730E+02 0.94766659415E+02
 0.11417261415E+03 0.13347423493E+03 0.15151956932E+03 0.16712375711E+03 0.17918721827E+03
 0.18681617887E+03 0.18167646594E+03 0.17918721827E+03 0.17191071165E+03 0.16039707639E+03
 0.14549049678E+03 0.12823225200E+03 0.10974933361E+03 0.91143069849E+02 0.73393866069E+02
 0.57289030254E+02 0.43382081823E+02 0.31979423829E+02 0.23147601097E+02 0.16741143001E+02
 0.12445008706E+02 0.98183135948E+01 0.83545057538E+01 0.75215662394E+01 0.69073336344E+01
 0.64277719178E+01 0.60798118113E+01 0.58406961263E+01 0.56894983675E+01 0.56064625629E+01
 0.55803999163E+01 0.56064625629E+01 0.56894983675E+01 0.58406961263E+01 0.60798118113E+01
 0.64277719178E+01 0.69073336344E+01 0.75215662394E+01 0.83545057538E+01 0.98183135948E+01
 0.12445008706E+02 0.16741143001E+02 0.23147601097E+02 0.31979423829E+02 0.43382081823E+02
 0.57289030254E+02 0.73393866069E+02 0.91143069849E+02 0.10974933361E+03 0.12823225200E+03
 0.14549049678E+03 0.16039707639E+03 0.17191071165E+03 0.17918721827E+03 0.16942381844E+03
 0.16712375711E+03 0.16039707639E+03 0.14974193216E+03 0.13592660395E+03 0.11990262119E+03
 0.10270797837E+03 0.85364440931E+02 0.68791927103E+02 0.53737631291E+02 0.40736533929E+02
 0.30088158255E+02 0.21864858769E+02 0.15930347960E+02 0.11981230131E+02 0.95879045393E+01
 0.82576922863E+01 0.74726438755E+01 0.68725177444E+01 0.64077411833E+01 0.60698856637E+01
 0.58385972848E+01 0.56912916979E+01 0.56108738908E+01 0.55850603905E+01 0.56108738908E+01
 0.56912916979E+01 0.58385972848E+01 0.60698856637E+01 0.64077411833E+01 0.68725177444E+01
 0.74726438755E+01 0.82576922863E+01 0.95879045393E+01 0.11981230131E+02 0.15930347960E+02
 0.21864858769E+02 0.30088158255E+02 0.40736533929E+02 0.53737631291E+02 0.68791927103E+02
 0.85364440931E+02 0.10270797837E+03 0.11990262119E+03 0.13592660395E+03 0.14974193216E+03
 0.16039707639E+03 0.16712375711E+03 0.15357968605E+03 0.15151956932E+03 0.14549049678E+03
 0.13592660395E+03 0.12350168371E+03 0.10905570098E+03 0.93514803114E+02 0.77801179303E+02
 0.62757430218E+02 0.49077454080E+02 0.37267200799E+02 0.27616202531E+02 0.20199224178E+02
 0.14888511003E+02 0.11394522517E+02 0.93015580779E+01 0.81356764266E+01 0.74035885649E+01
 0.68237718873E+01 0.63797928991E+01 0.60561292559E+01 0.58353670502E+01 0.56935008006E+01
 0.56164747473E+01 0.55911447897E+01 0.56164747473E+01 0.56935008006E+01 0.58353670502E+01
 0.60561292559E+01 0.63797928991E+01 0.68237718873E+01 0.74035885649E+01 0.81356764266E+01
 0.93015580779E+01 0.11394522517E+02 0.14888511003E+02 0.20199224178E+02 0.27616202531E+02
 0.37267200799E+02 0.49077454080E+02 0.62757430218E+02 0.77801179303E+02 0.93514803114E+02
 0.10905570098E+03 0.12350168371E+03 0.13592660395E+03 0.14549049678E+03 0.15151956932E+03
 0.13526382914E+03 0.13347423493E+03 0.12823225200E+03 0.11990262119E+03 0.10905570098E+03
 0.96409550613E+02 0.82766287205E+02 0.68936071351E+02 0.55671461512E+02 0.43603706411E+02
 0.33201361631E+02 0.24734683271E+02 0.18275992215E+02 0.13704110275E+02 0.10740804940E+02
 0.89894628031E+01 0.79955465910E+01 0.73135906829E+01 0.67621480314E+01 0.63440867132E+01
 0.60389167705E+01 0.58307485241E+01 0.56960240912E+01 0.56227591646E+01 0.55983999713E+01
 0.56227591646E+01 0.56960240912E+01 0.58307485241E+01 0.60389167705E+01 0.63440867132E+01
 0.67621480314E+01 0.73135906829E+01 0.79955465910E+01 0.89894628031E+01 0.10740804940E+02
 0.13704110275E+02 0.18275992215E+02 0.24734683271E+02 0.33201361631E+02 0.43603706411E+02
 0.55671461512E+02 0.68936071351E+02 0.82766287205E+02 0.96409550613E+02 0.10905570098E+03
 0.11990262119E+03 0.12823225200E+03 0.13347423493E+03 0.11568091303E+03 0.11417261415E+03
 0.10974933361E+03 0.10270797837E+03 0.93514803114E+02 0.82766287205E+02 0.71137174671E+02
 0.59323259260E+02 0.47980586270E+02 0.37670467229E+02 0.28811305971E+02 0.21649572793E+02
 0.16244696248E+02 0.12478396426E+02 0.10081238798E+02 0.86792529103E+01 0.78398439387E+01
 0.72027372440E+01 0.66896116847E+01 0.63012331306E+01 0.60189048078E+01 0.58244095678E+01
 0.56986771956E+01 0.56289860051E+01 0.56064396686E+01 0.56289860051E+01 0.56986771956E+01
 0.58244095678E+01 0.60189048078E+01 0.63012331306E+01 0.66896116847E+01 0.72027372440E+01
 0.78398439387E+01 0.86792529103E+01 0.10081238798E+02 0.12478396426E+02 0.16244696248E+02
 0.21649572793E+02 0.28811305971E+02 0.37670467229E+02 0.47980586270E+02 0.59323259260E+02
 0.71137174671E+02 0.82766287205E+02 0.93514803114E+02 0.10270797837E+03 0.10974933361E+03
 0.11417261415E+03 0.96000796000E+02 0.94766659415E+02 0.91143069849E+02 0.85364440931E+02
 0.77801179303E+02 0.68936071351E+02 0.59323259260E+02 0.49546097849E+02 0.40162424269E+02
 0.31657785284E+02 0.24394233909E+02 0.18582689465E+02 0.14262277923E+02 0.11312650656E+02
 0.94708835995E+01 0.83875238111E+01 0.76652398582E+01 0.70749736657E+01 0.66078955842E+01
 0.62529626560E+01 0.59962076841E+01 0.58167120574E+01 0.57008527775E+01 0.56350340184E+01
 0.56144764297E+01 0.56350340184E+01 0.57008527775E+01 0.58167120574E+01 0.59962076841E+01
 0.62529626560E+01 0.66078955842E+01 0.70749736657E+01 0.76652398582E+01 0.83875238111E+01
 0.94708835995E+01 0.11312650656E+02 0.14262277923E+02 0.18582689465E+02 0.24394233909E+02
 0.31657785284E+02 0.40162424269E+02 0.49546097849E+02 0.59323259260E+02 0.68936071351E+02
 0.77801179303E+02 0.85364440931E+02 0.91143069849E+02 0.94766659415E+02 0.77255372053E+02
 0.76274873730E+02 0.73393866069E+02 0.68791927103E+02 0.62757430218E+02 0.55671461512E+02
 0.47980586270E+02 0.40162424269E+02 0.32680822835E+02 0.25939436035E+02 0.20238587934E+02
 0.15745123357E+02 0.12472519342E+02 0.10289869734E+02 0.89465111524E+01 0.81112450781E+01
 0.74696760032E+01 0.69366635631E+01 0.65189472380E+01 0.62016935844E+01 0.59708700254E+01
 0.58081390082E+01 0.57016755407E+01 0.56407860351E+01 0.56214663375E+01 0.56407860351E+01
 0.57016755407E+01 0.58081390082E+01 0.59708700254E+01 0.62016935844E+01 0.65189472380E+01
 0.69366635631E+01 0.74696760032E+01 0.81112450781E+01 0.89465111524E+01 0.10289869734E+02
 0.12472519342E+02 0.15745123357E+02 0.20238587934E+02 0.25939436035E+02 0.32680822835E+02
 0.40162424269E+02 0.47980586270E+02 0.55671461512E+02 0.62757430218E+02 0.68791927103E+02
 0.73393866069E+02 0.76274873730E+02 0.60265582128E+02 0.59509831044E+02 0.57289030254E+02
 0.53737631291E+02 0.49077454080E+02 0.43603706411E+02 0.37670467229E+02 0.31657785284E+02
 0.25939436035E+02 0.20837860909E+02 0.16589938970E+02 0.13308287054E+02 0.10979729539E+02
 0.94597959273E+01 0.85106347428E+01 0.78330400348E+01 0.72599705685E+01 0.67933533627E+01
 0.64262075899E+01 0.61488542977E+01 0.59436186955E+01 0.57985832522E+01 0.57010590683E+01
 0.56457656955E+01 0.56271723769E+01 0.56457656955E+01 0.57010590683E+01 0.57985832522E+01
 0.59436186955E+01 0.61488542977E+01 0.64262075899E+01 0.67933533627E+01 0.72599705685E+01
 0.78330400348E+01 0.85106347428E+01 0.94597959273E+01 0.10979729539E+02 0.13308287054E+02
 0.16589938970E+02 0.20837860909E+02 0.25939436035E+02 0.31657785284E+02 0.37670467229E+02
 0.43603706411E+02 0.49077454080E+02 0.53737631291E+02 0.57289030254E+02 0.59509831044E+02
 0.45600065920E+02 0.45037224145E+02 0.43382081823E+02 0.40736533929E+02 0.37267200799E+02
 0.33201361631E+02 0.28811305971E+02 0.24394233909E+02 0.20238587934E+02 0.16589938970E+02
 0.13613476200E+02 0.11376523532E+02 0.98291369112E+01 0.88231931067E+01 0.81274061607E+01
 0.75439147660E+01 0.70490766909E+01 0.66483706996E+01 0.63344316915E+01 0.60947162770E+01
 0.59160763353E+01 0.57869488891E+01 0.56995323194E+01 0.56485961320E+01 0.56319592697E+01
 0.56485961320E+01 0.56995323194E+01 0.57869488891E+01 0.59160763353E+01 0.60947162770E+01
 0.63344316915E+01 0.66483706996E+01 0.70490766909E+01 0.75439147660E+01 0.81274061607E+01
 0.88231931067E+01 0.98291369112E+01 0.11376523532E+02 0.13613476200E+02 0.16589938970E+02
 0.20238587934E+02 0.24394233909E+02 0.28811305971E+02 0.33201361631E+02 0.37267200799E+02
 0.40736533929E+02 0.43382081823E+02 0.45037224145E+02 0.33568062008E+02 0.33164622157E+02
 0.31979423829E+02 0.30088158255E+02 0.27616202531E+02 0.24734683271E+02 0.21649572793E+02
 0.18582689465E+02 0.15745123357E+02 0.13308287054E+02 0.11376523532E+02 0.99642661005E+01
 0.89979096000E+01 0.83208205704E+01 0.77550344392E+01 0.72582180679E+01 0.68436883999E+01
 0.65083083330E+01 0.62449283142E+01 0.60413653406E+01 0.58874886488E+01 0.57741182367E+01
 0.56961412171E+01 0.56500184058E+01 0.56349035928E+01 0.56500184058E+01 0.56961412171E+01
 0.57741182367E+01 0.58874886488E+01 0.60413653406E+01 0.62449283142E+01 0.65083083330E+01
 0.68436883999E+01 0.72582180679E+01 0.77550344392E+01 0.83208205704E+01 0.89979096000E+01
 0.99642661005E+01 0.11376523532E+02 0.13308287054E+02 0.15745123357E+02 0.18582689465E+02
 0.21649572793E+02 0.24734683271E+02 0.27616202531E+02 0.30088158255E+02 0.31979423829E+02
 0.33164622157E+02 0.24229772408E+02 0.23954502864E+02 0.23147601097E+02 0.21864858769E+02
 0.20199224178E+02 0.18275992215E+02 0.16244696248E+02 0.14262277923E+02 0.12472519342E+02
 0.10979729539E+02 0.98291369112E+01 0.89979096000E+01 0.83885655072E+01 0.78675653369E+01
 0.73955413125E+01 0.69891448231E+01 0.66504296781E+01 0.63768873938E+01 0.61594909971E+01
 0.59895970675E+01 0.58581689873E+01 0.57598188139E+01 0.56905962016E+01 0.56495051129E+01
 0.56356675246E+01 0.56495051129E+01 0.56905962016E+01 0.57598188139E+01 0.58581689873E+01
 0.59895970675E+01 0.61594909971E+01 0.63768873938E+01 0.66504296781E+01 0.69891448231E+01
 0.73955413125E+01 0.78675653369E+01 0.83885655072E+01 0.89979096000E+01 0.98291369112E+01
 0.10979729539E+02 0.12472519342E+02 0.14262277923E+02 0.16244696248E+02 0.18275992215E+02
 0.20199224178E+02 0.21864858769E+02 0.23147601097E+02 0.23954502864E+02 0.17430445486E+02
 0.17254782273E+02 0.16741143001E+02 0.15930347960E+02 0.14888511003E+02 0.13704110275E+02
 0.12478396426E+02 0.11312650656E+02 0.10289869734E+02 0.94597959273E+01 0.88231931067E+01
 0.83208205704E+01 0.78675653369E+01 0.74434218128E+01 0.70668151057E+01 0.67434887416E+01
 0.64748746962E+01 0.62558080044E+01 0.60797419515E+01 0.59389963324E+01 0.58283133475E+01
 0.57436002945E+01 0.56833999751E+01 0.56469904162E+01 0.56349035928E+01 0.56469904162E+01
 0.56833999751E+01 0.57436002945E+01 0.58283133475E+01 0.59389963324E+01 0.60797419515E+01
 0.62558080044E+01 0.64748746962E+01 0.67434887416E+01 0.70668151057E+01 0.74434218128E+01
 0.78675653369E+01 0.83208205704E+01 0.88231931067E+01 0.94597959273E+01 0.10289869734E+02
 0.11312650656E+02 0.12478396426E+02 0.13704110275E+02 0.14888511003E+02 0.15930347960E+02
 0.16741143001E+02 0.17254782273E+02 0.12843697658E+02 0.12741638627E+02 0.12445008706E+02
 0.11981230131E+02 0.11394522517E+02 0.10740804940E+02 0.10081238798E+02 0.94708835995E+01
 0.89465111524E+01 0.85106347428E+01 0.81274061607E+01 0.77550344392E+01 0.73955413125E+01
 0.70668151057E+01 0.67758660755E+01 0.65270343851E+01 0.63185376080E+01 0.61464439553E+01
 0.60052253312E+01 0.58904363147E+01 0.57980329230E+01 0.57261840703E+01 0.56741703155E+01
 0.56426299634E+01 0.56319592697E+01 0.56426299634E+01 0.56741703155E+01 0.57261840703E+01
 0.57980329230E+01 0.58904363147E+01 0.60052253312E+01 0.61464439553E+01 0.63185376080E+01
 0.65270343851E+01 0.67758660755E+01 0.70668151057E+01 0.73955413125E+01 0.77550344392E+01
 0.81274061607E+01 0.85106347428E+01 0.89465111524E+01 0.94708835995E+01 0.10081238798E+02
 0.10740804940E+02 0.11394522517E+02 0.11981230131E+02 0.12445008706E+02 0.12741638627E+02
 0.10019315905E+02 0.99676756789E+01 0.98183135948E+01 0.95879045393E+01 0.93015580779E+01
 0.89894628031E+01 0.86792529103E+01 0.83875238111E+01 0.81112450781E+01 0.78330400348E+01
 0.75439147660E+01 0.72582180679E+01 0.69891448231E+01 0.67434887416E+01 0.65270343851E+01
 0.63402825389E+01 0.61817729403E+01 0.60483147072E+01 0.59367799879E+01 0.58436334442E+01
 0.57672155881E+01 0.57068350569E+01 0.56629702012E+01 0.56361487105E+01 0.56271723769E+01
 0.56361487105E+01 0.56629702012E+01 0.57068350569E+01 0.57672155881E+01 0.58436334442E+01
 0.59367799879E+01 0.60483147072E+01 0.61817729403E+01 0.63402825389E+01 0.65270343851E+01
 0.67434887416E+01 0.69891448231E+01 0.72582180679E+01 0.75439147660E+01 0.78330400348E+01
 0.81112450781E+01 0.83875238111E+01 0.86792529103E+01 0.89894628031E+01 0.93015580779E+01
 0.95879045393E+01 0.98183135948E+01 0.99676756789E+01 0.84388438796E+01 0.84171045283E+01
 0.83545057538E+01 0.82576922863E+01 0.81356764266E+01 0.79955465910E+01 0.78398439387E+01
 0.76652398582E+01 0.74696760032E+01 0.72599705685E+01 0.70490766909E+01 0.68436883999E+01
 0.66504296781E+01 0.64748746962E+01 0.63185376080E+01 0.61817729403E+01 0.60632159924E+01
 0.59612940431E+01 0.58733817857E+01 0.57985881929E+01 0.57364131454E+01 0.56870961090E+01
 0.56509798811E+01 0.56289397296E+01 0.56214663375E+01 0.56289397296E+01 0.56509798811E+01
 0.56870961090E+01 0.57364131454E+01 0.57985881929E+01 0.58733817857E+01 0.59612940431E+01
 0.60632159924E+01 0.61817729403E+01 0.63185376080E+01 0.64748746962E+01 0.66504296781E+01
 0.68436883999E+01 0.70490766909E+01 0.72599705685E+01 0.74696760032E+01 0.76652398582E+01
 0.78398439387E+01 0.79955465910E+01 0.81356764266E+01 0.82576922863E+01 0.83545057538E+01
 0.84171045283E+01 0.75606197017E+01 0.75508592136E+01 0.75215662394E+01 0.74726438755E+01
 0.74035885649E+01 0.73135906829E+01 0.72027372440E+01 0.70749736657E+01 0.69366635631E+01
 0.67933533627E+01 0.66483706996E+01 0.65083083330E+01 0.63768873938E+01 0.62558080044E+01
 0.61464439553E+01 0.60483147072E+01 0.59612940431E+01 0.58836581856E+01 0.58153995858E+01
 0.57564614980E+01 0.57070358773E+01 0.56673681573E+01 0.56382963182E+01 0.56204499287E+01
 0.56144764297E+01 0.56204499287E+01 0.56382963182E+01 0.56673681573E+01 0.57070358773E+01
 0.57564614980E+01 0.58153995858E+01 0.58836581856E+01 0.59612940431E+01 0.60483147072E+01
 0.61464439553E+01 0.62558080044E+01 0.63768873938E+01 0.65083083330E+01 0.66483706996E+01
 0.67933533627E+01 0.69366635631E+01 0.70749736657E+01 0.72027372440E+01 0.73135906829E+01
 0.74035885649E+01 0.74726438755E+01 0.75215662394E+01 0.75508592136E+01 0.69349131841E+01
 0.69280381848E+01 0.69073336344E+01 0.68725177444E+01 0.68237718873E+01 0.67621480314E+01
 0.66896116847E+01 0.66078955842E+01 0.65189472380E+01 0.64262075899E+01 0.63344316915E+01
 0.62449283142E+01 0.61594909971E+01 0.60797419515E+01 0.60052253312E+01 0.59367799879E+01
 0.58733817857E+01 0.58153995858E+01 0.57634678036E+01 0.57179427925E+01 0.56791660279E+01
 0.56479647205E+01 0.56250726850E+01 0.56111399720E+01 0.56064396686E+01 0.56111399720E+01
 0.56250726850E+01 0.56479647205E+01 0.56791660279E+01 0.57179427925E+01 0.57634678036E+01
 0.58153995858E+01 0.58733817857E+01 0.59367799879E+01 0.60052253312E+01 0.60797419515E+01
 0.61594909971E+01 0.62449283142E+01 0.63344316915E+01 0.64262075899E+01 0.65189472380E+01
 0.66078955842E+01 0.66896116847E+01 0.67621480314E+01 0.68237718873E+01 0.68725177444E+01
 0.69073336344E+01 0.69280381848E+01 0.64438159614E+01 0.64398075601E+01 0.64277719178E+01
 0.64077411833E+01 0.63797928991E+01 0.63440867132E+01 0.63012331306E+01 0.62529626560E+01
 0.62016935844E+01 0.61488542977E+01 0.60947162770E+01 0.60413653406E+01 0.59895970675E+01
 0.59389963324E+01 0.58904363147E+01 0.58436334442E+01 0.57985881929E+01 0.57564614980E+01
 0.57179427925E+01 0.56833886772E+01 0.56536908647E+01 0.56298113624E+01 0.56124423752E+01
 0.56019147857E+01 0.55983999713E+01 0.56019147857E+01 0.56124423752E+01 0.56298113624E+01
 0.56536908647E+01 0.56833886772E+01 0.57179427925E+01 0.57564614980E+01 0.57985881929E+01
 0.58436334442E+01 0.58904363147E+01 0.59389963324E+01 0.59895970675E+01 0.60413653406E+01
 0.60947162770E+01 0.61488542977E+01 0.62016935844E+01 0.62529626560E+01 0.63012331306E+01
 0.63440867132E+01 0.63797928991E+01 0.64077411833E+01 0.64277719178E+01 0.64398075601E+01
 0.60877069965E+01 0.60857224557E+01 0.60798118113E+01 0.60698856637E+01 0.60561292559E+01
 0.60389167705E+01 0.60189048078E+01 0.59962076841E+01 0.59708700254E+01 0.59436186955E+01
 0.59160763353E+01 0.58874886488E+01 0.58581689873E+01 0.58283133475E+01 0.57980329230E+01
 0.57672155881E+01 0.57364131454E+01 0.57070358773E+01 0.56791660279E+01 0.56536908647E+01
 0.56316806535E+01 0.56141204266E+01 0.56013746226E+01 0.55937282391E+01 0.55911447897E+01
 0.55937282391E+01 0.56013746226E+01 0.56141204266E+01 0.56316806535E+01 0.56536908647E+01
 0.56791660279E+01 0.57070358773E+01 0.57364131454E+01 0.57672155881E+01 0.57980329230E+01
 0.58283133475E+01 0.58581689873E+01 0.58874886488E+01 0.59160763353E+01 0.59436186955E+01
 0.59708700254E+01 0.59962076841E+01 0.60189048078E+01 0.60389167705E+01 0.60561292559E+01
 0.60698856637E+01 0.60798118113E+01 0.60857224557E+01 0.58422973402E+01 0.58419219756E+01
 0.58406961263E+01 0.58385972848E+01 0.58353670502E+01 0.58307485241E+01 0.58244095678E+01
 0.58167120574E+01 0.58081390082E+01 0.57985832522E+01 0.57869488891E+01 0.57741182367E+01
 0.57598188139E+01 0.57436002945E+01 0.57261840703E+01 0.57068350569E+01 0.56870961090E+01
 0.56673681573E+01 0.56479647205E+01 0.56298113624E+01 0.56141204266E+01 0.56015207593E+01
 0.55924259389E+01 0.55868892111E+01 0.55850603905E+01 0.55868892111E+01 0.55924259389E+01
 0.56015207593E+01 0.56141204266E+01 0.56298113624E+01 0.56479647205E+01 0.56673681573E+01
 0.56870961090E+01 0.57068350569E+01 0.57261840703E+01 0.57436002945E+01 0.57598188139E+01
 0.57741182367E+01 0.57869488891E+01 0.57985832522E+01 0.58081390082E+01 0.58167120574E+01
 0.58244095678E+01 0.58307485241E+01 0.58353670502E+01 0.58385972848E+01 0.58406961263E+01
 0.58419219756E+01 0.56878986217E+01 0.56883145047E+01 0.56894983675E+01 0.56912916979E+01
 0.56935008006E+01 0.56960240912E+01 0.56986771956E+01 0.57008527775E+01 0.57016755407E+01
 0.57010590683E+01 0.56995323194E+01 0.56961412171E+01 0.56905962016E+01 0.56833999751E+01
 0.56741703155E+01 0.56629702012E+01 0.56509798811E+01 0.56382963182E+01 0.56250726850E+01
 0.56124423752E+01 0.56013746226E+01 0.55924259389E+01 0.55858201418E+01 0.55817704737E+01
 0.55803999163E+01 0.55817704737E+01 0.55858201418E+01 0.55924259389E+01 0.56013746226E+01
 0.56124423752E+01 0.56250726850E+01 0.56382963182E+01 0.56509798811E+01 0.56629702012E+01
 0.56741703155E+01 0.56833999751E+01 0.56905962016E+01 0.56961412171E+01 0.56995323194E+01
 0.57010590683E+01 0.57016755407E+01 0.57008527775E+01 0.56986771956E+01 0.56960240912E+01
 0.56935008006E+01 0.56912916979E+01 0.56894983675E+01 0.56883145047E+01 0.56027511701E+01
 0.56037187708E+01 0.56064625629E+01 0.56108738908E+01 0.56164747473E+01 0.56227591646E+01
 0.56289860051E+01 0.56350340184E+01 0.56407860351E+01 0.56457656955E+01 0.56485961320E+01
 0.56500184058E+01 0.56495051129E+01 0.56469904162E+01 0.56426299634E+01 0.56361487105E+01
 0.56289397296E+01 0.56204499287E+01 0.56111399720E+01 0.56019147857E+01 0.55937282391E+01
 0.55868892111E+01 0.55817704737E+01 0.55785333198E+01 0.55774630256E+01 0.55785333198E+01
 0.55817704737E+01 0.55868892111E+01 0.55937282391E+01 0.56019147857E+01 0.56111399720E+01
 0.56204499287E+01 0.56289397296E+01 0.56361487105E+01 0.56426299634E+01 0.56469904162E+01
 0.56495051129E+01 0.56500184058E+01 0.56485961320E+01 0.56457656955E+01 0.56407860351E+01
 0.56350340184E+01 0.56289860051E+01 0.56227591646E+01 0.56164747473E+01 0.56108738908E+01
 0.56064625629E+01 0.56037187708E+01 0.55764555091E+01 0.55774630256E+01 0.55803999163E+01
 0.55850603905E+01 0.55911447897E+01 0.55983999713E+01 0.56064396686E+01 0.56144764297E+01
 0.56214663375E+01 0.56271723769E+01 0.56319592697E+01 0.56349035928E+01 0.56356675246E+01
 0.56349035928E+01 0.56319592697E+01 0.56271723769E+01 0.56214663375E+01 0.56144764297E+01
 0.56064396686E+01 0.55983999713E+01 0.55911447897E+01 0.55850603905E+01 0.55803999163E+01
 0.55774630256E+01 0.55764555091E+01 0.55774630256E+01 0.55803999163E+01 0.55850603905E+01
 0.55911447897E+01 0.55983999713E+01 0.56064396686E+01 0.56144764297E+01 0.56214663375E+01
 0.56271723769E+01 0.56319592697E+01 0.56349035928E+01 0.56356675246E+01 0.56349035928E+01
 0.56319592697E+01 0.56271723769E+01 0.56214663375E+01 0.56144764297E+01 0.56064396686E+01
 0.55983999713E+01 0.55911447897E+01 0.55850603905E+01 0.55803999163E+01 0.55774630256E+01
 0.56027511701E+01 0.56037187708E+01 0.56064625629E+01 0.56108738908E+01 0.56164747473E+01
 0.56227591646E+01 0.56289860051E+01 0.56350340184E+01 0.56407860351E+01 0.56457656955E+01
 0.56485961320E+01 0.56500184058E+01 0.56495051129E+01 0.56469904162E+01 0.56426299634E+01
 0.56361487105E+01 0.56289397296E+01 0.56204499287E+01 0.56111399720E+01 0.56019147857E+01
 0.55937282391E+01 0.55868892111E+01 0.55817704737E+01 0.55785333198E+01 0.55774630256E+01
 0.55785333198E+01 0.55817704737E+01 0.55868892111E+01 0.55937282391E+01 0.56019147857E+01
 0.56111399720E+01 0.56204499287E+01 0.56289397296E+01 0.56361487105E+01 0.56426299634E+01
 0.56469904162E+01 0.56495051129E+01 0.56500184058E+01 0.56485961320E+01 0.56457656955E+01
 0.56407860351E+01 0.56350340184E+01 0.56289860051E+01 0.56227591646E+01 0.56164747473E+01
 0.56108738908E+01 0.56064625629E+01 0.56037187708E+01 0.56878986217E+01 0.56883145047E+01
 0.56894983675E+01 0.56912916979E+01 0.56935008006E+01 0.56960240912E+01 0.56986771956E+01
 0.57008527775E+01 0.57016755407E+01 0.57010590683E+01 0.56995323194E+01 0.56961412171E+01
 0.56905962016E+01 0.56833999751E+01 0.56741703155E+01 0.56629702012E+01 0.56509798811E+01
 0.56382963182E+01 0.56250726850E+01 0.56124423752E+01 0.56013746226E+01 0.55924259389E+01
 0.55858201418E+01 0.55817704737E+01 0.55803999163E+01 0.55817704737E+01 0.55858201418E+01
 0.55924259389E+01 0.56013746226E+01 0.56124423752E+01 0.56250726850E+01 0.56382963182E+01
 0.56509798811E+01 0.56629702012E+01 0.56741703155E+01 0.56833999751E+01 0.56905962016E+01
 0.56961412171E+01 0.56995323194E+01 0.57010590683E+01 0.57016755407E+01 0.57008527775E+01
 0.56986771956E+01 0.56960240912E+01 0.56935008006E+01 0.56912916979E+01 0.56894983675E+01
 0.56883145047E+01 0.58422973402E+01 0.58419219756E+01 0.58406961263E+01 0.58385972848E+01
 0.58353670502E+01 0.58307485241E+01 0.58244095678E+01 0.58167120574E+01 0.58081390082E+01
 0.57985832522E+01 0.57869488891E+01 0.57741182367E+01 0.57598188139E+01 0.57436002945E+01
 0.57261840703E+01 0.57068350569E+01 0.56870961090E+01 0.56673681573E+01 0.56479647205E+01
 0.56298113624E+01 0.56141204266E+01 0.56015207593E+01 0.55924259389E+01 0.55868892111E+01
 0.55850603905E+01 0.55868892111E+01 0.55924259389E+01 0.56015207593E+01 0.56141204266E+01
 0.56298113624E+01 0.56479647205E+01 0.56673681573E+01 0.56870961090E+01 0.57068350569E+01
 0.57261840703E+01 0.57436002945E+01 0.57598188139E+01 0.57741182367E+01 0.57869488891E+01
 0.57985832522E+01 0.58081390082E+01 0.58167120574E+01 0.58244095678E+01 0.58307485241E+01
 0.58353670502E+01 0.58385972848E+01 0.58406961263E+01 0.58419219756E+01 0.60877069965E+01
 0.60857224557E+01 0.60798118113E+01 0.60698856637E+01 0.60561292559E+01 0.60389167705E+01
 0.60189048078E+01 0.59962076841E+01 0.59708700254E+01 0.59436186955E+01 0.59160763353E+01
 0.58874886488E+01 0.58581689873E+01 0.58283133475E+01 0.57980329230E+01 0.57672155881E+01
 0.57364131454E+01 0.57070358773E+01 0.56791660279E+01 0.56536908647E+01 0.56316806535E+01
 0.56141204266E+01 0.56013746226E+01 0.55937282391E+01 0.55911447897E+01 0.55937282391E+01
 0.56013746226E+01 0.56141204266E+01 0.56316806535E+01 0.56536908647E+01 0.56791660279E+01
 0.57070358773E+01 0.57364131454E+01 0.57672155881E+01 0.57980329230E+01 0.58283133475E+01
 0.58581689873E+01 0.58874886488E+01 0.59160763353E+01 0.59436186955E+01 0.59708700254E+01
 0.59962076841E+01 0.60189048078E+01 0.60389167705E+01 0.60561292559E+01 0.60698856637E+01
 0.60798118113E+01 0.60857224557E+01 0.64438159614E+01 0.64398075601E+01 0.64277719178E+01
 0.64077411833E+01 0.63797928991E+01 0.63440867132E+01 0.63012331306E+01 0.62529626560E+01
 0.62016935844E+01 0.61488542977E+01 0.60947162770E+01 0.60413653406E+01 0.59895970675E+01
 0.59389963324E+01 0.58904363147E+01 0.58436334442E+01 0.57985881929E+01 0.57564614980E+01
 0.57179427925E+01 0.56833886772E+01 0.56536908647E+01 0.56298113624E+01 0.56124423752E+01
 0.56019147857E+01 0.55983999713E+01 0.56019147857E+01 0.56124423752E+01 0.56298113624E+01
 0.56536908647E+01 0.56833886772E+01 0.57179427925E+01 0.57564614980E+01 0.57985881929E+01
 0.58436334442E+01 0.58904363147E+01 0.59389963324E+01 0.59895970675E+01 0.60413653406E+01
 0.60947162770E+01 0.61488542977E+01 0.62016935844E+01 0.62529626560E+01 0.63012331306E+01
 0.63440867132E+01 0.63797928991E+01 0.64077411833E+01 0.64277719178E+01 0.64398075601E+01
 0.69349131841E+01 0.69280381848E+01 0.69073336344E+01 0.68725177444E+01 0.68237718873E+01
 0.67621480314E+01 0.66896116847E+01 0.66078955842E+01 0.65189472380E+01 0.64262075899E+01
 0.63344316915E+01 0.62449283142E+01 0.61594909971E+01 0.60797419515E+01 0.60052253312E+01
 0.59367799879E+01 0.58733817857E+01 0.58153995858E+01 0.57634678036E+01 0.57179427925E+01
 0.56791660279E+01 0.56479647205E+01 0.56250726850E+01 0.56111399720E+01 0.56064396686E+01
 0.56111399720E+01 0.56250726850E+01 0.56479647205E+01 0.56791660279E+01 0.57179427925E+01
 0.57634678036E+01 0.58153995858E+01 0.58733817857E+01 0.59367799879E+01 0.60052253312E+01
 0.60797419515E+01 0.61594909971E+01 0.62449283142E+01 0.63344316915E+01 0.64262075899E+01
 0.65189472380E+01 0.66078955842E+01 0.66896116847E+01 0.67621480314E+01 0.68237718873E+01
 0.68725177444E+01 0.69073336344E+01 0.69280381848E+01 0.75606197017E+01 0.75508592136E+01
 0.75215662394E+01 0.74726438755E+01 0.74035885649E+01 0.73135906829E+01 0.72027372440E+01
 0.70749736657E+01 0.69366635631E+01 0.67933533627E+01 0.66483706996E+01 0.65083083330E+01
 0.63768873938E+01 0.62558080044E+01 0.61464439553E+01 0.60483147072E+01 0.59612940431E+01
 0.58836581856E+01 0.58153995858E+01 0.57564614980E+01 0.57070358773E+01 0.56673681573E+01
 0.56382963182E+01 0.56204499287E+01 0.56144764297E+01 0.56204499287E+01 0.56382963182E+01
 0.56673681573E+01 0.57070358773E+01 0.57564614980E+01 0.58153995858E+01 0.58836581856E+01
 0.59612940431E+01 0.60483147072E+01 0.61464439553E+01 0.62558080044E+01 0.63768873938E+01
 0.65083083330E+01 0.66483706996E+01 0.67933533627E+01 0.69366635631E+01 0.70749736657E+01
 0.72027372440E+01 0.73135906829E+01 0.74035885649E+01 0.74726438755E+01 0.75215662394E+01
 0.75508592136E+01 0.84388438796E+01 0.84171045283E+01 0.83545057538E+01 0.82576922863E+01
 0.81356764266E+01 0.79955465910E+01 0.78398439387E+01 0.76652398582E+01 0.74696760032E+01
 0.72599705685E+01 0.70490766909E+01 0.68436883999E+01 0.66504296781E+01 0.64748746962E+01
 0.63185376080E+01 0.61817729403E+01 0.60632159924E+01 0.59612940431E+01 0.58733817857E+01
 0.57985881929E+01 0.57364131454E+01 0.56870961090E+01 0.56509798811E+01 0.56289397296E+01
 0.56214663375E+01 0.56289397296E+01 0.56509798811E+01 0.56870961090E+01 0.57364131454E+01
 0.57985881929E+01 0.58733817857E+01 0.59612940431E+01 0.60632159924E+01 0.61817729403E+01
 0.63185376080E+01 0.64748746962E+01 0.66504296781E+01 0.68436883999E+01 0.70490766909E+01
 0.72599705685E+01 0.74696760032E+01 0.76652398582E+01 0.78398439387E+01 0.79955465910E+01
 0.81356764266E+01 0.82576922863E+01 0.83545057538E+01 0.84171045283E+01 0.10019315905E+02
 0.99676756789E+01 0.98183135948E+01 0.95879045393E+01 0.93015580779E+01 0.89894628031E+01
 0.86792529103E+01 0.83875238111E+01 0.81112450781E+01 0.78330400348E+01 0.75439147660E+01
 0.72582180679E+01 0.69891448231E+01 0.67434887416E+01 0.65270343851E+01 0.63402825389E+01
 0.61817729403E+01 0.60483147072E+01 0.59367799879E+01 0.58436334442E+01 0.57672155881E+01
 0.57068350569E+01 0.56629702012E+01 0.56361487105E+01 0.56271723769E+01 0.56361487105E+01
 0.56629702012E+01 0.57068350569E+01 0.57672155881E+01 0.58436334442E+01 0.59367799879E+01
 0.60483147072E+01 0.61817729403E+01 0.63402825389E+01 0.65270343851E+01 0.67434887416E+01
 0.69891448231E+01 0.72582180679E+01 0.75439147660E+01 0.78330400348E+01 0.81112450781E+01
 0.83875238111E+01 0.86792529103E+01 0.89894628031E+01 0.93015580779E+01 0.95879045393E+01