   2   2   1   0
  0.1173411E+02  0.2863036E-09  0.2863036E-09  0.2863036E-09  0.5000000E-15
  1.000000000000000E-004
  CAR 
 unknown system                          
     45.18948279     -4.87265464  301      5.84157012      1.00000000
     -4.873  0.0000E+00  0.0000E+00  0.0000E+00  0.0000E+00
     -4.706  0.0000E+00  0.0000E+00  0.0000E+00  0.0000E+00
     -4.539  0.0000E+00  0.0000E+00  0.0000E+00  0.0000E+00
     -4.372  0.0000E+00  0.0000E+00  0.0000E+00  0.0000E+00
     -4.205 -0.3395E-32  0.0000E+00 -0.5665E-33  0.0000E+00
     -4.038 -0.1022E-26 -0.5467E-32 -0.1705E-27 -0.9122E-33
     -3.871 -0.7573E-22 -0.1565E-26 -0.1264E-22 -0.2611E-27
     -3.705 -0.1340E-17 -0.1103E-21 -0.2236E-18 -0.1840E-22
     -3.538 -0.5981E-14 -0.1854E-17 -0.9982E-15 -0.3094E-18
     -3.371 -0.6646E-11 -0.7866E-14 -0.1110E-11 -0.1313E-14
     -3.204 -0.1872E-08 -0.8310E-11 -0.3136E-09 -0.1388E-11
     -3.037 -0.1370E-06 -0.2226E-08 -0.2318E-07 -0.3729E-09
     -2.870 -0.2533E-05 -0.1550E-06 -0.4458E-06 -0.2623E-07
     -2.703 -0.6097E-05 -0.2712E-05 -0.1463E-05 -0.4789E-06
     -2.536  0.6480E-04 -0.5620E-05  0.9351E-05 -0.1417E-05
     -2.370  0.2306E-03  0.6966E-04  0.4783E-04  0.1021E-04
     -2.203  0.3648E-03  0.2340E-03  0.1087E-03  0.4926E-04
     -2.036  0.5350E-03  0.3657E-03  0.1980E-03  0.1103E-03
     -1.869  0.4671E-03  0.5329E-03  0.2759E-03  0.1992E-03
     -1.702  0.7038E-03  0.4566E-03  0.3934E-03  0.2754E-03
     -1.535  0.7568E-03  0.6939E-03  0.5197E-03  0.3912E-03
     -1.368  0.8087E-03  0.7388E-03  0.6546E-03  0.5145E-03
     -1.201  0.7291E-03  0.7907E-03  0.7763E-03  0.6464E-03
     -1.035  0.1047E-02  0.7055E-03  0.9509E-03  0.7641E-03
     -0.868  0.1232E-02  0.9541E-03  0.1156E-02  0.9233E-03
     -0.701  0.1011E-02  0.1186E-02  0.1325E-02  0.1121E-02
     -0.534  0.1004E-02  0.1043E-02  0.1493E-02  0.1295E-02
     -0.367  0.1518E-02  0.8033E-03  0.1746E-02  0.1429E-02
     -0.200  0.1634E-02  0.1322E-02  0.2019E-02  0.1650E-02
     -0.033  0.1535E-02  0.1500E-02  0.2275E-02  0.1900E-02
      0.134  0.1585E-02  0.1420E-02  0.2539E-02  0.2137E-02
      0.300  0.1932E-02  0.1229E-02  0.2862E-02  0.2343E-02
      0.467  0.2447E-02  0.1589E-02  0.3270E-02  0.2608E-02
      0.634  0.2730E-02  0.1552E-02  0.3726E-02  0.2867E-02
      0.801  0.3164E-02  0.1939E-02  0.4254E-02  0.3190E-02
      0.968  0.5872E-02  0.2181E-02  0.5233E-02  0.3554E-02
      1.135  0.1056E-01  0.1972E-02  0.6996E-02  0.3883E-02
      1.302  0.1158E-01  0.1760E-02  0.8929E-02  0.4177E-02
      1.469  0.1413E-01  0.2711E-02  0.1129E-01  0.4629E-02
      1.635  0.1813E-01  0.3011E-02  0.1431E-01  0.5132E-02
      1.802  0.1805E-01  0.3049E-02  0.1732E-01  0.5641E-02
      1.969  0.1372E-01  0.3655E-02  0.1961E-01  0.6251E-02
      2.136  0.9754E-02  0.4500E-02  0.2124E-01  0.7002E-02
      2.303  0.8617E-02  0.6277E-02  0.2268E-01  0.8049E-02
      2.470  0.1902E-01  0.7829E-02  0.2585E-01  0.9355E-02
      2.637  0.3039E-01  0.6626E-02  0.3092E-01  0.1046E-01
      2.804  0.2405E-01  0.7318E-02  0.3494E-01  0.1168E-01
      2.970  0.2020E-01  0.9205E-02  0.3831E-01  0.1322E-01
      3.137  0.2250E-01  0.1156E-01  0.4206E-01  0.1515E-01
      3.304  0.2838E-01  0.1301E-01  0.4680E-01  0.1732E-01
      3.471  0.2711E-01  0.1125E-01  0.5132E-01  0.1920E-01
      3.638  0.1640E-01  0.8286E-02  0.5406E-01  0.2058E-01
      3.805  0.9393E-02  0.5515E-02  0.5563E-01  0.2150E-01
      3.972  0.8444E-02  0.9627E-02  0.5704E-01  0.2310E-01
      4.139  0.9090E-02  0.2067E-01  0.5855E-01  0.2655E-01
      4.305  0.1208E-01  0.2645E-01  0.6057E-01  0.3097E-01
      4.472  0.1900E-01  0.2461E-01  0.6374E-01  0.3508E-01
      4.639  0.3123E-01  0.2283E-01  0.6895E-01  0.3888E-01
      4.806  0.4355E-01  0.2259E-01  0.7622E-01  0.4265E-01
      4.973  0.5053E-01  0.2428E-01  0.8465E-01  0.4671E-01
      5.140  0.3509E-01  0.2348E-01  0.9051E-01  0.5062E-01
      5.307  0.1856E-01  0.1917E-01  0.9360E-01  0.5382E-01
      5.474  0.1664E-01  0.1323E-01  0.9638E-01  0.5603E-01
      5.640  0.1394E-01  0.6570E-02  0.9871E-01  0.5713E-01
      5.807  0.1508E-01  0.5456E-02  0.1012E+00  0.5804E-01
      5.974  0.1546E-01  0.4750E-02  0.1038E+00  0.5883E-01
      6.141  0.9548E-02  0.5447E-02  0.1054E+00  0.5974E-01
      6.308  0.4394E-02  0.5922E-02  0.1061E+00  0.6073E-01
      6.475  0.2226E-02  0.8665E-02  0.1065E+00  0.6217E-01
      6.642  0.2771E-02  0.1190E-01  0.1070E+00  0.6416E-01
      6.809  0.3552E-02  0.1498E-01  0.1076E+00  0.6666E-01
      6.975  0.3211E-02  0.1779E-01  0.1081E+00  0.6963E-01
      7.142  0.2382E-02  0.2260E-01  0.1085E+00  0.7340E-01
      7.309  0.3106E-02  0.2682E-01  0.1090E+00  0.7787E-01
      7.476  0.3401E-02  0.2535E-01  0.1096E+00  0.8210E-01
      7.643  0.2028E-02  0.3208E-01  0.1099E+00  0.8746E-01
      7.810  0.2213E-02  0.4810E-01  0.1103E+00  0.9549E-01
      7.977  0.3171E-02  0.3283E-01  0.1108E+00  0.1010E+00
      8.144  0.3307E-02  0.1665E-01  0.1114E+00  0.1037E+00
      8.310  0.2827E-02  0.1139E-01  0.1118E+00  0.1056E+00
      8.477  0.2680E-02  0.6116E-02  0.1123E+00  0.1067E+00
      8.644  0.2056E-02  0.4161E-02  0.1126E+00  0.1074E+00
      8.811  0.1891E-02  0.4620E-02  0.1129E+00  0.1081E+00
      8.978  0.2587E-02  0.4405E-02  0.1134E+00  0.1089E+00
      9.145  0.2593E-02  0.3751E-02  0.1138E+00  0.1095E+00
      9.312  0.2368E-02  0.2635E-02  0.1142E+00  0.1099E+00
      9.478  0.2501E-02  0.3325E-02  0.1146E+00  0.1105E+00
      9.645  0.2650E-02  0.4872E-02  0.1151E+00  0.1113E+00
      9.812  0.1949E-02  0.3655E-02  0.1154E+00  0.1119E+00
      9.979  0.1666E-02  0.2227E-02  0.1157E+00  0.1123E+00
     10.146  0.1816E-02  0.2276E-02  0.1160E+00  0.1127E+00
     10.313  0.2121E-02  0.3440E-02  0.1163E+00  0.1132E+00
     10.480  0.1274E-02  0.3474E-02  0.1165E+00  0.1138E+00
     10.647  0.1345E-02  0.2404E-02  0.1168E+00  0.1142E+00
     10.813  0.2500E-02  0.2408E-02  0.1172E+00  0.1146E+00
     10.980  0.2090E-02  0.3195E-02  0.1175E+00  0.1152E+00
     11.147  0.1817E-02  0.2234E-02  0.1178E+00  0.1155E+00
     11.314  0.1140E-02  0.1781E-02  0.1180E+00  0.1158E+00
     11.481  0.1206E-02  0.2382E-02  0.1182E+00  0.1162E+00
     11.648  0.1114E-02  0.1908E-02  0.1184E+00  0.1165E+00
     11.815  0.4181E-03  0.1769E-02  0.1185E+00  0.1168E+00
     11.982  0.1036E-02  0.2534E-02  0.1186E+00  0.1173E+00
     12.148  0.1413E-02  0.2150E-02  0.1189E+00  0.1176E+00
     12.315  0.9964E-03  0.1695E-02  0.1190E+00  0.1179E+00
     12.482  0.9738E-03  0.1163E-02  0.1192E+00  0.1181E+00
     12.649  0.8598E-03  0.1139E-02  0.1194E+00  0.1183E+00
     12.816  0.9011E-03  0.1023E-02  0.1195E+00  0.1185E+00
     12.983  0.5693E-03  0.1172E-02  0.1196E+00  0.1186E+00
     13.150  0.3384E-03  0.1821E-02  0.1197E+00  0.1190E+00
     13.317  0.1606E-02  0.1403E-02  0.1199E+00  0.1192E+00
     13.483  0.3788E-02  0.5614E-03  0.1206E+00  0.1193E+00
     13.650  0.5269E-02  0.5869E-03  0.1214E+00  0.1194E+00
     13.817  0.5520E-02  0.8866E-03  0.1224E+00  0.1195E+00
     13.984  0.4906E-02  0.4990E-03  0.1232E+00  0.1196E+00
     14.151  0.3846E-02  0.2273E-03  0.1238E+00  0.1196E+00
     14.318  0.3636E-02  0.1504E-03  0.1244E+00  0.1197E+00
     14.485  0.3739E-02  0.1426E-02  0.1250E+00  0.1199E+00
     14.652  0.3046E-02  0.4246E-02  0.1256E+00  0.1206E+00
     14.818  0.3080E-02  0.6067E-02  0.1261E+00  0.1216E+00
     14.985  0.3010E-02  0.7073E-02  0.1266E+00  0.1228E+00
     15.152  0.2764E-02  0.5875E-02  0.1270E+00  0.1238E+00
     15.319  0.3664E-02  0.3100E-02  0.1276E+00  0.1243E+00
     15.486  0.3432E-02  0.3310E-02  0.1282E+00  0.1249E+00
     15.653  0.2983E-02  0.4153E-02  0.1287E+00  0.1256E+00
     15.820  0.4375E-02  0.4399E-02  0.1294E+00  0.1263E+00
     15.987  0.4282E-02  0.4185E-02  0.1302E+00  0.1270E+00
     16.153  0.3800E-02  0.2634E-02  0.1308E+00  0.1274E+00
     16.320  0.3374E-02  0.3390E-02  0.1314E+00  0.1280E+00
     16.487  0.3631E-02  0.3791E-02  0.1320E+00  0.1286E+00
     16.654  0.4056E-02  0.4849E-02  0.1326E+00  0.1294E+00
     16.821  0.3733E-02  0.4684E-02  0.1333E+00  0.1302E+00
     16.988  0.3610E-02  0.3898E-02  0.1339E+00  0.1309E+00
     17.155  0.3545E-02  0.4435E-02  0.1345E+00  0.1316E+00
     17.322  0.5006E-02  0.4159E-02  0.1353E+00  0.1323E+00
     17.488  0.4425E-02  0.2748E-02  0.1360E+00  0.1328E+00
     17.655  0.2384E-02  0.3630E-02  0.1364E+00  0.1334E+00
     17.822  0.2448E-02  0.4348E-02  0.1368E+00  0.1341E+00
     17.989  0.3721E-02  0.4178E-02  0.1375E+00  0.1348E+00
     18.156  0.3345E-02  0.5363E-02  0.1380E+00  0.1357E+00
     18.323  0.4055E-02  0.4470E-02  0.1387E+00  0.1364E+00
     18.490  0.5775E-02  0.2174E-02  0.1397E+00  0.1368E+00
     18.657  0.3890E-02  0.2314E-02  0.1403E+00  0.1372E+00
     18.823  0.2559E-02  0.3313E-02  0.1407E+00  0.1377E+00
     18.990  0.3565E-02  0.4806E-02  0.1413E+00  0.1385E+00
     19.157  0.2113E-02  0.5056E-02  0.1417E+00  0.1394E+00
     19.324  0.1399E-02  0.4815E-02  0.1419E+00  0.1402E+00
     19.491  0.4400E-02  0.3582E-02  0.1426E+00  0.1408E+00
     19.658  0.5589E-02  0.2876E-02  0.1436E+00  0.1413E+00
     19.825  0.4538E-02  0.2380E-02  0.1443E+00  0.1417E+00
     19.992  0.4560E-02  0.2170E-02  0.1451E+00  0.1420E+00
     20.158  0.2360E-02  0.4216E-02  0.1455E+00  0.1427E+00
     20.325  0.1538E-02  0.4884E-02  0.1457E+00  0.1435E+00
     20.492  0.2614E-02  0.5191E-02  0.1462E+00  0.1444E+00
     20.659  0.3310E-02  0.4625E-02  0.1467E+00  0.1452E+00
     20.826  0.3071E-02  0.1892E-02  0.1473E+00  0.1455E+00
     20.993  0.3597E-02  0.2585E-02  0.1479E+00  0.1459E+00
     21.160  0.5221E-02  0.3063E-02  0.1487E+00  0.1464E+00
     21.327  0.4789E-02  0.2760E-02  0.1495E+00  0.1469E+00
     21.493  0.3406E-02  0.3350E-02  0.1501E+00  0.1474E+00
     21.660  0.1866E-02  0.4454E-02  0.1504E+00  0.1482E+00
     21.827  0.1473E-02  0.5494E-02  0.1506E+00  0.1491E+00
     21.994  0.3478E-02  0.4099E-02  0.1512E+00  0.1498E+00
     22.161  0.3996E-02  0.2860E-02  0.1519E+00  0.1503E+00
     22.328  0.3994E-02  0.1322E-02  0.1526E+00  0.1505E+00
     22.495  0.4995E-02  0.2560E-02  0.1534E+00  0.1509E+00
     22.662  0.5025E-02  0.3849E-02  0.1542E+00  0.1516E+00
     22.828  0.4882E-02  0.3766E-02  0.1550E+00  0.1522E+00
     22.995  0.4337E-02  0.4192E-02  0.1558E+00  0.1529E+00
     23.162  0.3153E-02  0.5282E-02  0.1563E+00  0.1538E+00
     23.329  0.2994E-02  0.5450E-02  0.1568E+00  0.1547E+00
     23.496  0.4335E-02  0.4254E-02  0.1575E+00  0.1554E+00
     23.663  0.5715E-02  0.3710E-02  0.1585E+00  0.1560E+00
     23.830  0.5029E-02  0.4393E-02  0.1593E+00  0.1567E+00
     23.997  0.5081E-02  0.4325E-02  0.1602E+00  0.1575E+00
     24.163  0.6987E-02  0.4872E-02  0.1613E+00  0.1583E+00
     24.330  0.5425E-02  0.6634E-02  0.1622E+00  0.1594E+00
     24.497  0.4014E-02  0.7091E-02  0.1629E+00  0.1606E+00
     24.664  0.3938E-02  0.5824E-02  0.1636E+00  0.1615E+00
     24.831  0.4202E-02  0.4262E-02  0.1643E+00  0.1622E+00
     24.998  0.4158E-02  0.4393E-02  0.1650E+00  0.1630E+00
     25.165  0.5417E-02  0.4509E-02  0.1659E+00  0.1637E+00
     25.332  0.6025E-02  0.3731E-02  0.1669E+00  0.1644E+00
     25.498  0.6049E-02  0.5163E-02  0.1679E+00  0.1652E+00
     25.665  0.6119E-02  0.5723E-02  0.1689E+00  0.1662E+00
     25.832  0.5625E-02  0.5404E-02  0.1698E+00  0.1671E+00
     25.999  0.3741E-02  0.7073E-02  0.1705E+00  0.1683E+00
     26.166  0.3052E-02  0.6626E-02  0.1710E+00  0.1694E+00
     26.333  0.4494E-02  0.4007E-02  0.1717E+00  0.1700E+00
     26.500  0.6127E-02  0.3266E-02  0.1727E+00  0.1706E+00
     26.666  0.6132E-02  0.4203E-02  0.1738E+00  0.1713E+00
     26.833  0.5753E-02  0.5247E-02  0.1747E+00  0.1722E+00
     27.000  0.4335E-02  0.5874E-02  0.1754E+00  0.1731E+00
     27.167  0.4154E-02  0.5948E-02  0.1761E+00  0.1741E+00
     27.334  0.3265E-02  0.5822E-02  0.1767E+00  0.1751E+00
     27.501  0.2853E-02  0.4713E-02  0.1772E+00  0.1759E+00
     27.668  0.3567E-02  0.2803E-02  0.1778E+00  0.1764E+00
     27.835  0.3316E-02  0.3369E-02  0.1783E+00  0.1769E+00
     28.001  0.3924E-02  0.4092E-02  0.1790E+00  0.1776E+00
     28.168  0.4284E-02  0.2549E-02  0.1797E+00  0.1780E+00
     28.335  0.3984E-02  0.2492E-02  0.1803E+00  0.1784E+00
     28.502  0.3536E-02  0.4602E-02  0.1809E+00  0.1792E+00
     28.669  0.2765E-02  0.5594E-02  0.1814E+00  0.1801E+00
     28.836  0.2887E-02  0.3128E-02  0.1819E+00  0.1807E+00
     29.003  0.2099E-02  0.2334E-02  0.1822E+00  0.1811E+00
     29.170  0.2183E-02  0.3264E-02  0.1826E+00  0.1816E+00
     29.336  0.2259E-02  0.3180E-02  0.1830E+00  0.1821E+00
     29.503  0.3272E-02  0.2310E-02  0.1835E+00  0.1825E+00
     29.670  0.3950E-02  0.2363E-02  0.1842E+00  0.1829E+00
     29.837  0.3178E-02  0.2436E-02  0.1847E+00  0.1833E+00
     30.004  0.3135E-02  0.3778E-02  0.1852E+00  0.1839E+00
     30.171  0.4097E-02  0.4216E-02  0.1859E+00  0.1846E+00
     30.338  0.4568E-02  0.2775E-02  0.1867E+00  0.1851E+00
     30.505  0.5533E-02  0.3688E-02  0.1876E+00  0.1857E+00
     30.671  0.5778E-02  0.5576E-02  0.1886E+00  0.1867E+00
     30.838  0.6743E-02  0.5210E-02  0.1897E+00  0.1875E+00
     31.005  0.6233E-02  0.5925E-02  0.1907E+00  0.1885E+00
     31.172  0.5831E-02  0.6642E-02  0.1917E+00  0.1896E+00
     31.339  0.4857E-02  0.5661E-02  0.1925E+00  0.1906E+00
     31.506  0.4350E-02  0.6142E-02  0.1932E+00  0.1916E+00
     31.673  0.3737E-02  0.5425E-02  0.1939E+00  0.1925E+00
     31.840  0.3049E-02  0.3688E-02  0.1944E+00  0.1931E+00
     32.006  0.3977E-02  0.4779E-02  0.1950E+00  0.1939E+00
     32.173  0.3137E-02  0.4823E-02  0.1956E+00  0.1947E+00
     32.340  0.1650E-02  0.2837E-02  0.1958E+00  0.1952E+00
     32.507  0.1147E-02  0.2263E-02  0.1960E+00  0.1956E+00
     32.674  0.9826E-03  0.1503E-02  0.1962E+00  0.1958E+00
     32.841  0.1916E-02  0.1439E-02  0.1965E+00  0.1961E+00
     33.008  0.1362E-02  0.2451E-02  0.1967E+00  0.1965E+00
     33.175  0.7670E-03  0.1259E-02  0.1969E+00  0.1967E+00
     33.341  0.1165E-02  0.6820E-03  0.1971E+00  0.1968E+00
     33.508  0.1419E-02  0.1590E-02  0.1973E+00  0.1971E+00
     33.675  0.1390E-02  0.2047E-02  0.1975E+00  0.1974E+00
     33.842  0.7734E-03  0.1144E-02  0.1977E+00  0.1976E+00
     34.009  0.7481E-03  0.5647E-03  0.1978E+00  0.1977E+00
     34.176  0.8408E-03  0.7355E-03  0.1979E+00  0.1978E+00
     34.343  0.3224E-03  0.6790E-03  0.1980E+00  0.1979E+00
     34.510  0.6134E-04  0.3378E-03  0.1980E+00  0.1980E+00
     34.676  0.5357E-04  0.6233E-04  0.1980E+00  0.1980E+00
     34.843  0.7969E-03  0.4694E-03  0.1981E+00  0.1981E+00
     35.010  0.1016E-02  0.9769E-03  0.1983E+00  0.1982E+00
     35.177  0.2745E-03  0.5823E-03  0.1983E+00  0.1983E+00
     35.344  0.6316E-04  0.1802E-03  0.1983E+00  0.1984E+00
     35.511  0.9374E-03  0.8066E-03  0.1985E+00  0.1985E+00
     35.678  0.1110E-02  0.1110E-02  0.1987E+00  0.1987E+00
     35.845  0.7806E-03  0.8714E-03  0.1988E+00  0.1988E+00
     36.011  0.5131E-03  0.5477E-03  0.1989E+00  0.1989E+00
     36.178  0.1456E-03  0.1451E-04  0.1989E+00  0.1989E+00
     36.345  0.5070E-03  0.3438E-03  0.1990E+00  0.1990E+00
     36.512  0.2926E-03  0.5578E-03  0.1991E+00  0.1991E+00
     36.679  0.2416E-03  0.3146E-03  0.1991E+00  0.1991E+00
     36.846  0.9941E-04  0.4214E-04  0.1991E+00  0.1991E+00
     37.013  0.8724E-04  0.5790E-04  0.1991E+00  0.1991E+00
     37.180  0.5204E-03  0.5020E-03  0.1992E+00  0.1992E+00
     37.346  0.2806E-03  0.3171E-03  0.1993E+00  0.1993E+00
     37.513 -0.5078E-04 -0.4757E-04  0.1993E+00  0.1993E+00
     37.680  0.5839E-04  0.1512E-03  0.1993E+00  0.1993E+00
     37.847  0.8216E-03  0.8632E-03  0.1994E+00  0.1994E+00
     38.014  0.7985E-03  0.7117E-03  0.1995E+00  0.1995E+00
     38.181  0.2149E-03  0.2748E-03  0.1996E+00  0.1996E+00
     38.348  0.2437E-03  0.1694E-03  0.1996E+00  0.1996E+00
     38.515  0.1995E-03  0.1416E-03  0.1997E+00  0.1996E+00
     38.681  0.1107E-03  0.1332E-03  0.1997E+00  0.1997E+00
     38.848 -0.5852E-05 -0.1491E-05  0.1997E+00  0.1997E+00
     39.015 -0.1368E-04 -0.3889E-05  0.1997E+00  0.1997E+00
     39.182  0.1370E-03  0.1906E-03  0.1997E+00  0.1997E+00
     39.349  0.2639E-03  0.2295E-03  0.1997E+00  0.1997E+00
     39.516  0.4814E-04  0.6665E-05  0.1997E+00  0.1997E+00
     39.683 -0.2212E-04  0.6900E-04  0.1997E+00  0.1997E+00
     39.850  0.1290E-03  0.2718E-03  0.1998E+00  0.1998E+00
     40.016  0.2639E-03  0.9735E-04  0.1998E+00  0.1998E+00
     40.183  0.4456E-04 -0.7689E-05  0.1998E+00  0.1998E+00
     40.350  0.8148E-04  0.1892E-03  0.1998E+00  0.1998E+00
     40.517  0.2596E-03  0.2528E-03  0.1999E+00  0.1999E+00
     40.684  0.1589E-03  0.2610E-03  0.1999E+00  0.1999E+00
     40.851  0.2591E-03  0.1605E-03  0.1999E+00  0.2000E+00
     41.018  0.1095E-03 -0.4815E-05  0.2000E+00  0.2000E+00
     41.185 -0.1174E-04 -0.5585E-05  0.2000E+00  0.2000E+00
     41.351 -0.3183E-05 -0.2383E-06  0.2000E+00  0.2000E+00
     41.518 -0.9092E-07 -0.1989E-08  0.2000E+00  0.2000E+00
     41.685 -0.5356E-09 -0.3747E-11  0.2000E+00  0.2000E+00
     41.852 -0.7226E-12 -0.2078E-13  0.2000E+00  0.2000E+00
     42.019 -0.6876E-12 -0.2588E-10  0.2000E+00  0.2000E+00
     42.186 -0.4747E-09 -0.8204E-08  0.2000E+00  0.2000E+00
     42.353 -0.7488E-07 -0.5721E-06  0.2000E+00  0.2000E+00
     42.520 -0.2412E-05 -0.6804E-05  0.2000E+00  0.2000E+00
     42.686 -0.7208E-05  0.1877E-04  0.2000E+00  0.2000E+00
     42.853  0.8252E-04  0.1621E-03  0.2000E+00  0.2000E+00
     43.020  0.1792E-03  0.1165E-03  0.2000E+00  0.2000E+00
     43.187  0.4147E-04 -0.1838E-05  0.2000E+00  0.2000E+00
     43.354 -0.8230E-05 -0.3920E-05  0.2000E+00  0.2000E+00
     43.521 -0.1106E-05 -0.1766E-06  0.2000E+00  0.2000E+00
     43.688 -0.2173E-07 -0.1548E-08  0.2000E+00  0.2000E+00
     43.854 -0.9135E-10 -0.3067E-11  0.2000E+00  0.2000E+00
     44.021 -0.8891E-13 -0.1438E-14  0.2000E+00  0.2000E+00
     44.188 -0.2063E-16 -0.1892E-18  0.2000E+00  0.2000E+00
     44.355  0.0000E+00  0.0000E+00  0.2000E+00  0.2000E+00
     44.522  0.0000E+00  0.0000E+00  0.2000E+00  0.2000E+00
     44.689  0.0000E+00  0.0000E+00  0.2000E+00  0.2000E+00
     44.856  0.0000E+00  0.0000E+00  0.2000E+00  0.2000E+00
     45.023  0.0000E+00  0.0000E+00  0.2000E+00  0.2000E+00
     45.189  0.0000E+00  0.0000E+00  0.2000E+00  0.2000E+00
     45.18948279     -4.87265464  301      5.84157012      1.00000000
     -4.873  0.0000E+00  0.0000E+00  0.0000E+00  0.0000E+00  0.0000E+00  0.0000E+00  0.0000E+00  0.0000E+00  0.0000E+00  0.0000E+00  0.0000E+00  0.0000E+00  0.0000E+00  0.0000E+00  0.0000E+00  0.0000E+00  0.0000E+00  0.0000E+00
     -4.706  0.0000E+00  0.0000E+00  0.0000E+00  0.0000E+00  0.0000E+00  0.0000E+00  0.0000E+00  0.0000E+00  0.0000E+00  0.0000E+00  0.0000E+00  0.0000E+00  0.0000E+00  0.0000E+00  0.0000E+00  0.0000E+00  0.0000E+00  0.0000E+00
     -4.539  0.0000E+00  0.0000E+00  0.0000E+00  0.0000E+00  0.0000E+00  0.0000E+00  0.0000E+00  0.0000E+00  0.0000E+00  0.0000E+00  0.0000E+00  0.0000E+00  0.0000E+00  0.0000E+00  0.0000E+00  0.0000E+00  0.0000E+00  0.0000E+00
     -4.372  0.0000E+00  0.0000E+00  0.0000E+00  0.0000E+00  0.0000E+00  0.0000E+00  0.0000E+00  0.0000E+00  0.0000E+00  0.0000E+00  0.0000E+00  0.0000E+00  0.0000E+00  0.0000E+00  0.0000E+00  0.0000E+00  0.0000E+00  0.0000E+00
     -4.205 -0.1244E-30  0.0000E+00 -0.1120E-35  0.0000E+00 -0.1120E-35  0.0000E+00 -0.1120E-35  0.0000E+00 -0.1886E-43  0.0000E+00 -0.1886E-43  0.0000E+00 -0.1246E-37  0.0000E+00 -0.1886E-43  0.0000E+00 -0.1246E-37  0.0000E+00
     -4.038 -0.3745E-25 -0.2002E-30 -0.7339E-30 -0.1801E-35 -0.7339E-30 -0.1801E-35 -0.7339E-30 -0.1801E-35 -0.3315E-34 -0.1149E-42 -0.3315E-34 -0.1149E-42 -0.8154E-32 -0.1407E-37 -0.3315E-34 -0.1149E-42 -0.8154E-32 -0.1407E-37
     -3.871 -0.2775E-20 -0.5731E-25 -0.1181E-24 -0.1126E-29 -0.1181E-24 -0.1126E-29 -0.1181E-24 -0.1126E-29 -0.1153E-28 -0.3575E-34 -0.1153E-28 -0.3575E-34 -0.1310E-26 -0.8780E-32 -0.1153E-28 -0.3575E-34 -0.1310E-26 -0.8780E-32
     -3.705 -0.4908E-16 -0.4038E-20 -0.4674E-20 -0.1729E-24 -0.4674E-20 -0.1729E-24 -0.4674E-20 -0.1729E-24 -0.9853E-24 -0.1191E-28 -0.9853E-24 -0.1191E-28 -0.5166E-22 -0.1346E-26 -0.9853E-24 -0.1191E-28 -0.5166E-22 -0.1346E-26
     -3.538 -0.2190E-12 -0.6790E-16 -0.4379E-16 -0.6524E-20 -0.4379E-16 -0.6524E-20 -0.4379E-16 -0.6524E-20 -0.2000E-19 -0.9743E-24 -0.2000E-19 -0.9743E-24 -0.4802E-18 -0.5062E-22 -0.2000E-19 -0.9743E-24 -0.4802E-18 -0.5062E-22
     -3.371 -0.2432E-09 -0.2880E-12 -0.1034E-12 -0.5827E-16 -0.1034E-12 -0.5827E-16 -0.1034E-12 -0.5827E-16 -0.1011E-15 -0.1892E-19 -0.1011E-15 -0.1892E-19 -0.1115E-14 -0.4485E-18 -0.1011E-15 -0.1892E-19 -0.1115E-14 -0.4485E-18
     -3.204 -0.6844E-07 -0.3040E-09 -0.6000E-10 -0.1312E-12 -0.6000E-10 -0.1312E-12 -0.6000E-10 -0.1312E-12 -0.1238E-12 -0.9165E-16 -0.1238E-12 -0.9165E-16 -0.6248E-12 -0.9926E-15 -0.1238E-12 -0.9165E-16 -0.6248E-12 -0.9926E-15
     -3.037 -0.4996E-05 -0.8133E-07 -0.8600E-08 -0.7257E-10 -0.8600E-08 -0.7257E-10 -0.8600E-08 -0.7257E-10 -0.3634E-10 -0.1074E-12 -0.3634E-10 -0.1074E-12 -0.8323E-10 -0.5296E-12 -0.3634E-10 -0.1074E-12 -0.8323E-10 -0.5296E-12
     -2.870 -0.9193E-04 -0.5646E-05 -0.2986E-06 -0.9911E-08 -0.2986E-06 -0.9911E-08 -0.2986E-06 -0.9911E-08 -0.2482E-08 -0.3015E-10 -0.2482E-08 -0.3015E-10 -0.2513E-08 -0.6705E-10 -0.2482E-08 -0.3015E-10 -0.2513E-08 -0.6705E-10
     -2.703 -0.2174E-03 -0.9837E-04 -0.2007E-05 -0.3272E-06 -0.2007E-05 -0.3272E-06 -0.2007E-05 -0.3272E-06 -0.3482E-07 -0.1966E-08 -0.3482E-07 -0.1966E-08 -0.1522E-07 -0.1913E-08 -0.3482E-07 -0.1966E-08 -0.1522E-07 -0.1913E-08
     -2.536  0.2361E-02 -0.1997E-03  0.4899E-05 -0.2045E-05  0.4899E-05 -0.2045E-05  0.4899E-05 -0.2045E-05 -0.2747E-07 -0.2604E-07 -0.2747E-07 -0.2604E-07 -0.4329E-07 -0.1066E-07 -0.2747E-07 -0.2604E-07 -0.4329E-07 -0.1066E-07
     -2.370  0.8328E-02  0.2535E-02  0.4141E-04  0.5682E-05  0.4141E-04  0.5682E-05  0.4141E-04  0.5682E-05  0.4261E-06 -0.1255E-07  0.4261E-06 -0.1255E-07  0.7767E-07 -0.2773E-07  0.4261E-06 -0.1255E-07  0.7767E-07 -0.2773E-07
     -2.203  0.1294E-01  0.8443E-02  0.1427E-03  0.4304E-04  0.1427E-03  0.4304E-04  0.1427E-03  0.4304E-04  0.2907E-05  0.3321E-06  0.2907E-05  0.3321E-06  0.3422E-05  0.7405E-07  0.2907E-05  0.3321E-06  0.3422E-05  0.7405E-07
     -2.036  0.1870E-01  0.1295E-01  0.2942E-03  0.1460E-03  0.2942E-03  0.1460E-03  0.2942E-03  0.1460E-03  0.9864E-05  0.2126E-05  0.9864E-05  0.2126E-05  0.6924E-05  0.2435E-05  0.9864E-05  0.2126E-05  0.6924E-05  0.2435E-05
     -1.869  0.1604E-01  0.1861E-01  0.3429E-03  0.2960E-03  0.3429E-03  0.2960E-03  0.3429E-03  0.2960E-03  0.1973E-04  0.6979E-05  0.1973E-04  0.6979E-05  0.9478E-05  0.4765E-05  0.1973E-04  0.6979E-05  0.9478E-05  0.4765E-05
     -1.702  0.2363E-01  0.1567E-01  0.6790E-03  0.3386E-03  0.6790E-03  0.3386E-03  0.6790E-03  0.3386E-03  0.3784E-04  0.1351E-04  0.3784E-04  0.1351E-04  0.4092E-04  0.6114E-05  0.3784E-04  0.1351E-04  0.4092E-04  0.6114E-05
     -1.535  0.2502E-01  0.2329E-01  0.8351E-03  0.6752E-03  0.8351E-03  0.6752E-03  0.8351E-03  0.6752E-03  0.6021E-04  0.2581E-04  0.6021E-04  0.2581E-04  0.5903E-04  0.2660E-04  0.6021E-04  0.2581E-04  0.5903E-04  0.2660E-04
     -1.368  0.2614E-01  0.2446E-01  0.1046E-02  0.8194E-03  0.1046E-02  0.8194E-03  0.1046E-02  0.8194E-03  0.1276E-03  0.3828E-04  0.1276E-03  0.3828E-04  0.6142E-04  0.3803E-04  0.1276E-03  0.3828E-04  0.6142E-04  0.3803E-04
     -1.201  0.2313E-01  0.2559E-01  0.1059E-02  0.1038E-02  0.1059E-02  0.1038E-02  0.1059E-02  0.1038E-02  0.1231E-03  0.8281E-04  0.1231E-03  0.8281E-04  0.9792E-04  0.3825E-04  0.1231E-03  0.8281E-04  0.9792E-04  0.3825E-04
     -1.035  0.3219E-01  0.2249E-01  0.1759E-02  0.1025E-02  0.1759E-02  0.1025E-02  0.1759E-02  0.1025E-02  0.2229E-03  0.7978E-04  0.2229E-03  0.7978E-04  0.2502E-03  0.5450E-04  0.2229E-03  0.7978E-04  0.2502E-03  0.5450E-04
     -0.868  0.3716E-01  0.2953E-01  0.2203E-02  0.1625E-02  0.2203E-02  0.1625E-02  0.2203E-02  0.1625E-02  0.3776E-03  0.1261E-03  0.3776E-03  0.1261E-03  0.3289E-03  0.1408E-03  0.3776E-03  0.1261E-03  0.3289E-03  0.1408E-03
     -0.701  0.2987E-01  0.3612E-01  0.1941E-02  0.2156E-02  0.1941E-02  0.2156E-02  0.1941E-02  0.2156E-02  0.4229E-03  0.2216E-03  0.4229E-03  0.2216E-03  0.2494E-03  0.1916E-03  0.4229E-03  0.2216E-03  0.2494E-03  0.1916E-03
     -0.534  0.2847E-01  0.3116E-01  0.2110E-02  0.2048E-02  0.2110E-02  0.2048E-02  0.2110E-02  0.2048E-02  0.5960E-03  0.2628E-03  0.5960E-03  0.2628E-03  0.3851E-03  0.1633E-03  0.5960E-03  0.2628E-03  0.3851E-03  0.1633E-03
     -0.367  0.4183E-01  0.2337E-01  0.3417E-02  0.1715E-02  0.3417E-02  0.1715E-02  0.3417E-02  0.1715E-02  0.8713E-03  0.2821E-03  0.8713E-03  0.2821E-03  0.9423E-03  0.1358E-03  0.8713E-03  0.2821E-03  0.9423E-03  0.1358E-03
     -0.200  0.4367E-01  0.3731E-01  0.3902E-02  0.3070E-02  0.3902E-02  0.3070E-02  0.3902E-02  0.3070E-02  0.1128E-02  0.4798E-03  0.1128E-02  0.4798E-03  0.1148E-02  0.4374E-03  0.1128E-02  0.4798E-03  0.1148E-02  0.4374E-03
     -0.033  0.3939E-01  0.4148E-01  0.3698E-02  0.3691E-02  0.3698E-02  0.3691E-02  0.3698E-02  0.3691E-02  0.1606E-02  0.5664E-03  0.1606E-02  0.5664E-03  0.1239E-02  0.5846E-03  0.1606E-02  0.5664E-03  0.1239E-02  0.5846E-03
      0.134  0.3876E-01  0.3829E-01  0.3927E-02  0.3669E-02  0.3927E-02  0.3669E-02  0.3927E-02  0.3669E-02  0.2229E-02  0.6929E-03  0.2229E-02  0.6929E-03  0.1409E-02  0.5987E-03  0.2229E-02  0.6929E-03  0.1409E-02  0.5987E-03
      0.300  0.4498E-01  0.3200E-01  0.5066E-02  0.3279E-02  0.5066E-02  0.3279E-02  0.5066E-02  0.3279E-02  0.2767E-02  0.9087E-03  0.2767E-02  0.9087E-03  0.2512E-02  0.5670E-03  0.2767E-02  0.9087E-03  0.2512E-02  0.5670E-03
      0.467  0.5340E-01  0.4023E-01  0.6469E-02  0.4440E-02  0.6469E-02  0.4440E-02  0.6469E-02  0.4440E-02  0.4004E-02  0.1363E-02  0.4004E-02  0.1363E-02  0.4492E-02  0.7644E-03  0.4004E-02  0.1363E-02  0.4492E-02  0.7644E-03
      0.634  0.5627E-01  0.3808E-01  0.7156E-02  0.4636E-02  0.7156E-02  0.4636E-02  0.7156E-02  0.4636E-02  0.6011E-02  0.1147E-02  0.6011E-02  0.1147E-02  0.4929E-02  0.1179E-02  0.6011E-02  0.1147E-02  0.4929E-02  0.1179E-02
      0.801  0.5717E-01  0.4545E-01  0.7016E-02  0.5932E-02  0.7016E-02  0.5932E-02  0.7016E-02  0.5932E-02  0.1100E-01  0.1796E-02  0.1100E-01  0.1796E-02  0.7154E-02  0.1951E-02  0.1100E-01  0.1796E-02  0.7154E-02  0.1951E-02
      0.968  0.7441E-01  0.4964E-01  0.8761E-02  0.6750E-02  0.8761E-02  0.6750E-02  0.8761E-02  0.6750E-02  0.2885E-01  0.2650E-02  0.2885E-01  0.2650E-02  0.2804E-01  0.2056E-02  0.2885E-01  0.2650E-02  0.2804E-01  0.2056E-02
      1.135  0.1050E+00  0.4324E-01  0.1302E-01  0.6184E-02  0.1302E-01  0.6184E-02  0.1302E-01  0.6184E-02  0.5188E-01  0.2914E-02  0.5188E-01  0.2914E-02  0.7279E-01  0.1947E-02  0.5188E-01  0.2914E-02  0.7279E-01  0.1947E-02
      1.302  0.8517E-01  0.3631E-01  0.1157E-01  0.5401E-02  0.1157E-01  0.5401E-02  0.1157E-01  0.5401E-02  0.5525E-01  0.3333E-02  0.5525E-01  0.3333E-02  0.1052E+00  0.2260E-02  0.5525E-01  0.3333E-02  0.1052E+00  0.2260E-02
      1.469  0.8139E-01  0.5312E-01  0.1539E-01  0.8746E-02  0.1539E-01  0.8746E-02  0.1539E-01  0.8746E-02  0.6053E-01  0.5155E-02  0.6053E-01  0.5155E-02  0.1498E+00  0.4306E-02  0.6053E-01  0.5155E-02  0.1498E+00  0.4306E-02
      1.635  0.7965E-01  0.5603E-01  0.2060E-01  0.9747E-02  0.2060E-01  0.9747E-02  0.2060E-01  0.9747E-02  0.6691E-01  0.6059E-02  0.6691E-01  0.6059E-02  0.2216E+00  0.5978E-02  0.6691E-01  0.6059E-02  0.2216E+00  0.5978E-02
      1.802  0.6236E-01  0.5264E-01  0.2094E-01  0.9270E-02  0.2094E-01  0.9270E-02  0.2094E-01  0.9270E-02  0.6954E-01  0.8021E-02  0.6954E-01  0.8021E-02  0.2265E+00  0.6889E-02  0.6954E-01  0.8021E-02  0.2265E+00  0.6889E-02
      1.969  0.3992E-01  0.5810E-01  0.1448E-01  0.1028E-01  0.1448E-01  0.1028E-01  0.1448E-01  0.1028E-01  0.7352E-01  0.1271E-01  0.7352E-01  0.1271E-01  0.1510E+00  0.8395E-02  0.7352E-01  0.1271E-01  0.1510E+00  0.8395E-02
      2.136  0.1920E-01  0.6190E-01  0.9229E-02  0.1008E-01  0.9229E-02  0.1008E-01  0.9229E-02  0.1008E-01  0.6212E-01  0.2002E-01  0.6212E-01  0.2002E-01  0.1013E+00  0.1449E-01  0.6212E-01  0.2002E-01  0.1013E+00  0.1449E-01
      2.303  0.9937E-02  0.7389E-01  0.8873E-02  0.1251E-01  0.8873E-02  0.1251E-01  0.8873E-02  0.1251E-01  0.5469E-01  0.3110E-01  0.5469E-01  0.3110E-01  0.9321E-01  0.2586E-01  0.5469E-01  0.3110E-01  0.9321E-01  0.2586E-01
      2.470  0.2977E-02  0.8535E-01  0.1590E-01  0.1521E-01  0.1590E-01  0.1521E-01  0.1590E-01  0.1521E-01  0.1960E+00  0.4119E-01  0.1960E+00  0.4119E-01  0.1191E+00  0.3368E-01  0.1960E+00  0.4119E-01  0.1191E+00  0.3368E-01
      2.637  0.3298E-02  0.6450E-01  0.2221E-01  0.1182E-01  0.2221E-01  0.1182E-01  0.2221E-01  0.1182E-01  0.3403E+00  0.3917E-01  0.3403E+00  0.3917E-01  0.1601E+00  0.2906E-01  0.3403E+00  0.3917E-01  0.1601E+00  0.2906E-01
      2.804  0.5916E-02  0.6043E-01  0.1622E-01  0.1386E-01  0.1622E-01  0.1386E-01  0.1622E-01  0.1386E-01  0.2695E+00  0.4125E-01  0.2695E+00  0.4125E-01  0.1282E+00  0.3983E-01  0.2695E+00  0.4125E-01  0.1282E+00  0.3983E-01
      2.970  0.9211E-02  0.5857E-01  0.1779E-01  0.1644E-01  0.1779E-01  0.1644E-01  0.1779E-01  0.1644E-01  0.2233E+00  0.4259E-01  0.2233E+00  0.4259E-01  0.1028E+00  0.7493E-01  0.2233E+00  0.4259E-01  0.1028E+00  0.7493E-01
      3.137  0.1289E-01  0.5049E-01  0.2602E-01  0.1865E-01  0.2602E-01  0.1865E-01  0.2602E-01  0.1865E-01  0.2461E+00  0.4651E-01  0.2461E+00  0.4651E-01  0.1061E+00  0.1209E+00  0.2461E+00  0.4651E-01  0.1061E+00  0.1209E+00
      3.304  0.1890E-01  0.4225E-01  0.3424E-01  0.1956E-01  0.3424E-01  0.1956E-01  0.3424E-01  0.1956E-01  0.3111E+00  0.4861E-01  0.3111E+00  0.4861E-01  0.1303E+00  0.1527E+00  0.3111E+00  0.4861E-01  0.1303E+00  0.1527E+00
      3.471  0.1848E-01  0.2920E-01  0.3056E-01  0.1578E-01  0.3056E-01  0.1578E-01  0.3056E-01  0.1578E-01  0.2997E+00  0.5181E-01  0.2997E+00  0.5181E-01  0.1263E+00  0.1252E+00  0.2997E+00  0.5181E-01  0.1263E+00  0.1252E+00