    2    2  100    2
  0.1173411E+02  0.2863035E-09  0.2863035E-09  0.2863035E-09  0.5000000E-15
  1.000000000000000E-004
  CAR 
 unknown system                          
     16    120     20
 
  0.0000000E+00  0.0000000E+00  0.0000000E+00  0.2962963E-03
    1       -2.597103     -2.436211   1.000000   1.000000
    2        0.987353      2.801724   1.000000   1.000000
    3        0.987354      2.801864   1.000000   1.000000
    4        3.539581      5.439456   1.000000   1.007725
    5        3.539582      5.439589   1.000000   1.007742
    6        3.539582      5.439600   1.000000   1.007743
    7        4.752642      7.498871   1.000000  -0.000000
    8        4.752643      7.499035   1.000000  -0.000000
    9        5.965230      8.138858   0.071943  -0.000000
   10        5.965232      8.138982   0.071940  -0.000000
   11        5.965232      8.138994   0.071940  -0.000000
   12       15.797383     16.061871   0.000000   0.000000
   13       15.797383     16.061872   0.000000   0.000000
   14       15.797383     16.061874   0.000000   0.000000
   15       21.513884     22.564845   0.000000   0.000000
   16       21.513885     22.564858   0.000000   0.000000
   17       26.654051     27.753765   0.000000   0.000000
   18       30.889515     30.631215   0.000000   0.000000
   19       30.889515     30.631215   0.000000   0.000000
   20       30.889515     30.631215   0.000000   0.000000
 
  0.6666667E-01  0.1540744E-32  0.0000000E+00  0.1777778E-02
    1       -2.504566     -2.343283   1.000000   1.000000
    2        1.026829      2.835039   1.000000   1.000000
    3        1.028542      2.848650   1.000000   1.000000
    4        3.538801      5.435220   1.000000   1.007205
    5        3.538802      5.435364   1.000000   1.007223
    6        3.564932      5.467516   1.000000   1.011880
    7        4.711332      7.445024   1.000000  -0.000000
    8        4.768995      7.519671   1.000000  -0.000000
    9        5.886842      8.035333   0.313772  -0.000000
   10        5.886844      8.035468   0.313766  -0.000000
   11        5.937618      8.107948   0.140947  -0.000000
   12       15.126434     15.507666   0.000000   0.000000
   13       15.972870     16.263202   0.000000   0.000000
   14       15.972870     16.263203   0.000000   0.000000
   15       21.540492     22.583293   0.000000   0.000000
   16       22.020417     22.973023   0.000000   0.000000
   17       26.954093     28.038967   0.000000   0.000000
   18       30.255757     30.080044   0.000000   0.000000
   19       30.808549     30.590183   0.000000   0.000000
   20       30.808549     30.590184   0.000000   0.000000
 
  0.1333333E+00  0.0000000E+00  0.0000000E+00  0.1777778E-02
    1       -2.230618     -2.067572   1.000000   1.000000
    2        1.143889      2.922955   1.000000   1.000000
    3        1.144604      2.987979   1.000000   1.000000
    4        3.539126      5.425886   1.000000   1.006155
    5        3.539127      5.426028   1.000000   1.006170
    6        3.640034      5.550285   1.000000   1.029543
    7        4.588976      7.285653   1.000000  -0.000000
    8        4.816904      7.579021   1.000000  -0.000000
    9        5.671258      7.757825   1.002087  -0.000000
   10        5.671260      7.757957   1.002086  -0.000000
   11        5.856151      8.016419   0.438486  -0.000000
   12       13.653316     14.237565   0.000000   0.000000
   13       16.478931     16.833270   0.000000   0.000000
   14       16.478931     16.833273   0.000000   0.000000
   15       21.621919     22.640247   0.000000   0.000000
   16       22.901417     23.722688   0.000000   0.000000
   17       27.962685     28.941022   0.000000   0.000000
   18       28.989377     28.991093   0.000000   0.000000
   19       30.448912     30.374515   0.000000   0.000000
   20       30.448912     30.374518   0.000000   0.000000
 
  0.2000000E+00 -0.6162976E-32  0.0000000E+00  0.1777778E-02
    1       -1.787020     -1.618664   1.000000   1.000000
    2        1.312409      3.028854   1.000000   1.000000
    3        1.334339      3.215546   1.000000   1.000000
    4        3.547875      5.420695   1.000000   1.005624
    5        3.547876      5.420837   1.000000   1.005638
    6        3.762023      5.684834   1.000000   0.985754
    7        4.390322      7.027633   1.000000  -0.000000
    8        4.894064      7.378408   1.000000  -0.000000
    9        5.364892      7.378539   1.001919  -0.000000
   10        5.364894      7.669812   1.001919  -0.000000
   11        5.724742      7.868896   0.912770  -0.000000
   12       11.963352     12.759696   0.000000   0.000000
   13       17.266222     17.696819   0.000000   0.000000
   14       17.266222     17.696823   0.000000   0.000000
   15       21.762924     22.740478   0.000000   0.000000
   16       23.541505     24.283064   0.000000   0.000000
   17       27.663737     27.735249   0.000000   0.000000
   18       29.607491     29.773256   0.000000   0.000000
   19       29.607492     29.773262   0.000000   0.000000
   20       29.738406     30.676041   0.000000   0.000000
 
  0.2666667E+00  0.0000000E+00  0.0000000E+00  0.1777778E-02
    1       -1.196172     -1.013774   1.000000   1.000000
    2        1.491684      3.088012   1.000000   1.000000
    3        1.591118      3.524089   1.000000   1.000000
    4        3.575653      5.433014   1.000000   1.006945
    5        3.575654      5.433154   1.000000   1.006962
    6        3.926184      5.866100   1.000000   0.397064
    7        4.123458      6.682647   1.000000  -0.000000
    8        5.001005      6.966547   1.000000  -0.000000
    9        5.018924      6.966677   1.000000  -0.000000
   10        5.018925      7.672670   1.000000  -0.000000
   11        5.549724      7.782623   1.029425  -0.000000
   12       10.293707     11.337818  -0.000000   0.000000
   13       18.278493     18.778850   0.000000   0.000000
   14       18.278494     18.778854   0.000000   0.000000
   15       21.971271     22.891914   0.000000   0.000000
   16       23.962390     24.636764   0.000000   0.000000
   17       26.446552     26.636642   0.000000   0.000000
   18       28.333185     28.714189   0.000000   0.000000
   19       28.333186     28.714195   0.000000   0.000000
   20       30.139104     30.559352   0.000000   0.000000
 
  0.3333333E+00  0.0000000E+00  0.0000000E+00  0.1777778E-02
    1       -0.497123     -0.280389   1.000000   1.000000
    2        1.622232      3.009590   1.000000   1.000000
    3        1.904346      3.903220   1.000000   1.000000
    4        3.634540      5.478027   1.000000   1.013760
    5        3.634541      5.478165   1.000000   1.013786
    6        3.799995      6.087220   1.000000  -0.035456
    7        4.126106      6.267298   1.000000  -0.005162
    8        4.675185      6.571614   1.000000  -0.000002
    9        4.675186      6.571744   1.000000  -0.000002
   10        5.149625      7.437249   1.000006  -0.000000
   11        5.339414      7.911128   1.001103  -0.000000
   12        8.758196     10.121831  -0.000000  -0.000000
   13       19.466508     20.021759   0.000000   0.000000
   14       19.466509     20.021762   0.000000   0.000000
   15       22.257759     23.105798   0.000000   0.000000
   16       24.341619     24.943579   0.000000   0.000000
   17       25.382571     25.693107   0.000000   0.000000
   18       26.842030     27.354122   0.000000   0.000000
   19       26.842030     27.354128   0.000000   0.000000
   20       28.641146     29.050596   0.000000   0.000000
 
  0.4000000E+00  0.0000000E+00  0.0000000E+00  0.1777778E-02
    1        0.243330      0.538648   1.000000   1.000000
    2        1.621920      2.702084   1.000000   1.000000
    3        2.261350      4.339180   1.000000   1.000000
    4        3.434532      5.570069   1.000000   1.033206
    5        3.735855      5.570206   1.000000   1.033227
    6        3.735856      5.802052   1.000000   0.663648
    7        4.353728      6.223544   1.000000  -0.010580
    8        4.362373      6.223675   1.000000  -0.010559
    9        4.362374      6.339431   1.000000  -0.001214
   10        5.103632      7.173809   1.000001  -0.000000
   11        5.378604      8.062283   1.002544  -0.000000
   12        7.445343      9.208707  -0.000000  -0.000000
   13       20.791091     21.383697   0.000000   0.000000
   14       20.791091     21.383699   0.000000   0.000000
   15       22.635837     23.396520   0.000000   0.000000
   16       24.479426     24.910886   0.000000   0.000000
   17       24.805004     25.335096   0.000000   0.000000
   18       25.282009     25.862176   0.000000   0.000000
   19       25.282010     25.862180   0.000000   0.000000
   20       27.341974     27.751266   0.000000   0.000000
 
  0.4666667E+00 -0.1232595E-31  0.0000000E+00  0.1777778E-02
    1        0.918555      1.376562   1.000000   1.000000
    2        1.400754      2.135457   1.000000   1.000000
    3        2.646954      4.814811   1.000000   1.000000
    4        3.044110      5.309991   1.000000   1.000556
    5        3.888545      5.720900   1.000000   0.921512
    6        3.888546      5.721035   1.000000   0.921213
    7        4.097580      5.938125   1.000000   0.139509
    8        4.097581      5.938258   1.000000   0.139133
    9        4.599625      6.612437   1.000000  -0.000000
   10        4.853304      6.894687   1.000000  -0.000000
   11        5.770459      8.271517   0.780847  -0.000000
   12        6.437933      8.617224  -0.000103  -0.000000
   13       22.220779     22.832063   0.000000   0.000000
   14       22.220780     22.832063   0.000000   0.000000
   15       23.121012     23.781276   0.000000   0.000000
   16       23.727642     24.279451   0.000000   0.000000
   17       23.727642     24.336657   0.000000   0.000000
   18       23.730092     24.336660   0.000000   0.000000
   19       25.431960     25.901382   0.000000   0.000000
   20       26.270603     26.698806   0.000000   0.000000
 
  0.6666667E-01  0.6666667E-01  0.0000000E+00  0.3555556E-02
    1       -2.412740     -2.250964   1.000000   1.000000
    2        1.065522      2.876668   1.000000   1.000000
    3        1.069857      2.886435   1.000000   1.000000
    4        3.489294      5.378987   1.000000   1.002563
    5        3.535575      5.428521   1.000000   1.006438
    6        3.638762      5.547462   1.000000   1.028943
    7        4.703068      7.432781   1.000000  -0.000000
    8        4.756730      7.503554   1.000000  -0.000000
    9        5.747258      7.866079   0.854081  -0.000000
   10        5.808548      7.932269   0.637637  -0.000000
   11        5.976768      8.151847   0.048791  -0.000000
   12       15.144053     15.565307   0.000000   0.000000
   13       15.440505     15.832536   0.000000   0.000000
   14       16.142974     16.455680   0.000000   0.000000
   15       21.801466     22.790495   0.000000   0.000000
   16       22.335813     23.232216   0.000000   0.000000
   17       27.229174     28.303085   0.000000   0.000000
   18       29.693955     29.620264   0.000000   0.000000
   19       30.613159     30.414114   0.000000   0.000000
   20       30.758571     30.568820   0.000000   0.000000
 
  0.1333333E+00  0.6666667E-01  0.0000000E+00  0.7111111E-02
    1       -2.141013     -1.977104   1.000000   1.000000
    2        1.177177      2.968570   1.000000   1.000000
    3        1.189158      3.019369   1.000000   1.000000
    4        3.449830      5.327963   1.000000   1.000850
    5        3.528602      5.411882   1.000000   1.004807
    6        3.752825      5.671434   1.000000   1.001901
    7        4.602495      7.298768   1.000000  -0.000000
    8        4.795909      7.551625   1.000000  -0.000000
    9        5.493761      7.553844   1.016880  -0.000000
   10        5.594063      7.657775   1.035433  -0.000000
   11        5.947575      8.117166   0.113858  -0.000000
   12       13.771282     14.379389   0.000000   0.000000
   13       15.801420     16.270410   0.000000   0.000000
   14       16.635108     17.004181   0.000000   0.000000
   15       21.970304     22.919790   0.000000   0.000000
   16       23.238141     24.009810   0.000000   0.000000
   17       28.169840     28.483357   0.000000   0.000000
   18       28.418218     29.196917   0.000000   0.000000
   19       30.157910     30.080705   0.000000   0.000000
   20       30.477925     30.407074   0.000000   0.000000
 
  0.2000000E+00  0.6666667E-01  0.0000000E+00  0.7111111E-02
    1       -1.701617     -1.531552   1.000000   1.000000
    2        1.346809      3.075326   1.000000   1.000000
    3        1.373365      3.240504   1.000000   1.000000
    4        3.432413      5.296569   1.000000   1.000400
    5        3.524222      5.394525   1.000000   1.003479
    6        3.899456      5.831196   1.000000   0.543834
    7        4.424981      7.061105   1.000000  -0.000000
    8        4.874573      7.169074   1.000000  -0.000000
    9        5.174989      7.288390   1.000013  -0.000000
   10        5.292218      7.644924   1.000359  -0.000000
   11        5.847122      8.001158   0.476517  -0.000000
   12       12.078374     12.891887   0.000000   0.000000
   13       16.522939     17.069907   0.000000   0.000000
   14       17.404558     17.842472   0.000000   0.000000
   15       22.148887     23.051973   0.000000   0.000000
   16       23.968778     24.660807   0.000000   0.000000
   17       27.024168     27.217871   0.000000   0.000000
   18       29.270365     29.386396   0.000000   0.000000
   19       29.694053     29.857285   0.000000   0.000000
   20       29.876432     30.818149   0.000000   0.000000
 
  0.2666667E+00  0.6666667E-01  0.0000000E+00  0.7111111E-02
    1       -1.117708     -0.931846   1.000000   1.000000
    2        1.527563      3.133377   1.000000   1.000000
    3        1.620696      3.539095   1.000000   1.000000
    4        3.442775      5.292182   1.000000   1.000358
    5        3.524299      5.386726   1.000000   1.002990
    6        4.078594      6.027363   1.000000  -0.016099
    7        4.197493      6.746400   1.000000  -0.000000
    8        4.829205      6.763380   1.000000  -0.000000
    9        4.957482      6.899639   1.000000  -0.000000
   10        4.983174      7.761397   1.000000  -0.000000
   11        5.690729      7.823046   0.977387  -0.000000
   12       10.401997     11.454059  -0.000000   0.000000
   13       17.439909     18.056774   0.000000   0.000000
   14       18.398989     18.901458   0.000000   0.000000
   15       22.399365     23.240058   0.000000   0.000000
   16       24.475856     25.105822   0.000000   0.000000
   17       25.683793     26.007681   0.000000   0.000000
   18       28.061394     28.327946   0.000000   0.000000
   19       28.424847     28.809163   0.000000   0.000000
   20       31.202161     31.608816   0.000000   0.000000
 
  0.3333333E+00  0.6666667E-01  0.0000000E+00  0.7111111E-02
    1       -0.429406     -0.205899   1.000000   1.000000
    2        1.655494      3.051016   1.000000   1.000000
    3        1.923093      3.903002   1.000000   1.000000
    4        3.489431      5.325795   1.000000   1.000808
    5        3.495397      5.389708   1.000000   1.003170
    6        3.977234      6.256753   1.000000  -0.006208
    7        4.287058      6.377689   1.000000  -0.000498
    8        4.490787      6.385585   1.000000  -0.000410
    9        4.636067      6.547093   1.000000  -0.000004
   10        5.133680      7.598656   1.000003  -0.000000
   11        5.492015      7.893393   1.016517  -0.000000
   12        8.854943     10.212607  -0.000000  -0.000000
   13       18.491892     19.160795   0.000000   0.000000
   14       19.571340     20.125718   0.000000   0.000000
   15       22.743728     23.505835   0.000000   0.000000
   16       24.419579     24.874696   0.000000   0.000000
   17       24.944660     25.511073   0.000000   0.000000
   18       26.782324     27.133378   0.000000   0.000000
   19       26.924940     27.440184   0.000000   0.000000
   20       29.720683     30.143766   0.000000   0.000000
 
  0.4000000E+00  0.6666667E-01  0.0000000E+00  0.7111111E-02
    1        0.295828      0.603126   1.000000   1.000000
    2        1.649695      2.740296   1.000000   1.000000
    3        2.266039      4.314862   1.000000   1.000000
    4        3.317689      5.358382   1.000000   1.001672
    5        3.581380      5.409163   1.000000   1.004575
    6        3.905140      6.038883   1.000000  -0.023676
    7        4.185024      6.056391   1.000000  -0.031207
    8        4.361080      6.260169   1.000000  -0.005852
    9        4.518818      6.512869   1.000000  -0.000011
   10        5.263602      7.342201   1.000171  -0.000000
   11        5.369508      8.049290   1.002112  -0.000000
   12        7.521500      9.264029  -0.000000  -0.000000
   13       19.629449     20.326718   0.000000   0.000000
   14       20.883359     21.473803   0.000000   0.000000
   15       23.205852     23.779003   0.000000   0.000000
   16       23.205950     23.875975   0.000000   0.000000
   17       25.359789     25.940730   0.000000   0.000000
   18       25.510789     26.013848   0.000000   0.000000
   19       25.603222     26.018478   0.000000   0.000000
   20       28.372607     28.802634   0.000000   0.000000
 
  0.4666667E+00  0.6666667E-01  0.0000000E+00  0.7111111E-02
    1        0.954214      1.429141   1.000000   1.000000
    2        1.426729      2.177500   1.000000   1.000000
    3        2.631879      4.747239   1.000000   1.000000
    4        2.996899      5.141291   1.000000   1.000004
    5        3.726090      5.552362   1.000000   1.029975
    6        3.927600      5.761837   1.000000   0.809491
    7        3.989896      5.939311   1.000000   0.136168
    8        4.146825      6.046947   1.000000  -0.027697
    9        4.765605      6.786636   1.000000  -0.000000
   10        5.017547      7.067165   1.000000  -0.000000
   11        5.781492      8.269090   0.741942  -0.000000
   12        6.482349      8.637494  -0.000029  -0.000000
   13       20.811752     21.507600   0.000000   0.000000
   14       22.008214     22.664599   0.000000   0.000000
   15       22.303986     22.913066   0.000000   0.000000
   16       23.805805     24.388191   0.000000   0.000000
   17       23.816073     24.413648   0.000000   0.000000
   18       24.608073     25.089543   0.000000   0.000000
   19       26.252982     26.717109   0.000000   0.000000
   20       27.207078     27.647008   0.000000   0.000000
 
  0.1333333E+00  0.1333333E+00  0.0000000E+00  0.3555556E-02
    1       -1.876529     -1.709152   1.000000   1.000000
    2        1.272833      3.101707   1.000000   1.000000
    3        1.317259      3.102499   1.000000   1.000000
    4        3.348989      5.210481   1.000000   1.000038
    5        3.502583      5.375349   1.000000   1.002381
    6        3.925705      5.860324   1.000000   0.421031
    7        4.603183      7.191592   1.000000  -0.000000
    8        4.770214      7.284953   1.000000  -0.000000
    9        5.187032      7.396918   1.000019  -0.000000
   10        5.385540      7.519354   1.002921  -0.000000
   11        6.009540      8.188400   0.000448  -0.000000
   12       13.754077     14.425788   0.000000   0.000000
   13       14.728400     15.380308   0.000000   0.000000
   14       17.090549     17.498330   0.000000   0.000000
   15       22.312449     23.196028   0.000000   0.000000
   16       24.238390     24.891349   0.000000   0.000000
   17       27.103314     27.331188   0.000000   0.000000
   18       28.902450     29.595112   0.000000   0.000000
   19       29.639931     29.912732   0.000000   0.000000
   20       30.451905     30.417336   0.000000   0.000000
 
  0.2000000E+00  0.1333333E+00  0.0000000E+00  0.7111111E-02
    1       -1.450762     -1.274150   1.000000   1.000000
    2        1.417909      3.199567   1.000000   1.000000
    3        1.511910      3.314319   1.000000   1.000000
    4        3.276047      5.119886   1.000000   1.000002
    5        3.471617      5.328585   1.000000   1.000862
    6        4.123046      6.075953   1.000000  -0.034996
    7        4.504769      6.784163   1.000000  -0.000000
    8        4.825164      7.062216   1.000000  -0.000000
    9        4.837838      7.137134   1.000000  -0.000000
   10        5.100754      7.583615   1.000001  -0.000000
   11        5.989827      8.164248   0.026535  -0.000000
   12       12.338374     13.184118   0.000000   0.000000
   13       15.080837     15.813271   0.000000   0.000000
   14       17.811671     18.269962   0.000000   0.000000
   15       22.532952     23.361578   0.000000   0.000000
   16       25.236719     25.805307   0.000000   0.000000
   17       25.614744     25.972309   0.000000   0.000000
   18       28.827035     28.883426   0.000000   0.000000
   19       29.930925     30.079493   0.000000   0.000000
   20       30.357439     31.308428   0.000000   0.000000
 
  0.2666667E+00  0.1333333E+00  0.0000000E+00  0.7111111E-02
    1       -0.889732     -0.690917   1.000000   1.000000
    2        1.579782      3.243310   1.000000   1.000000
    3        1.753649      3.593710   1.000000   1.000000
    4        3.239666      5.066798   1.000000   1.000000
    5        3.436955      5.281718   1.000000   1.000274
    6        4.341213      6.314794   1.000000  -0.002062
    7        4.353701      6.376415   1.000000  -0.000513
    8        4.481498      6.742295   1.000000  -0.000000
    9        4.802201      6.899808   1.000000  -0.000000
   10        4.933016      7.702599   1.000000  -0.000000
   11        5.896444      8.055223   0.277215  -0.000000
   12       10.675225     11.736881  -0.000000   0.000000
   13       15.872537     16.655357   0.000000   0.000000
   14       18.756336     19.265378   0.000000   0.000000
   15       22.775686     23.538288   0.000000   0.000000
   16       24.146527     24.619742   0.000000   0.000000
   17       25.977101     26.499342   0.000000   0.000000
   18       27.767261     27.928512   0.000000   0.000000
   19       28.696323     29.089954   0.000000   0.000000
   20       32.464298     33.330138   0.000000   0.000000
 
  0.3333333E+00  0.1333333E+00  0.0000000E+00  0.7111111E-02
    1       -0.237739      0.010911   1.000000   1.000000
    2        1.694009      3.142857   1.000000   1.000000
    3        2.031502      3.924746   1.000000   1.000000
    4        3.248070      5.061354   1.000000   1.000000
    5        3.370120      5.229974   1.000000   1.000067
    6        4.145665      6.000087   1.000000   0.011874
    7        4.222986      6.502376   1.000000  -0.000015
    8        4.545111      6.573400   1.000000  -0.000001
    9        4.576495      6.634444   1.000000  -0.000000
   10        5.086619      7.842052   1.000001  -0.000000
   11        5.743680      7.879528   0.864248  -0.000000
   12        9.106711     10.441209  -0.000000  -0.000000
   13       16.813119     17.622602   0.000000   0.000000
   14       19.883763     20.436272   0.000000   0.000000
   15       22.743643     23.321340   0.000000   0.000000
   16       23.089555     23.772235   0.000000   0.000000
   17       26.626292     26.900468   0.000000   0.000000
   18       26.655247     27.110253   0.000000   0.000000
   19       27.168412     27.693626   0.000000   0.000000
   20       31.622712     32.034574   0.000000   0.000000
 
  0.4000000E+00  0.1333333E+00  0.0000000E+00  0.7111111E-02
    1        0.434878      0.786754   1.000000   1.000000
    2        1.676541      2.824827   1.000000   1.000000
    3        2.338124      4.285638   1.000000   1.000000
    4        3.215434      5.113281   1.000000   1.000002
    5        3.308940      5.137203   1.000000   1.000004
    6        3.850600      5.676533   1.000000   0.996213
    7        4.177652      6.361052   1.000000  -0.000741
    8        4.366447      6.408298   1.000000  -0.000230
    9        4.823315      6.846095   1.000000  -0.000000
   10        5.341763      7.655151   1.001163  -0.000000
   11        5.546402      8.010027   1.028714  -0.000000
   12        7.724364      9.407748  -0.000000  -0.000000
   13       17.852030     18.661930   0.000000   0.000000
   14       21.158757     21.743379   0.000000   0.000000
   15       21.413772     22.080419   0.000000   0.000000
   16       23.505761     24.097890   0.000000   0.000000
   17       25.588549     25.953222   0.000000   0.000000
   18       25.630763     26.171893   0.000000   0.000000
   19       27.335125     27.785336   0.000000   0.000000
   20       30.341137     30.750280   0.000000   0.000000
 
  0.4666667E+00  0.1333333E+00  0.0000000E+00  0.7111111E-02
    1        1.032218      1.571965   1.000000   1.000000
    2        1.461418      2.281379   1.000000   1.000000
    3        2.657662      4.642765   1.000000   1.000000
    4        2.963462      4.944316   1.000000   1.000000
    5        3.428357      5.230653   1.000000   1.000069
    6        3.609306      5.418264   1.000000   1.005389
    7        4.207671      6.292438   1.000000  -0.003231
    8        4.266034      6.293182   1.000000  -0.003185
    9        5.074002      7.124715   1.000000  -0.000000
   10        5.318842      7.398637   1.000687  -0.000000
   11        5.813527      8.259056   0.617377  -0.000000
   12        6.605546      8.690368  -0.000000  -0.000000
   13       18.968659     19.753427   0.000000   0.000000
   14       20.156066     20.892399   0.000000   0.000000
   15       22.551836     23.154722   0.000000   0.000000
   16       24.037250     24.551102   0.000000   0.000000
   17       24.053697     24.641675   0.000000   0.000000
   18       24.758225     25.164077   0.000000   0.000000
   19       28.178489     28.604309   0.000000   0.000000
   20       29.182412     29.595160   0.000000   0.000000
 
  0.2000000E+00  0.2000000E+00  0.0000000E+00  0.3555556E-02
    1       -1.051468     -0.858480   1.000000   1.000000
    2        1.514741      3.311175   1.000000   1.000000
    3        1.728500      3.477576   1.000000   1.000000
    4        3.146933      4.969286   1.000000   1.000000
    5        3.422015      5.248678   1.000000   1.000114
    6        4.367749      6.344907   1.000000  -0.001074
    7        4.470414      6.366131   1.000000  -0.000657
    8        4.559001      6.796432   1.000000  -0.000000
    9        4.795286      7.169753   1.000000  -0.000000
   10        4.853198      7.550872   1.000000  -0.000000
   11        6.058022      8.242501  -0.031693  -0.000000
   12       12.182596     13.064942   0.000000   0.000000
   13       14.091282     14.999382   0.000000   0.000000
   14       18.466169     18.953730   0.000000   0.000000
   15       22.752351     23.519148   0.000000   0.000000
   16       24.043094     24.521522   0.000000   0.000000
   17       26.684405     27.139588   0.000000   0.000000
   18       28.207309     28.269523   0.000000   0.000000
   19       30.110304     30.242045   0.000000   0.000000
   20       31.375564     32.317178   0.000000   0.000000
 
  0.2666667E+00  0.2000000E+00  0.0000000E+00  0.7111111E-02
    1       -0.536262     -0.306211   1.000000   1.000000
    2        1.610612      3.317983   1.000000   1.000000
    3        1.994780      3.740470   1.000000   1.000000
    4        3.059012      4.861748   1.000000   1.000000
    5        3.392011      5.175007   1.000000   1.000013
    6        4.110094      5.961467   1.000000   0.080218
    7        4.513750      6.587127   1.000000  -0.000001
    8        4.619542      6.626735   1.000000  -0.000000
    9        4.623625      7.068360   1.000000  -0.000000
   10        4.865045      7.627402   1.000000  -0.000000
   11        6.044893      8.225920  -0.026766  -0.000000
   12       10.918289     11.964744  -0.000000   0.000000
   13       14.397095     15.354614   0.000000   0.000000
   14       19.338630     19.858928   0.000000   0.000000
   15       22.499196     23.080031   0.000000   0.000000
   16       22.967021     23.661715   0.000000   0.000000
   17       27.362945     27.470689   0.000000   0.000000
   18       27.828126     28.228661   0.000000   0.000000
   19       29.137025     29.544183   0.000000   0.000000
   20       31.403682     31.965752   0.000000   0.000000
 
  0.3333333E+00  0.2000000E+00  0.0000000E+00  0.7111111E-02
    1        0.041614      0.349157   1.000000   1.000000
    2        1.659344      3.182843   1.000000   1.000000
    3        2.283723      4.046007   1.000000   1.000000
    4        3.021915      4.808797   1.000000   1.000000
    5        3.363461      5.109707   1.000000   1.000001
    6        3.781513      5.598052   1.000000   1.035450
    7        4.451953      6.493645   1.000000  -0.000020
    8        4.457870      6.899742   1.000000  -0.000000
    9        4.884341      6.914907   1.000000  -0.000000
   10        5.011991      7.764779   1.000000  -0.000000
   11        5.958367      8.124842   0.087301  -0.000000
   12        9.401302     10.684013  -0.000000  -0.000000
   13       15.187031     16.144173   0.000000   0.000000
   14       20.397431     20.948824   0.000000   0.000000
   15       21.033197     21.706161   0.000000   0.000000
   16       23.239865     23.849191   0.000000   0.000000
   17       26.422382     26.592056   0.000000   0.000000
   18       27.552000     28.097144   0.000000   0.000000
   19       28.713039     29.096032   0.000000   0.000000
   20       32.065080     32.527834   0.000000   0.000000
 
  0.4000000E+00  0.2000000E+00  0.0000000E+00  0.7111111E-02
    1        0.607132      1.059255   1.000000   1.000000
    2        1.607628      2.870034   1.000000   1.000000
    3        2.575343      4.361669   1.000000   1.000000
    4        3.043546      4.820033   1.000000   1.000000
    5        3.277971      5.027406   1.000000   1.000000
    6        3.502020      5.294140   1.000000   1.000376