<?xml version="1.0" encoding="ISO-8859-1"?>
<modeling>
 <generator>
  <i name="program" type="string">vasp </i>
  <i name="version" type="string">6.2.0  </i>
  <i name="subversion" type="string">18Jan21 (build Aug 12 2022 13:00:08) complex                          parallel </i>
  <i name="platform" type="string">LinuxIFC </i>
  <i name="date" type="string">2024 11 04 </i>
  <i name="time" type="string">07:13:26 </i>
 </generator>
 <incar>
  <i type="int" name="ISTART">     0</i>
  <i type="string" name="PREC">Accurate      (Accurate strictly avoids</i>
  <i type="logical" name="ADDGRID"> T  </i>
  <i type="int" name="ISPIN">     2</i>
  <i type="int" name="NELM">    90</i>
  <i type="int" name="NELMIN">     6</i>
  <i type="int" name="IBRION">     2</i>
  <i name="EDIFF">      0.00000100</i>
  <i name="EDIFFG">     -0.00200000</i>
  <i type="int" name="NSW">   100</i>
  <i type="int" name="ISIF">     3</i>
  <i type="int" name="ISYM">     2</i>
  <i name="ENCUT">    600.00000000</i>
  <v name="MAGMOM">      5.00000000      5.00000000</v>
  <i type="logical" name="LREAL"> F  </i>
  <i type="int" name="ISMEAR">     1</i>
  <i name="SIGMA">      0.20000000</i>
  <i type="int" name="LMAXMIX">     4</i>
  <i type="int" name="LORBIT">    11</i>
  <i type="logical" name="LASPH"> T  </i>
  <i type="logical" name="GGA_COMPAT"> F  </i>
  <i type="int" name="VOSKOWN">     1</i>
 </incar>
 <primitive_cell>
  <structure name="primitive_cell" >
   <crystal>
    <varray name="basis" >
     <v>       1.43151775       1.43151775      -1.43151775 </v>
     <v>      -1.43151775       1.43151775       1.43151775 </v>
     <v>       1.43151775      -1.43151775       1.43151775 </v>
    </varray>
    <i name="volume">     11.73411129 </i>
    <varray name="rec_basis" >
     <v>       0.34927964       0.34927964       0.00000000 </v>
     <v>       0.00000000       0.34927964       0.34927964 </v>
     <v>       0.34927964      -0.00000000       0.34927964 </v>
    </varray>
   </crystal>
   <varray name="positions" >
    <v>       0.00000000       0.00000000       0.00000000 </v>
   </varray>
  </structure>
  <varray name="primitive_index" >
   <v type="int" >        1 </v>
  </varray>
 </primitive_cell>
 <kpoints>
  <generation param="Monkhorst-Pack">
   <v type="int" name="divisions">      15       15       15 </v>
   <v name="usershift">      0.00000000       0.00000000       0.00000000 </v>
   <v name="genvec1">      0.06666667       0.00000000       0.00000000 </v>
   <v name="genvec2">      0.00000000       0.06666667       0.00000000 </v>
   <v name="genvec3">      0.00000000       0.00000000       0.06666667 </v>
   <v name="shift">      0.00000000       0.00000000       0.00000000 </v>
  </generation>
  <varray name="kpointlist" >
   <v>       0.00000000       0.00000000       0.00000000 </v>
   <v>       0.06666667       0.00000000       0.00000000 </v>
   <v>       0.13333333       0.00000000       0.00000000 </v>
   <v>       0.20000000      -0.00000000       0.00000000 </v>
   <v>       0.26666667       0.00000000       0.00000000 </v>
   <v>       0.33333333       0.00000000       0.00000000 </v>
   <v>       0.40000000       0.00000000       0.00000000 </v>
   <v>       0.46666667      -0.00000000       0.00000000 </v>
   <v>       0.06666667       0.06666667       0.00000000 </v>
   <v>       0.13333333       0.06666667       0.00000000 </v>
   <v>       0.20000000       0.06666667       0.00000000 </v>
   <v>       0.26666667       0.06666667       0.00000000 </v>
   <v>       0.33333333       0.06666667       0.00000000 </v>
   <v>       0.40000000       0.06666667       0.00000000 </v>
   <v>       0.46666667       0.06666667       0.00000000 </v>
   <v>       0.13333333       0.13333333       0.00000000 </v>
   <v>       0.20000000       0.13333333       0.00000000 </v>
   <v>       0.26666667       0.13333333       0.00000000 </v>
   <v>       0.33333333       0.13333333       0.00000000 </v>
   <v>       0.40000000       0.13333333       0.00000000 </v>
   <v>       0.46666667       0.13333333       0.00000000 </v>
   <v>       0.20000000       0.20000000       0.00000000 </v>
   <v>       0.26666667       0.20000000       0.00000000 </v>
   <v>       0.33333333       0.20000000       0.00000000 </v>
   <v>       0.40000000       0.20000000       0.00000000 </v>
   <v>       0.46666667       0.20000000       0.00000000 </v>
   <v>       0.26666667       0.26666667       0.00000000 </v>
   <v>       0.33333333       0.26666667       0.00000000 </v>
   <v>       0.40000000       0.26666667       0.00000000 </v>
   <v>       0.46666667       0.26666667       0.00000000 </v>
   <v>       0.33333333       0.33333333       0.00000000 </v>
   <v>       0.40000000       0.33333333       0.00000000 </v>
   <v>       0.46666667       0.33333333       0.00000000 </v>
   <v>       0.40000000       0.40000000       0.00000000 </v>
   <v>       0.46666667       0.40000000       0.00000000 </v>
   <v>       0.46666667       0.46666667       0.00000000 </v>
   <v>       0.06666667       0.06666667       0.06666667 </v>
   <v>       0.13333333       0.06666667       0.06666667 </v>
   <v>       0.20000000       0.06666667       0.06666667 </v>
   <v>       0.26666667       0.06666667       0.06666667 </v>
   <v>       0.33333333       0.06666667       0.06666667 </v>
   <v>       0.40000000       0.06666667       0.06666667 </v>
   <v>       0.46666667       0.06666667       0.06666667 </v>
   <v>       0.13333333       0.13333333       0.06666667 </v>
   <v>       0.20000000       0.13333333       0.06666667 </v>
   <v>       0.26666667       0.13333333       0.06666667 </v>
   <v>       0.33333333       0.13333333       0.06666667 </v>
   <v>       0.40000000       0.13333333       0.06666667 </v>
   <v>       0.46666667       0.13333333       0.06666667 </v>
   <v>       0.20000000       0.20000000       0.06666667 </v>
   <v>       0.26666667       0.20000000       0.06666667 </v>
   <v>       0.33333333       0.20000000       0.06666667 </v>
   <v>       0.40000000       0.20000000       0.06666667 </v>
   <v>       0.46666667       0.20000000       0.06666667 </v>
   <v>       0.26666667       0.26666667       0.06666667 </v>
   <v>       0.33333333       0.26666667       0.06666667 </v>
   <v>       0.40000000       0.26666667       0.06666667 </v>
   <v>       0.46666667       0.26666667       0.06666667 </v>
   <v>       0.33333333       0.33333333       0.06666667 </v>
   <v>       0.40000000       0.33333333       0.06666667 </v>
   <v>       0.46666667       0.33333333       0.06666667 </v>
   <v>       0.40000000       0.40000000       0.06666667 </v>
   <v>       0.46666667       0.40000000       0.06666667 </v>
   <v>       0.46666667       0.46666667       0.06666667 </v>
   <v>       0.13333333       0.13333333       0.13333333 </v>
   <v>       0.20000000       0.13333333       0.13333333 </v>
   <v>       0.26666667       0.13333333       0.13333333 </v>
   <v>       0.33333333       0.13333333       0.13333333 </v>
   <v>       0.40000000       0.13333333       0.13333333 </v>
   <v>       0.46666667       0.13333333       0.13333333 </v>
   <v>       0.20000000       0.20000000       0.13333333 </v>
   <v>       0.26666667       0.20000000       0.13333333 </v>
   <v>       0.33333333       0.20000000       0.13333333 </v>
   <v>       0.40000000       0.20000000       0.13333333 </v>
   <v>       0.46666667       0.20000000       0.13333333 </v>
   <v>       0.26666667       0.26666667       0.13333333 </v>
   <v>       0.33333333       0.26666667       0.13333333 </v>
   <v>       0.40000000       0.26666667       0.13333333 </v>
   <v>       0.46666667       0.26666667       0.13333333 </v>
   <v>       0.33333333       0.33333333       0.13333333 </v>
   <v>       0.40000000       0.33333333       0.13333333 </v>
   <v>       0.46666667       0.33333333       0.13333333 </v>
   <v>       0.40000000       0.40000000       0.13333333 </v>
   <v>       0.46666667       0.40000000       0.13333333 </v>
   <v>       0.46666667       0.46666667       0.13333333 </v>
   <v>       0.20000000       0.20000000       0.20000000 </v>
   <v>       0.26666667       0.20000000       0.20000000 </v>
   <v>       0.33333333       0.20000000       0.20000000 </v>
   <v>       0.40000000       0.20000000       0.20000000 </v>
   <v>       0.46666667       0.20000000       0.20000000 </v>
   <v>       0.26666667       0.26666667       0.20000000 </v>
   <v>       0.33333333       0.26666667       0.20000000 </v>
   <v>       0.40000000       0.26666667       0.20000000 </v>
   <v>       0.46666667       0.26666667       0.20000000 </v>
   <v>       0.33333333       0.33333333       0.20000000 </v>
   <v>       0.40000000       0.33333333       0.20000000 </v>
   <v>       0.46666667       0.33333333       0.20000000 </v>
   <v>       0.40000000       0.40000000       0.20000000 </v>
   <v>       0.46666667       0.40000000       0.20000000 </v>
   <v>       0.46666667       0.46666667       0.20000000 </v>
   <v>       0.26666667       0.26666667       0.26666667 </v>
   <v>       0.33333333       0.26666667       0.26666667 </v>
   <v>       0.40000000       0.26666667       0.26666667 </v>
   <v>       0.46666667       0.26666667       0.26666667 </v>
   <v>       0.33333333       0.33333333       0.26666667 </v>
   <v>       0.40000000       0.33333333       0.26666667 </v>
   <v>       0.46666667       0.33333333       0.26666667 </v>
   <v>       0.40000000       0.40000000       0.26666667 </v>
   <v>       0.46666667       0.40000000       0.26666667 </v>
   <v>       0.46666667       0.46666667       0.26666667 </v>
   <v>       0.33333333       0.33333333       0.33333333 </v>
   <v>       0.40000000       0.33333333       0.33333333 </v>
   <v>       0.46666667       0.33333333       0.33333333 </v>
   <v>       0.40000000       0.40000000       0.33333333 </v>
   <v>       0.46666667       0.40000000       0.33333333 </v>
   <v>       0.46666667       0.46666667       0.33333333 </v>
   <v>       0.40000000       0.40000000       0.40000000 </v>
   <v>       0.46666667       0.40000000       0.40000000 </v>
   <v>       0.46666667       0.46666667       0.40000000 </v>
   <v>       0.46666667       0.46666667       0.46666667 </v>
  </varray>
  <varray name="weights" >
   <v>       0.00029630 </v>
   <v>       0.00177778 </v>
   <v>       0.00177778 </v>
   <v>       0.00177778 </v>
   <v>       0.00177778 </v>
   <v>       0.00177778 </v>
   <v>       0.00177778 </v>
   <v>       0.00177778 </v>
   <v>       0.00355556 </v>
   <v>       0.00711111 </v>
   <v>       0.00711111 </v>
   <v>       0.00711111 </v>
   <v>       0.00711111 </v>
   <v>       0.00711111 </v>
   <v>       0.00711111 </v>
   <v>       0.00355556 </v>
   <v>       0.00711111 </v>
   <v>       0.00711111 </v>
   <v>       0.00711111 </v>
   <v>       0.00711111 </v>
   <v>       0.00711111 </v>
   <v>       0.00355556 </v>
   <v>       0.00711111 </v>
   <v>       0.00711111 </v>
   <v>       0.00711111 </v>
   <v>       0.00711111 </v>
   <v>       0.00355556 </v>
   <v>       0.00711111 </v>
   <v>       0.00711111 </v>
   <v>       0.00711111 </v>
   <v>       0.00355556 </v>
   <v>       0.00711111 </v>
   <v>       0.00711111 </v>
   <v>       0.00355556 </v>
   <v>       0.00711111 </v>
   <v>       0.00355556 </v>
   <v>       0.00237037 </v>
   <v>       0.00711111 </v>
   <v>       0.00711111 </v>
   <v>       0.00711111 </v>
   <v>       0.00711111 </v>
   <v>       0.00711111 </v>
   <v>       0.00711111 </v>
   <v>       0.00711111 </v>
   <v>       0.01422222 </v>
   <v>       0.01422222 </v>
   <v>       0.01422222 </v>
   <v>       0.01422222 </v>
   <v>       0.01422222 </v>
   <v>       0.00711111 </v>
   <v>       0.01422222 </v>
   <v>       0.01422222 </v>
   <v>       0.01422222 </v>
   <v>       0.01422222 </v>
   <v>       0.00711111 </v>
   <v>       0.01422222 </v>
   <v>       0.01422222 </v>
   <v>       0.01422222 </v>
   <v>       0.00711111 </v>
   <v>       0.01422222 </v>
   <v>       0.01422222 </v>
   <v>       0.00711111 </v>
   <v>       0.01422222 </v>
   <v>       0.00711111 </v>
   <v>       0.00237037 </v>
   <v>       0.00711111 </v>
   <v>       0.00711111 </v>
   <v>       0.00711111 </v>
   <v>       0.00711111 </v>
   <v>       0.00711111 </v>
   <v>       0.00711111 </v>
   <v>       0.01422222 </v>
   <v>       0.01422222 </v>
   <v>       0.01422222 </v>
   <v>       0.01422222 </v>
   <v>       0.00711111 </v>
   <v>       0.01422222 </v>
   <v>       0.01422222 </v>
   <v>       0.01422222 </v>
   <v>       0.00711111 </v>
   <v>       0.01422222 </v>
   <v>       0.01422222 </v>
   <v>       0.00711111 </v>
   <v>       0.01422222 </v>
   <v>       0.00711111 </v>
   <v>       0.00237037 </v>
   <v>       0.00711111 </v>
   <v>       0.00711111 </v>
   <v>       0.00711111 </v>
   <v>       0.00711111 </v>
   <v>       0.00711111 </v>
   <v>       0.01422222 </v>
   <v>       0.01422222 </v>
   <v>       0.01422222 </v>
   <v>       0.00711111 </v>
   <v>       0.01422222 </v>
   <v>       0.01422222 </v>
   <v>       0.00711111 </v>
   <v>       0.01422222 </v>
   <v>       0.00711111 </v>
   <v>       0.00237037 </v>
   <v>       0.00711111 </v>
   <v>       0.00711111 </v>
   <v>       0.00711111 </v>
   <v>       0.00711111 </v>
   <v>       0.01422222 </v>
   <v>       0.01422222 </v>
   <v>       0.00711111 </v>
   <v>       0.01422222 </v>
   <v>       0.00711111 </v>
   <v>       0.00237037 </v>
   <v>       0.00711111 </v>
   <v>       0.00711111 </v>
   <v>       0.00711111 </v>
   <v>       0.01422222 </v>
   <v>       0.00711111 </v>
   <v>       0.00237037 </v>
   <v>       0.00711111 </v>
   <v>       0.00711111 </v>
   <v>       0.00237037 </v>
  </varray>
 </kpoints>
 <parameters>
  <separator name="general" >
   <i type="string" name="SYSTEM">unknown system</i>
   <i type="logical" name="LCOMPAT"> F  </i>
  </separator>
  <separator name="electronic" >
   <i type="string" name="PREC">accura</i>
   <i name="ENMAX">    600.00000000</i>
   <i name="ENAUG">    511.36800000</i>
   <i name="EDIFF">      0.00000100</i>
   <i type="int" name="IALGO">    38</i>
   <i type="int" name="IWAVPR">    11</i>
   <i type="int" name="NBANDS">    20</i>
   <i type="int" name="NBANDSLOW">    -1</i>
   <i type="int" name="NBANDSHIGH">    -1</i>
   <i name="NELECT">     16.00000000</i>
   <i type="int" name="TURBO">     0</i>
   <i type="int" name="IRESTART">     0</i>
   <i type="int" name="NREBOOT">     0</i>
   <i type="int" name="NMIN">     0</i>
   <i name="EREF">      0.00000000</i>
   <separator name="electronic smearing" >
    <i type="int" name="ISMEAR">     1</i>
    <i name="SIGMA">      0.20000000</i>
    <i name="KSPACING">      0.50000000</i>
    <i type="logical" name="KGAMMA"> T  </i>
    <i type="logical" name="KBLOWUP"> T  </i>
   </separator>
   <separator name="electronic projectors" >
    <i type="logical" name="LREAL"> F  </i>
    <v name="ROPT">      0.00000000</v>
    <i type="int" name="LMAXPAW">  -100</i>
    <i type="int" name="LMAXMIX">     4</i>
    <i type="logical" name="NLSPLINE"> F  </i>
   </separator>
   <separator name="electronic startup" >
    <i type="int" name="ISTART">     0</i>
    <i type="int" name="ICHARG">     2</i>
    <i type="int" name="INIWAV">     1</i>
   </separator>
   <separator name="electronic spin" >
    <i type="int" name="ISPIN">     2</i>
    <i type="logical" name="LNONCOLLINEAR"> F  </i>
    <v name="MAGMOM">      5.00000000      5.00000000</v>
    <i name="NUPDOWN">     -1.00000000</i>
    <i type="logical" name="LSORBIT"> F  </i>
    <v name="SAXIS">      0.00000000      0.00000000      1.00000000</v>
    <i type="logical" name="LSPIRAL"> F  </i>
    <v name="QSPIRAL">      0.00000000      0.00000000      0.00000000</v>
    <i type="logical" name="LZEROZ"> F  </i>
   </separator>
   <separator name="electronic exchange-correlation" >
    <i type="logical" name="LASPH"> T  </i>
    <i type="logical" name="LMETAGGA"> F  </i>
   </separator>
   <separator name="electronic convergence" >
    <i type="int" name="NELM">    90</i>
    <i type="int" name="NELMDL">    -5</i>
    <i type="int" name="NELMIN">     6</i>
    <i name="ENINI">    600.00000000</i>
    <separator name="electronic convergence detail" >
     <i type="logical" name="LDIAG"> T  </i>
     <i type="logical" name="LSUBROT"> F  </i>
     <i name="WEIMIN">      0.00100000</i>
     <i name="EBREAK">      0.00000001</i>
     <i name="DEPER">      0.30000000</i>
     <i type="int" name="NRMM">     4</i>
     <i name="TIME">      0.40000000</i>
    </separator>
   </separator>
   <separator name="electronic mixer" >
    <i name="AMIX">      0.40000000</i>
    <i name="BMIX">      1.00000000</i>
    <i name="AMIN">      0.10000000</i>
    <i name="AMIX_MAG">      1.60000000</i>
    <i name="BMIX_MAG">      1.00000000</i>
    <separator name="electronic mixer details" >
     <i type="int" name="IMIX">     4</i>
     <i type="logical" name="MIXFIRST"> F  </i>
     <i type="int" name="MAXMIX">   -45</i>
     <i name="WC">    100.00000000</i>
     <i type="int" name="INIMIX">     1</i>
     <i type="int" name="MIXPRE">     1</i>
     <i type="int" name="MREMOVE">     5</i>
    </separator>
   </separator>
   <separator name="electronic dipolcorrection" >
    <i type="logical" name="LDIPOL"> F  </i>
    <i type="logical" name="LMONO"> F  </i>
    <i type="int" name="IDIPOL">     0</i>
    <i name="EPSILON">      1.00000000</i>
    <v name="DIPOL">   -100.00000000   -100.00000000   -100.00000000</v>
    <i name="EFIELD">      0.00000000</i>
   </separator>
  </separator>
  <separator name="grids" >
   <i type="int" name="NGX">    24</i>
   <i type="int" name="NGY">    24</i>
   <i type="int" name="NGZ">    24</i>
   <i type="int" name="NGXF">    48</i>
   <i type="int" name="NGYF">    48</i>
   <i type="int" name="NGZF">    48</i>
   <i type="logical" name="ADDGRID"> T  </i>
  </separator>
  <separator name="ionic" >
   <i type="int" name="NSW">   100</i>
   <i type="int" name="IBRION">     2</i>
   <i type="int" name="MDALGO">     0</i>
   <i type="int" name="ISIF">     3</i>
   <i name="PSTRESS">      0.00000000</i>
   <i name="EDIFFG">     -0.00200000</i>
   <i type="int" name="NFREE">     1</i>
   <i name="POTIM">      0.50000000</i>
   <i name="SMASS">     -3.00000000</i>
   <i name="SCALEE">      1.00000000</i>
  </separator>
  <separator name="ionic md" >
   <i name="TEBEG">      0.00010000</i>
   <i name="TEEND">      0.00010000</i>
   <i type="int" name="NBLOCK">     1</i>
   <i type="int" name="KBLOCK">   100</i>
   <i type="int" name="NPACO">   256</i>
   <i name="APACO">     16.00000000</i>
  </separator>
  <separator name="symmetry" >
   <i type="int" name="ISYM">     2</i>
   <i name="SYMPREC">      0.00001000</i>
  </separator>
  <separator name="dos" >
   <i type="int" name="LORBIT">    11</i>
   <v name="RWIGS">     -1.00000000</v>
   <i type="int" name="NEDOS">   301</i>
   <i name="EMIN">     10.00000000</i>
   <i name="EMAX">    -10.00000000</i>
   <i name="EFERMI">      0.00000000</i>
  </separator>
  <separator name="writing" >
   <i type="int" name="NWRITE">     2</i>
   <i type="logical" name="LWAVE"> T  </i>
   <i type="logical" name="LDOWNSAMPLE"> F  </i>
   <i type="logical" name="LCHARG"> T  </i>
   <i type="logical" name="LPARD"> F  </i>
   <i type="logical" name="LVTOT"> F  </i>
   <i type="logical" name="LVHAR"> F  </i>
   <i type="logical" name="LELF"> F  </i>
   <i type="logical" name="LOPTICS"> F  </i>
   <v name="STM">      0.00000000      0.00000000      0.00000000      0.00000000      0.00000000      0.00000000      0.00000000</v>
  </separator>
  <separator name="performance" >
   <i type="int" name="NPAR">     4</i>
   <i type="int" name="NSIM">     4</i>
   <i type="int" name="NBLK">    -1</i>
   <i type="logical" name="LPLANE"> T  </i>
   <i type="logical" name="LSCALAPACK"> T  </i>
   <i type="logical" name="LSCAAWARE"> F  </i>
   <i type="logical" name="LSCALU"> F  </i>
   <i type="logical" name="LASYNC"> F  </i>
   <i type="logical" name="LORBITALREAL"> F  </i>
  </separator>
  <separator name="miscellaneous" >
   <i type="int" name="IDIOT">     3</i>
   <i type="int" name="PHON_NSTRUCT">    -1</i>
   <i type="logical" name="LMUSIC"> F  </i>
   <v name="POMASS">     55.84700000</v>
   <v name="DARWINR">      0.00000000</v>
   <v name="DARWINV">      1.00000000</v>
   <i type="logical" name="LCORR"> T  </i>
  </separator>
  <i type="logical" name="GGA_COMPAT"> F  </i>
  <i type="logical" name="LBERRY"> F  </i>
  <i type="int" name="ICORELEVEL">     0</i>
  <i type="logical" name="LDAU"> F  </i>
  <i type="int" name="I_CONSTRAINED_M">     0</i>
  <separator name="electronic exchange-correlation" >
   <i type="string" name="GGA">--</i>
   <i type="int" name="VOSKOWN">     1</i>
   <i type="logical" name="LHFCALC"> F  </i>
   <i type="string" name="PRECFOCK"></i>
   <i type="logical" name="LSYMGRAD"> F  </i>
   <i type="logical" name="LHFONE"> F  </i>
   <i type="logical" name="LRHFCALC"> F  </i>
   <i type="logical" name="LTHOMAS"> F  </i>
   <i type="logical" name="LMODELHF"> F  </i>
   <i type="logical" name="LFOCKACE"> F  </i>
   <i name="ENCUT4O">     -1.00000000</i>
   <i type="int" name="EXXOEP">     0</i>
   <i type="int" name="FOURORBIT">     0</i>
   <i name="AEXX">      0.00000000</i>
   <i name="HFALPHA">      0.00000000</i>
   <i name="MCALPHA">      0.00000000</i>
   <i name="ALDAX">      1.00000000</i>
   <i name="AGGAX">      1.00000000</i>
   <i name="ALDAC">      1.00000000</i>
   <i name="AGGAC">      1.00000000</i>
   <i type="int" name="NKREDX">     1</i>
   <i type="int" name="NKREDY">     1</i>
   <i type="int" name="NKREDZ">     1</i>
   <i type="logical" name="SHIFTRED"> F  </i>
   <i type="logical" name="ODDONLY"> F  </i>
   <i type="logical" name="EVENONLY"> F  </i>
   <i type="int" name="LMAXFOCK">     0</i>
   <i type="int" name="NMAXFOCKAE">     0</i>
   <i type="logical" name="LFOCKAEDFT"> F  </i>
   <i name="HFSCREEN">      0.00000000</i>
   <i name="HFSCREENC">      0.00000000</i>
   <i type="int" name="NBANDSGWLOW">     0</i>
  </separator>
  <separator name="vdW DFT" >
   <i type="logical" name="LUSE_VDW"> F  </i>
   <i name="Zab_VDW">     -0.84910000</i>
   <i name="PARAM1">      0.12340000</i>
   <i name="PARAM2">      1.00000000</i>
   <i name="PARAM3">      0.00000000</i>
  </separator>
  <separator name="model GW" >
   <i type="int" name="MODEL_GW">     0</i>
   <i name="MODEL_EPS0">      7.04046678</i>
   <i name="MODEL_ALPHA">      1.00000000</i>
  </separator>
  <separator name="linear response parameters" >
   <i type="logical" name="LEPSILON"> F  </i>
   <i type="logical" name="LRPA"> F  </i>
   <i type="logical" name="LNABLA"> F  </i>
   <i type="logical" name="LVEL"> F  </i>
   <i type="int" name="KINTER">     0</i>
   <i name="CSHIFT">      0.10000000</i>
   <i name="OMEGAMAX">     -1.00000000</i>
   <i name="DEG_THRESHOLD">      0.00200000</i>
   <i name="RTIME">     -0.10000000</i>
   <i name="WPLASMAI">      0.00000000</i>
   <v name="DFIELD">      0.00000000      0.00000000      0.00000000</v>
   <v name="WPLASMA">      0.00000000      0.00000000      0.00000000      0.00000000      0.00000000      0.00000000      0.00000000      0.00000000      0.00000000</v>
  </separator>
  <separator name="orbital magnetization" >
   <i type="logical" name="NUCIND"> F  </i>
   <v name="MAGPOS">      0.00000000      0.00000000      0.00000000</v>
   <i type="logical" name="LNICSALL"> T  </i>
   <i type="logical" name="ORBITALMAG"> F  </i>
   <i type="logical" name="LMAGBLOCH"> F  </i>
   <i type="logical" name="LCHIMAG"> F  </i>
   <i type="logical" name="LGAUGE"> T  </i>
   <i type="int" name="MAGATOM">     0</i>
   <v name="MAGDIPOL">      0.00000000      0.00000000      0.00000000</v>
   <v name="AVECCONST">      0.00000000      0.00000000      0.00000000</v>
  </separator>
  <separator name="response functions" >
   <i type="logical" name="LFINITE_TEMPERATURE"> F  </i>
   <i type="logical" name="LADDER"> F  </i>
   <i type="logical" name="LRPAFORCE"> F  </i>
   <i type="logical" name="LFXC"> F  </i>
   <i type="logical" name="LHARTREE"> T  </i>
   <i type="int" name="IBSE">     0</i>
   <v type="int" name="KPOINT">    -1     0     0     0</v>
   <i type="logical" name="LTCTC"> F  </i>
   <i type="logical" name="LTCTE"> F  </i>
   <i type="logical" name="LTETE"> F  </i>
   <i type="logical" name="LTRIPLET"> F  </i>
   <i type="logical" name="LFXCEPS"> F  </i>
   <i type="logical" name="LFXHEG"> F  </i>
   <i type="int" name="NATURALO">     2</i>
   <i type="logical" name="LHOLEGF"> F  </i>
   <i type="logical" name="L2ORDER"> F  </i>
   <i type="logical" name="LDMP1"> F  </i>
   <i type="logical" name="LMP2LT"> F  </i>
   <i type="logical" name="LSMP2LT"> F  </i>
   <i type="logical" name="LGWLF"> F  </i>
   <i name="ENCUTGW">     -2.00000000</i>
   <i name="ENCUTGWSOFT">     -2.00000000</i>
   <i name="ENCUTLF">     -1.00000000</i>
   <i type="logical" name="LESF_SPLINES"> F  </i>
   <i type="int" name="LMAXMP2">    -1</i>
   <i name="SCISSOR">      0.00000000</i>
   <i type="int" name="NOMEGA">     0</i>
   <i type="int" name="NOMEGAR">     0</i>
   <i type="int" name="NBANDSGW">    -1</i>
   <i type="int" name="NBANDSO">    -1</i>
   <i type="int" name="NBANDSV">    -1</i>
   <i type="int" name="NELM">    90</i>
   <i type="int" name="NELMHF">     1</i>
   <i type="int" name="DIM">     3</i>
   <i type="int" name="IESPILON">     4</i>
   <i type="int" name="ANTIRES">     0</i>
   <i name="OMEGAMAX">    -30.00000000</i>
   <i name="OMEGAMIN">    -30.00000000</i>
   <i name="OMEGATL">   -200.00000000</i>
   <i type="int" name="OMEGAGRID">     0</i>
   <i name="CSHIFT">     -0.10000000</i>
   <i type="logical" name="LSELFENERGY"> F  </i>
   <i type="logical" name="LSPECTRAL"> F  </i>
   <i type="logical" name="LSPECTRALGW"> F  </i>
   <i type="logical" name="LSINGLES"> F  </i>
   <i type="logical" name="LFERMIGW"> F  </i>
   <i type="logical" name="ODDONLYGW"> F  </i>
   <i type="logical" name="EVENONLYGW"> F  </i>
   <i type="int" name="NKREDLFX">     1</i>
   <i type="int" name="NKREDLFY">     1</i>
   <i type="int" name="NKREDLFZ">     1</i>
   <i type="int" name="MAXMEM">  2800</i>
   <i type="int" name="TELESCOPE">     0</i>
   <i type="int" name="NTAUPAR">    -1</i>
   <i type="int" name="NOMEGAPAR">    -1</i>
   <i name="DAMP_NEWTON">      0.80000001</i>
   <i name="LAMBDA">      1.00000000</i>
  </separator>
  <separator name="External order field" >
   <i name="OFIELD_KAPPA">      0.00000000</i>
   <v name="OFIELD_K">      0.00000000      0.00000000      0.00000000</v>
   <i name="OFIELD_Q6_NEAR">      0.00000000</i>
   <i name="OFIELD_Q6_FAR">      0.00000000</i>
   <i name="OFIELD_A">      0.00000000</i>
  </separator>
 </parameters>
 <atominfo>
  <atoms>       2 </atoms>
  <types>       1 </types>
  <array name="atoms" >
   <dimension dim="1">ion</dimension>
   <field type="string">element</field>
   <field type="int">atomtype</field>
   <set>
    <rc><c>Fe</c><c>   1</c></rc>
    <rc><c>Fe</c><c>   1</c></rc>
   </set>
  </array>
  <array name="atomtypes" >
   <dimension dim="1">type</dimension>
   <field type="int">atomspertype</field>
   <field type="string">element</field>
   <field>mass</field>
   <field>valence</field>
   <field type="string">pseudopotential</field>
   <set>
    <rc><c>   2</c><c>Fe</c><c>     55.84700000</c><c>      8.00000000</c><c>  PAW_PBE Fe 06Sep2000                  </c></rc>
   </set>
  </array>
 </atominfo>
 <structure name="initialpos" >
  <crystal>
   <varray name="basis" >
    <v>       2.86303550       0.00000000       0.00000000 </v>
    <v>       0.00000000       2.86303550       0.00000000 </v>
    <v>       0.00000000       0.00000000       2.86303550 </v>
   </varray>
   <i name="volume">     23.46822259 </i>
   <varray name="rec_basis" >
    <v>       0.34927964      -0.00000000       0.00000000 </v>
    <v>       0.00000000       0.34927964       0.00000000 </v>
    <v>      -0.00000000      -0.00000000       0.34927964 </v>
   </varray>
  </crystal>
  <varray name="positions" >
   <v>       0.00000000       0.00000000       0.00000000 </v>
   <v>       0.50000000       0.50000000       0.50000000 </v>
  </varray>
 </structure>
 <calculation>
  <scstep>
   <time name="dav">    6.09    6.10</time>
   <time name="total">    7.79    7.80</time>
   <energy>
    <i name="alphaZ">    117.79976220 </i>
    <i name="ewald">  -1171.43779597 </i>
    <i name="hartreedc">   -228.04061712 </i>
    <i name="XCdc">     14.27161833 </i>
    <i name="pawpsdc">   1103.49540010 </i>
    <i name="pawaedc">  -1119.11610375 </i>
    <i name="eentropy">      0.00012966 </i>
    <i name="bandstr">    181.87617858 </i>
    <i name="atom">   1188.62725594 </i>
    <i name="e_fr_energy">     87.47582797 </i>
    <i name="e_wo_entrp">     87.47569832 </i>
    <i name="e_0_energy">     87.47578475 </i>
   </energy>
  </scstep>
  <scstep>
   <time name="dav">    5.81    5.83</time>
   <time name="total">    5.82    5.84</time>
   <energy>
    <i name="e_fr_energy">    -11.56915839 </i>
    <i name="e_wo_entrp">    -11.56752401 </i>
    <i name="e_0_energy">    -11.56861360 </i>
   </energy>
  </scstep>
  <scstep>
   <time name="dav">    6.31    6.33</time>
   <time name="total">    6.32    6.34</time>
   <energy>
    <i name="e_fr_energy">    -16.04590519 </i>
    <i name="e_wo_entrp">    -16.04727670 </i>
    <i name="e_0_energy">    -16.04636236 </i>
   </energy>
  </scstep>
  <scstep>
   <time name="dav">    6.17    6.19</time>
   <time name="total">    6.18    6.20</time>
   <energy>
    <i name="e_fr_energy">    -16.08558143 </i>
    <i name="e_wo_entrp">    -16.08692991 </i>
    <i name="e_0_energy">    -16.08603092 </i>
   </energy>
  </scstep>
  <scstep>
   <time name="dav">    6.28    6.30</time>
   <time name="total">    6.80    6.82</time>
   <energy>
    <i name="e_fr_energy">    -16.08601634 </i>
    <i name="e_wo_entrp">    -16.08736456 </i>
    <i name="e_0_energy">    -16.08646575 </i>
   </energy>
  </scstep>
  <scstep>
   <time name="dav">    6.23    6.24</time>
   <time name="total">    8.41    8.44</time>
   <energy>
    <i name="e_fr_energy">    -16.56114597 </i>
    <i name="e_wo_entrp">    -16.56088004 </i>
    <i name="e_0_energy">    -16.56105732 </i>
   </energy>
  </scstep>
  <scstep>
   <time name="dav">    6.57    6.57</time>
   <time name="total">    8.74    8.77</time>
   <energy>
    <i name="e_fr_energy">    -16.49762277 </i>
    <i name="e_wo_entrp">    -16.49542394 </i>
    <i name="e_0_energy">    -16.49688983 </i>
   </energy>
  </scstep>
  <scstep>
   <time name="dav">    7.13    7.14</time>
   <time name="total">    9.40    9.43</time>
   <energy>
    <i name="e_fr_energy">    -16.48028715 </i>
    <i name="e_wo_entrp">    -16.47778336 </i>
    <i name="e_0_energy">    -16.47945255 </i>
   </energy>
  </scstep>
  <scstep>
   <time name="dav">    7.82    7.83</time>
   <time name="total">    9.99   10.02</time>
   <energy>
    <i name="e_fr_energy">    -16.46843646 </i>
    <i name="e_wo_entrp">    -16.46557433 </i>
    <i name="e_0_energy">    -16.46748242 </i>
   </energy>
  </scstep>
  <scstep>
   <time name="dav">    6.65    6.65</time>
   <time name="total">    8.81    8.84</time>
   <energy>
    <i name="e_fr_energy">    -16.46795161 </i>
    <i name="e_wo_entrp">    -16.46517642 </i>
    <i name="e_0_energy">    -16.46702654 </i>
   </energy>
  </scstep>
  <scstep>
   <time name="dav">    6.71    6.72</time>
   <time name="total">    8.89    8.92</time>
   <energy>
    <i name="e_fr_energy">    -16.46797929 </i>
    <i name="e_wo_entrp">    -16.46520391 </i>
    <i name="e_0_energy">    -16.46705416 </i>
   </energy>
  </scstep>
  <scstep>
   <time name="dav">    5.88    5.88</time>
   <time name="total">    8.05    8.08</time>
   <energy>
    <i name="e_fr_energy">    -16.46796940 </i>
    <i name="e_wo_entrp">    -16.46519892 </i>
    <i name="e_0_energy">    -16.46704591 </i>
   </energy>
  </scstep>
  <scstep>
   <time name="dav">    5.08    5.08</time>
   <time name="total">    7.26    7.28</time>
   <energy>
    <i name="e_fr_energy">    -16.46797077 </i>
    <i name="e_wo_entrp">    -16.46519702 </i>
    <i name="e_0_energy">    -16.46704618 </i>
   </energy>
  </scstep>
  <scstep>
   <time name="dav">    4.08    4.08</time>
   <time name="total">    5.79    5.81</time>
   <energy>
    <i name="alphaZ">    117.79976220 </i>
    <i name="ewald">  -1171.43779597 </i>
    <i name="hartreedc">   -195.18390967 </i>
    <i name="XCdc">      8.52667666 </i>
    <i name="pawpsdc">   1412.02710767 </i>
    <i name="pawaedc">  -1429.92966631 </i>
    <i name="eentropy">     -0.00277428 </i>
    <i name="bandstr">     53.10537370 </i>
    <i name="atom">   1188.62725594 </i>
    <i name="e_fr_energy">    -16.46797006 </i>
    <i name="e_wo_entrp">    -16.46519578 </i>
    <i name="e_0_energy">    -16.46704530 </i>
   </energy>
  </scstep>
  <structure>
   <crystal>
    <varray name="basis" >
     <v>       2.86303550       0.00000000       0.00000000 </v>
     <v>       0.00000000       2.86303550       0.00000000 </v>
     <v>       0.00000000       0.00000000       2.86303550 </v>
    </varray>
    <i name="volume">     23.46822259 </i>
    <varray name="rec_basis" >
     <v>       0.34927964      -0.00000000       0.00000000 </v>
     <v>       0.00000000       0.34927964       0.00000000 </v>
     <v>      -0.00000000      -0.00000000       0.34927964 </v>
    </varray>
   </crystal>
   <varray name="positions" >
    <v>       0.00000000       0.00000000       0.00000000 </v>
    <v>       0.50000000       0.50000000       0.50000000 </v>
   </varray>
  </structure>
  <varray name="forces" >
   <v>       0.00000000      -0.00000000       0.00000000 </v>
   <v>      -0.00000000       0.00000000      -0.00000000 </v>
  </varray>
  <varray name="stress" >
   <v>     -60.56994668      -0.00000000       0.00000000 </v>
   <v>       0.00000000     -60.56994668      -0.00000000 </v>
   <v>      -0.00000000       0.00000000     -60.56994668 </v>
  </varray>
  <energy>
   <i name="e_fr_energy">    -16.46797006 </i>
   <i name="e_wo_entrp">    -16.46519578 </i>
   <i name="e_0_energy">    -16.46704530 </i>
  </energy>
  <time name="totalsc">  118.89  121.47</time>
 </calculation>
 <calculation>
  <scstep>
   <time name="dav">    6.17    6.21</time>
   <time name="total">    8.35    8.40</time>
   <energy>
    <i name="alphaZ">    125.69838943 </i>
    <i name="ewald">  -1197.05562582 </i>
    <i name="hartreedc">   -199.45356161 </i>
    <i name="XCdc">      9.79253072 </i>
    <i name="pawpsdc">   1411.99918992 </i>
    <i name="pawaedc">  -1429.90000115 </i>
    <i name="eentropy">     -0.00189707 </i>
    <i name="bandstr">     73.15082579 </i>
    <i name="atom">   1188.62725594 </i>
    <i name="e_fr_energy">    -17.14289386 </i>
    <i name="e_wo_entrp">    -17.14099678 </i>
    <i name="e_0_energy">    -17.14226150 </i>
   </energy>
  </scstep>
  <scstep>
   <time name="dav">    6.17    6.18</time>
   <time name="total">    8.35    8.39</time>
   <energy>
    <i name="e_fr_energy">    -16.51654639 </i>
    <i name="e_wo_entrp">    -16.51263812 </i>
    <i name="e_0_energy">    -16.51524364 </i>
   </energy>
  </scstep>
  <scstep>
   <time name="dav">    6.53    6.53</time>
   <time name="total">    8.72    8.75</time>
   <energy>
    <i name="e_fr_energy">    -16.48238049 </i>
    <i name="e_wo_entrp">    -16.47936011 </i>
    <i name="e_0_energy">    -16.48137370 </i>
   </energy>
  </scstep>
  <scstep>
   <time name="dav">    6.85    6.87</time>
   <time name="total">    9.03    9.08</time>
   <energy>
    <i name="e_fr_energy">    -16.47576767 </i>
    <i name="e_wo_entrp">    -16.47292681 </i>
    <i name="e_0_energy">    -16.47482072 </i>
   </energy>
  </scstep>
  <scstep>
   <time name="dav">    6.76    6.77</time>
   <time name="total">    8.95    8.98</time>
   <energy>
    <i name="e_fr_energy">    -16.47048134 </i>
    <i name="e_wo_entrp">    -16.46781653 </i>
    <i name="e_0_energy">    -16.46959307 </i>
   </energy>
  </scstep>
  <scstep>
   <time name="dav">    6.33    6.34</time>
   <time name="total">    8.52    8.54</time>
   <energy>
    <i name="e_fr_energy">    -16.47056824 </i>
    <i name="e_wo_entrp">    -16.46788350 </i>
    <i name="e_0_energy">    -16.46967333 </i>
   </energy>
  </scstep>
  <scstep>
   <time name="dav">    6.00    6.00</time>
   <time name="total">    8.19    8.21</time>
   <energy>
    <i name="e_fr_energy">    -16.47057469 </i>
    <i name="e_wo_entrp">    -16.46788006 </i>
    <i name="e_0_energy">    -16.46967648 </i>
   </energy>
  </scstep>
  <scstep>
   <time name="dav">    5.11    5.11</time>
   <time name="total">    7.30    7.33</time>
   <energy>
    <i name="e_fr_energy">    -16.47057170 </i>
    <i name="e_wo_entrp">    -16.46787609 </i>
    <i name="e_0_energy">    -16.46967317 </i>
   </energy>
  </scstep>
  <scstep>
   <time name="dav">    3.94    3.95</time>
   <time name="total">    5.65    5.67</time>
   <energy>
    <i name="alphaZ">    125.69838943 </i>
    <i name="ewald">  -1197.05562582 </i>
    <i name="hartreedc">   -185.14078089 </i>
    <i name="XCdc">      8.68346507 </i>
    <i name="pawpsdc">   1470.82764774 </i>
    <i name="pawaedc">  -1489.14888438 </i>
    <i name="eentropy">     -0.00268956 </i>
    <i name="bandstr">     61.04065175 </i>
    <i name="atom">   1188.62725594 </i>
    <i name="e_fr_energy">    -16.47057072 </i>
    <i name="e_wo_entrp">    -16.46788116 </i>
    <i name="e_0_energy">    -16.46967420 </i>
   </energy>
  </scstep>
  <structure>
   <crystal>
    <varray name="basis" >
     <v>       2.80176453      -0.00000000       0.00000000 </v>
     <v>       0.00000000       2.80176453       0.00000000 </v>
     <v>      -0.00000000       0.00000000       2.80176453 </v>
    </varray>
    <i name="volume">     21.99352794 </i>
    <varray name="rec_basis" >
     <v>       0.35691793      -0.00000000       0.00000000 </v>
     <v>       0.00000000       0.35691793      -0.00000000 </v>
     <v>      -0.00000000      -0.00000000       0.35691793 </v>
    </varray>
   </crystal>
   <varray name="positions" >
    <v>       0.00000000      -0.00000000       0.00000000 </v>
    <v>       0.50000000       0.50000000       0.50000000 </v>
   </varray>
  </structure>
  <varray name="forces" >
   <v>      -0.00000000      -0.00000000       0.00000000 </v>
   <v>       0.00000000       0.00000000      -0.00000000 </v>
  </varray>
  <varray name="stress" >
   <v>      63.20356404       0.00000000       0.00000000 </v>
   <v>       0.00000000      63.20356404       0.00000000 </v>
   <v>       0.00000000       0.00000000      63.20356404 </v>
  </varray>
  <energy>
   <i name="e_fr_energy">    -16.47057072 </i>
   <i name="e_wo_entrp">    -16.46788116 </i>
   <i name="e_0_energy">    -16.46967420 </i>
  </energy>
  <time name="totalsc">   82.29   82.96</time>
 </calculation>
 <calculation>
  <scstep>
   <time name="dav">    6.14    6.15</time>
   <time name="total">    8.33    8.34</time>
   <energy>
    <i name="alphaZ">    121.91450247 </i>
    <i name="ewald">  -1184.92142240 </i>
    <i name="hartreedc">   -183.26614704 </i>
    <i name="XCdc">      8.10189167 </i>
    <i name="pawpsdc">   1470.85263925 </i>
    <i name="pawaedc">  -1489.17206496 </i>
    <i name="eentropy">     -0.00150280 </i>
    <i name="bandstr">     51.22756685 </i>
    <i name="atom">   1188.62725594 </i>
    <i name="e_fr_energy">    -16.63728100 </i>
    <i name="e_wo_entrp">    -16.63577820 </i>
    <i name="e_0_energy">    -16.63678007 </i>
   </energy>
  </scstep>
  <scstep>
   <time name="dav">    6.18    6.19</time>
   <time name="total">    8.37    8.39</time>
   <energy>
    <i name="e_fr_energy">    -16.50049915 </i>
    <i name="e_wo_entrp">    -16.49825680 </i>
    <i name="e_0_energy">    -16.49975170 </i>
   </energy>
  </scstep>
  <scstep>
   <time name="dav">    6.51    6.51</time>
   <time name="total">    8.69    8.71</time>
   <energy>
    <i name="e_fr_energy">    -16.48649337 </i>
    <i name="e_wo_entrp">    -16.48379462 </i>
    <i name="e_0_energy">    -16.48559379 </i>
   </energy>
  </scstep>
  <scstep>
   <time name="dav">    7.22    7.22</time>
   <time name="total">    9.40    9.42</time>
   <energy>
    <i name="e_fr_energy">    -16.48484496 </i>
    <i name="e_wo_entrp">    -16.48209337 </i>
    <i name="e_0_energy">    -16.48392776 </i>
   </energy>
  </scstep>
  <scstep>
   <time name="dav">    6.41    6.41</time>
   <time name="total">    8.58    8.61</time>
   <energy>
    <i name="e_fr_energy">    -16.48355047 </i>
    <i name="e_wo_entrp">    -16.48087623 </i>
    <i name="e_0_energy">    -16.48265906 </i>
   </energy>
  </scstep>
  <scstep>
   <time name="dav">    6.08    6.08</time>
   <time name="total">    8.26    8.28</time>
   <energy>
    <i name="e_fr_energy">    -16.48357146 </i>
    <i name="e_wo_entrp">    -16.48090550 </i>
    <i name="e_0_energy">    -16.48268281 </i>
   </energy>
  </scstep>
  <scstep>
   <time name="dav">    5.88    5.89</time>
   <time name="total">    8.07    8.09</time>
   <energy>
    <i name="e_fr_energy">    -16.48357670 </i>
    <i name="e_wo_entrp">    -16.48090800 </i>
    <i name="e_0_energy">    -16.48268714 </i>
   </energy>
  </scstep>
  <scstep>
   <time name="dav">    4.20    4.20</time>
   <time name="total">    6.38    6.40</time>
   <energy>
    <i name="e_fr_energy">    -16.48357961 </i>
    <i name="e_wo_entrp">    -16.48091093 </i>
    <i name="e_0_energy">    -16.48269005 </i>
   </energy>
  </scstep>
  <scstep>
   <time name="dav">    3.92    3.92</time>
   <time name="total">    5.63    5.66</time>
   <energy>
    <i name="alphaZ">    121.91450247 </i>
    <i name="ewald">  -1184.92142240 </i>
    <i name="hartreedc">   -189.81851236 </i>
    <i name="XCdc">      8.60260621 </i>
    <i name="pawpsdc">   1441.77736966 </i>
    <i name="pawaedc">  -1459.88705666 </i>
    <i name="eentropy">     -0.00266886 </i>
    <i name="bandstr">     57.22434629 </i>
    <i name="atom">   1188.62725594 </i>
    <i name="e_fr_energy">    -16.48357969 </i>
    <i name="e_wo_entrp">    -16.48091084 </i>
    <i name="e_0_energy">    -16.48269008 </i>
   </energy>
  </scstep>
  <structure>
   <crystal>
    <varray name="basis" >
     <v>       2.83045604      -0.00000000       0.00000000 </v>
     <v>       0.00000000       2.83045604       0.00000000 </v>
     <v>      -0.00000000       0.00000000       2.83045604 </v>
    </varray>
    <i name="volume">     22.67614586 </i>
    <varray name="rec_basis" >
     <v>       0.35329996      -0.00000000       0.00000000 </v>
     <v>       0.00000000       0.35329996      -0.00000000 </v>
     <v>      -0.00000000      -0.00000000       0.35329996 </v>
    </varray>
   </crystal>
   <varray name="positions" >
    <v>       0.00000000      -0.00000000       0.00000000 </v>
    <v>       0.50000000       0.50000000       0.50000000 </v>
   </varray>
  </structure>
  <varray name="forces" >
   <v>       0.00000000       0.00000000       0.00000000 </v>
   <v>      -0.00000000      -0.00000000      -0.00000000 </v>
  </varray>
  <varray name="stress" >
   <v>      -0.15814304       0.00000000       0.00000000 </v>
   <v>       0.00000000      -0.15814304      -0.00000000 </v>
   <v>       0.00000000       0.00000000      -0.15814304 </v>
  </varray>
  <energy>
   <i name="e_fr_energy">    -16.48357969 </i>
   <i name="e_wo_entrp">    -16.48091084 </i>
   <i name="e_0_energy">    -16.48269008 </i>
  </energy>
  <time name="totalsc">   81.16   83.89</time>
  <eigenvalues>
   <array>
    <dimension dim="1">band</dimension>
    <dimension dim="2">kpoint</dimension>
    <dimension dim="3">spin</dimension>
    <field>eigene</field>
    <field>occ</field>
    <set>
     <set comment="spin 1">
      <set comment="kpoint 1">
       <r>   -2.5971    1.0000 </r>
       <r>    0.9874    1.0000 </r>
       <r>    0.9874    1.0000 </r>
       <r>    3.5396    1.0000 </r>
       <r>    3.5396    1.0000 </r>
       <r>    3.5396    1.0000 </r>
       <r>    4.7526    1.0000 </r>
       <r>    4.7526    1.0000 </r>
       <r>    5.9652    0.0719 </r>
       <r>    5.9652    0.0719 </r>
       <r>    5.9652    0.0719 </r>
       <r>   15.7974    0.0000 </r>
       <r>   15.7974    0.0000 </r>
       <r>   15.7974    0.0000 </r>
       <r>   21.5139    0.0000 </r>
       <r>   21.5139    0.0000 </r>
       <r>   26.6541    0.0000 </r>
       <r>   30.8895    0.0000 </r>
       <r>   30.8895    0.0000 </r>
       <r>   30.8895    0.0000 </r>
      </set>
      <set comment="kpoint 2">
       <r>   -2.5046    1.0000 </r>
       <r>    1.0268    1.0000 </r>
       <r>    1.0285    1.0000 </r>
       <r>    3.5388    1.0000 </r>
       <r>    3.5388    1.0000 </r>
       <r>    3.5649    1.0000 </r>
       <r>    4.7113    1.0000 </r>
       <r>    4.7690    1.0000 </r>
       <r>    5.8868    0.3138 </r>
       <r>    5.8868    0.3138 </r>
       <r>    5.9376    0.1409 </r>
       <r>   15.1264    0.0000 </r>
       <r>   15.9729    0.0000 </r>
       <r>   15.9729    0.0000 </r>
       <r>   21.5405    0.0000 </r>
       <r>   22.0204    0.0000 </r>
       <r>   26.9541    0.0000 </r>
       <r>   30.2558    0.0000 </r>
       <r>   30.8085    0.0000 </r>
       <r>   30.8085    0.0000 </r>
      </set>
      <set comment="kpoint 3">
       <r>   -2.2306    1.0000 </r>
       <r>    1.1439    1.0000 </r>
       <r>    1.1446    1.0000 </r>
       <r>    3.5391    1.0000 </r>
       <r>    3.5391    1.0000 </r>
       <r>    3.6400    1.0000 </r>
       <r>    4.5890    1.0000 </r>
       <r>    4.8169    1.0000 </r>
       <r>    5.6713    1.0021 </r>
       <r>    5.6713    1.0021 </r>
       <r>    5.8562    0.4385 </r>
       <r>   13.6533    0.0000 </r>
       <r>   16.4789    0.0000 </r>
       <r>   16.4789    0.0000 </r>
       <r>   21.6219    0.0000 </r>
       <r>   22.9014    0.0000 </r>
       <r>   27.9627    0.0000 </r>
       <r>   28.9894    0.0000 </r>
       <r>   30.4489    0.0000 </r>
       <r>   30.4489    0.0000 </r>
      </set>
      <set comment="kpoint 4">
       <r>   -1.7870    1.0000 </r>
       <r>    1.3124    1.0000 </r>
       <r>    1.3343    1.0000 </r>
       <r>    3.5479    1.0000 </r>
       <r>    3.5479    1.0000 </r>
       <r>    3.7620    1.0000 </r>
       <r>    4.3903    1.0000 </r>
       <r>    4.8941    1.0000 </r>
       <r>    5.3649    1.0019 </r>
       <r>    5.3649    1.0019 </r>
       <r>    5.7247    0.9128 </r>
       <r>   11.9634    0.0000 </r>
       <r>   17.2662    0.0000 </r>
       <r>   17.2662    0.0000 </r>
       <r>   21.7629    0.0000 </r>
       <r>   23.5415    0.0000 </r>
       <r>   27.6637    0.0000 </r>
       <r>   29.6075    0.0000 </r>
       <r>   29.6075    0.0000 </r>
       <r>   29.7384    0.0000 </r>
      </set>
      <set comment="kpoint 5">
       <r>   -1.1962    1.0000 </r>
       <r>    1.4917    1.0000 </r>
       <r>    1.5911    1.0000 </r>
       <r>    3.5757    1.0000 </r>
       <r>    3.5757    1.0000 </r>
       <r>    3.9262    1.0000 </r>
       <r>    4.1235    1.0000 </r>
       <r>    5.0010    1.0000 </r>
       <r>    5.0189    1.0000 </r>
       <r>    5.0189    1.0000 </r>
       <r>    5.5497    1.0294 </r>
       <r>   10.2937   -0.0000 </r>
       <r>   18.2785    0.0000 </r>
       <r>   18.2785    0.0000 </r>
       <r>   21.9713    0.0000 </r>
       <r>   23.9624    0.0000 </r>
       <r>   26.4466    0.0000 </r>
       <r>   28.3332    0.0000 </r>
       <r>   28.3332    0.0000 </r>
       <r>   30.1391    0.0000 </r>
      </set>
      <set comment="kpoint 6">
       <r>   -0.4971    1.0000 </r>
       <r>    1.6222    1.0000 </r>
       <r>    1.9043    1.0000 </r>
       <r>    3.6345    1.0000 </r>
       <r>    3.6345    1.0000 </r>
       <r>    3.8000    1.0000 </r>
       <r>    4.1261    1.0000 </r>
       <r>    4.6752    1.0000 </r>
       <r>    4.6752    1.0000 </r>
       <r>    5.1496    1.0000 </r>
       <r>    5.3394    1.0011 </r>
       <r>    8.7582   -0.0000 </r>
       <r>   19.4665    0.0000 </r>
       <r>   19.4665    0.0000 </r>
       <r>   22.2578    0.0000 </r>
       <r>   24.3416    0.0000 </r>
       <r>   25.3826    0.0000 </r>
       <r>   26.8420    0.0000 </r>
       <r>   26.8420    0.0000 </r>
       <r>   28.6411    0.0000 </r>
      </set>
      <set comment="kpoint 7">
       <r>    0.2433    1.0000 </r>
       <r>    1.6219    1.0000 </r>
       <r>    2.2613    1.0000 </r>
       <r>    3.4345    1.0000 </r>
       <r>    3.7359    1.0000 </r>
       <r>    3.7359    1.0000 </r>
       <r>    4.3537    1.0000 </r>
       <r>    4.3624    1.0000 </r>
       <r>    4.3624    1.0000 </r>
       <r>    5.1036    1.0000 </r>
       <r>    5.3786    1.0025 </r>
       <r>    7.4453   -0.0000 </r>
       <r>   20.7911    0.0000 </r>
       <r>   20.7911    0.0000 </r>
       <r>   22.6358    0.0000 </r>
       <r>   24.4794    0.0000 </r>
       <r>   24.8050    0.0000 </r>
       <r>   25.2820    0.0000 </r>
       <r>   25.2820    0.0000 </r>
       <r>   27.3420    0.0000 </r>
      </set>
      <set comment="kpoint 8">
       <r>    0.9186    1.0000 </r>
       <r>    1.4008    1.0000 </r>
       <r>    2.6470    1.0000 </r>
       <r>    3.0441    1.0000 </r>
       <r>    3.8885    1.0000 </r>
       <r>    3.8885    1.0000 </r>
       <r>    4.0976    1.0000 </r>
       <r>    4.0976    1.0000 </r>
       <r>    4.5996    1.0000 </r>
       <r>    4.8533    1.0000 </r>
       <r>    5.7705    0.7808 </r>
       <r>    6.4379   -0.0001 </r>
       <r>   22.2208    0.0000 </r>
       <r>   22.2208    0.0000 </r>
       <r>   23.1210    0.0000 </r>
       <r>   23.7276    0.0000 </r>
       <r>   23.7276    0.0000 </r>
       <r>   23.7301    0.0000 </r>
       <r>   25.4320    0.0000 </r>
       <r>   26.2706    0.0000 </r>
      </set>
      <set comment="kpoint 9">
       <r>   -2.4127    1.0000 </r>
       <r>    1.0655    1.0000 </r>
       <r>    1.0699    1.0000 </r>
       <r>    3.4893    1.0000 </r>
       <r>    3.5356    1.0000 </r>
       <r>    3.6388    1.0000 </r>
       <r>    4.7031    1.0000 </r>
       <r>    4.7567    1.0000 </r>
       <r>    5.7473    0.8541 </r>
       <r>    5.8085    0.6376 </r>
       <r>    5.9768    0.0488 </r>
       <r>   15.1441    0.0000 </r>
       <r>   15.4405    0.0000 </r>
       <r>   16.1430    0.0000 </r>
       <r>   21.8015    0.0000 </r>
       <r>   22.3358    0.0000 </r>
       <r>   27.2292    0.0000 </r>
       <r>   29.6940    0.0000 </r>
       <r>   30.6132    0.0000 </r>
       <r>   30.7586    0.0000 </r>
      </set>
      <set comment="kpoint 10">
       <r>   -2.1410    1.0000 </r>
       <r>    1.1772    1.0000 </r>
       <r>    1.1892    1.0000 </r>
       <r>    3.4498    1.0000 </r>
       <r>    3.5286    1.0000 </r>
       <r>    3.7528    1.0000 </r>
       <r>    4.6025    1.0000 </r>
       <r>    4.7959    1.0000 </r>
       <r>    5.4938    1.0169 </r>
       <r>    5.5941    1.0354 </r>
       <r>    5.9476    0.1139 </r>
       <r>   13.7713    0.0000 </r>
       <r>   15.8014    0.0000 </r>
       <r>   16.6351    0.0000 </r>
       <r>   21.9703    0.0000 </r>
       <r>   23.2381    0.0000 </r>
       <r>   28.1698    0.0000 </r>
       <r>   28.4182    0.0000 </r>
       <r>   30.1579    0.0000 </r>
       <r>   30.4779    0.0000 </r>
      </set>
      <set comment="kpoint 11">
       <r>   -1.7016    1.0000 </r>
       <r>    1.3468    1.0000 </r>
       <r>    1.3734    1.0000 </r>
       <r>    3.4324    1.0000 </r>
       <r>    3.5242    1.0000 </r>
       <r>    3.8995    1.0000 </r>
       <r>    4.4250    1.0000 </r>
       <r>    4.8746    1.0000 </r>
       <r>    5.1750    1.0000 </r>
       <r>    5.2922    1.0004 </r>
       <r>    5.8471    0.4765 </r>
       <r>   12.0784    0.0000 </r>
       <r>   16.5229    0.0000 </r>
       <r>   17.4046    0.0000 </r>
       <r>   22.1489    0.0000 </r>
       <r>   23.9688    0.0000 </r>
       <r>   27.0242    0.0000 </r>
       <r>   29.2704    0.0000 </r>
       <r>   29.6941    0.0000 </r>
       <r>   29.8764    0.0000 </r>
      </set>
      <set comment="kpoint 12">
       <r>   -1.1177    1.0000 </r>
       <r>    1.5276    1.0000 </r>
       <r>    1.6207    1.0000 </r>
       <r>    3.4428    1.0000 </r>
       <r>    3.5243    1.0000 </r>
       <r>    4.0786    1.0000 </r>
       <r>    4.1975    1.0000 </r>
       <r>    4.8292    1.0000 </r>
       <r>    4.9575    1.0000 </r>
       <r>    4.9832    1.0000 </r>
       <r>    5.6907    0.9774 </r>
       <r>   10.4020   -0.0000 </r>
       <r>   17.4399    0.0000 </r>
       <r>   18.3990    0.0000 </r>
       <r>   22.3994    0.0000 </r>
       <r>   24.4759    0.0000 </r>
       <r>   25.6838    0.0000 </r>
       <r>   28.0614    0.0000 </r>
       <r>   28.4248    0.0000 </r>
       <r>   31.2022    0.0000 </r>
      </set>
      <set comment="kpoint 13">
       <r>   -0.4294    1.0000 </r>
       <r>    1.6555    1.0000 </r>
       <r>    1.9231    1.0000 </r>
       <r>    3.4894    1.0000 </r>
       <r>    3.4954    1.0000 </r>
       <r>    3.9772    1.0000 </r>
       <r>    4.2871    1.0000 </r>
       <r>    4.4908    1.0000 </r>
       <r>    4.6361    1.0000 </r>
       <r>    5.1337    1.0000 </r>
       <r>    5.4920    1.0165 </r>
       <r>    8.8549   -0.0000 </r>
       <r>   18.4919    0.0000 </r>
       <r>   19.5713    0.0000 </r>
       <r>   22.7437    0.0000 </r>
       <r>   24.4196    0.0000 </r>
       <r>   24.9447    0.0000 </r>
       <r>   26.7823    0.0000 </r>
       <r>   26.9249    0.0000 </r>
       <r>   29.7207    0.0000 </r>
      </set>
      <set comment="kpoint 14">
       <r>    0.2958    1.0000 </r>
       <r>    1.6497    1.0000 </r>
       <r>    2.2660    1.0000 </r>
       <r>    3.3177    1.0000 </r>
       <r>    3.5814    1.0000 </r>
       <r>    3.9051    1.0000 </r>
       <r>    4.1850    1.0000 </r>
       <r>    4.3611    1.0000 </r>
       <r>    4.5188    1.0000 </r>
       <r>    5.2636    1.0002 </r>
       <r>    5.3695    1.0021 </r>
       <r>    7.5215   -0.0000 </r>
       <r>   19.6294    0.0000 </r>
       <r>   20.8834    0.0000 </r>
       <r>   23.2059    0.0000 </r>
       <r>   23.2059    0.0000 </r>
       <r>   25.3598    0.0000 </r>
       <r>   25.5108    0.0000 </r>
       <r>   25.6032    0.0000 </r>
       <r>   28.3726    0.0000 </r>
      </set>
      <set comment="kpoint 15">
       <r>    0.9542    1.0000 </r>
       <r>    1.4267    1.0000 </r>
       <r>    2.6319    1.0000 </r>
       <r>    2.9969    1.0000 </r>
       <r>    3.7261    1.0000 </r>
       <r>    3.9276    1.0000 </r>
       <r>    3.9899    1.0000 </r>
       <r>    4.1468    1.0000 </r>
       <r>    4.7656    1.0000 </r>
       <r>    5.0175    1.0000 </r>
       <r>    5.7815    0.7419 </r>
       <r>    6.4823   -0.0000 </r>
       <r>   20.8118    0.0000 </r>
       <r>   22.0082    0.0000 </r>
       <r>   22.3040    0.0000 </r>
       <r>   23.8058    0.0000 </r>
       <r>   23.8161    0.0000 </r>
       <r>   24.6081    0.0000 </r>
       <r>   26.2530    0.0000 </r>
       <r>   27.2071    0.0000 </r>
      </set>
      <set comment="kpoint 16">
       <r>   -1.8765    1.0000 </r>
       <r>    1.2728    1.0000 </r>
       <r>    1.3173    1.0000 </r>
       <r>    3.3490    1.0000 </r>
       <r>    3.5026    1.0000 </r>
       <r>    3.9257    1.0000 </r>
       <r>    4.6032    1.0000 </r>
       <r>    4.7702    1.0000 </r>
       <r>    5.1870    1.0000 </r>
       <r>    5.3855    1.0029 </r>
       <r>    6.0095    0.0004 </r>
       <r>   13.7541    0.0000 </r>
       <r>   14.7284    0.0000 </r>
       <r>   17.0905    0.0000 </r>
       <r>   22.3124    0.0000 </r>
       <r>   24.2384    0.0000 </r>
       <r>   27.1033    0.0000 </r>
       <r>   28.9025    0.0000 </r>
       <r>   29.6399    0.0000 </r>
       <r>   30.4519    0.0000 </r>
      </set>
      <set comment="kpoint 17">
       <r>   -1.4508    1.0000 </r>
       <r>    1.4179    1.0000 </r>
       <r>    1.5119    1.0000 </r>
       <r>    3.2760    1.0000 </r>
       <r>    3.4716    1.0000 </r>
       <r>    4.1230    1.0000 </r>
       <r>    4.5048    1.0000 </r>
       <r>    4.8252    1.0000 </r>
       <r>    4.8378    1.0000 </r>
       <r>    5.1008    1.0000 </r>
       <r>    5.9898    0.0265 </r>
       <r>   12.3384    0.0000 </r>
       <r>   15.0808    0.0000 </r>
       <r>   17.8117    0.0000 </r>
       <r>   22.5330    0.0000 </r>
       <r>   25.2367    0.0000 </r>
       <r>   25.6147    0.0000 </r>
       <r>   28.8270    0.0000 </r>
       <r>   29.9309    0.0000 </r>
       <r>   30.3574    0.0000 </r>
      </set>
      <set comment="kpoint 18">
       <r>   -0.8897    1.0000 </r>
       <r>    1.5798    1.0000 </r>
       <r>    1.7536    1.0000 </r>
       <r>    3.2397    1.0000 </r>
       <r>    3.4370    1.0000 </r>
       <r>    4.3412    1.0000 </r>
       <r>    4.3537    1.0000 </r>
       <r>    4.4815    1.0000 </r>
       <r>    4.8022    1.0000 </r>
       <r>    4.9330    1.0000 </r>
       <r>    5.8964    0.2772 </r>
       <r>   10.6752   -0.0000 </r>
       <r>   15.8725    0.0000 </r>
       <r>   18.7563    0.0000 </r>
       <r>   22.7757    0.0000 </r>
       <r>   24.1465    0.0000 </r>
       <r>   25.9771    0.0000 </r>
       <r>   27.7673    0.0000 </r>
       <r>   28.6963    0.0000 </r>
       <r>   32.4643    0.0000 </r>
      </set>
      <set comment="kpoint 19">
       <r>   -0.2377    1.0000 </r>
       <r>    1.6940    1.0000 </r>
       <r>    2.0315    1.0000 </r>
       <r>    3.2481    1.0000 </r>
       <r>    3.3701    1.0000 </r>
       <r>    4.1457    1.0000 </r>
       <r>    4.2230    1.0000 </r>
       <r>    4.5451    1.0000 </r>
       <r>    4.5765    1.0000 </r>
       <r>    5.0866    1.0000 </r>
       <r>    5.7437    0.8642 </r>
       <r>    9.1067   -0.0000 </r>
       <r>   16.8131    0.0000 </r>
       <r>   19.8838    0.0000 </r>
       <r>   22.7436    0.0000 </r>
       <r>   23.0896    0.0000 </r>
       <r>   26.6263    0.0000 </r>
       <r>   26.6552    0.0000 </r>
       <r>   27.1684    0.0000 </r>
       <r>   31.6227    0.0000 </r>
      </set>
      <set comment="kpoint 20">
       <r>    0.4349    1.0000 </r>
       <r>    1.6765    1.0000 </r>
       <r>    2.3381    1.0000 </r>
       <r>    3.2154    1.0000 </r>
       <r>    3.3089    1.0000 </r>
       <r>    3.8506    1.0000 </r>
       <r>    4.1777    1.0000 </r>
       <r>    4.3664    1.0000 </r>
       <r>    4.8233    1.0000 </r>
       <r>    5.3418    1.0012 </r>
       <r>    5.5464    1.0287 </r>
       <r>    7.7244   -0.0000 </r>
       <r>   17.8520    0.0000 </r>
       <r>   21.1588    0.0000 </r>
       <r>   21.4138    0.0000 </r>
       <r>   23.5058    0.0000 </r>
       <r>   25.5885    0.0000 </r>
       <r>   25.6308    0.0000 </r>
       <r>   27.3351    0.0000 </r>
       <r>   30.3411    0.0000 </r>
      </set>
      <set comment="kpoint 21">
       <r>    1.0322    1.0000 </r>
       <r>    1.4614    1.0000 </r>
       <r>    2.6577    1.0000 </r>
       <r>    2.9635    1.0000 </r>
       <r>    3.4284    1.0000 </r>
       <r>    3.6093    1.0000 </r>
       <r>    4.2077    1.0000 </r>
       <r>    4.2660    1.0000 </r>
       <r>    5.0740    1.0000 </r>
       <r>    5.3188    1.0007 </r>
       <r>    5.8135    0.6174 </r>
       <r>    6.6055   -0.0000 </r>
       <r>   18.9687    0.0000 </r>
       <r>   20.1561    0.0000 </r>
       <r>   22.5518    0.0000 </r>
       <r>   24.0373    0.0000 </r>
       <r>   24.0537    0.0000 </r>
       <r>   24.7582    0.0000 </r>
       <r>   28.1785    0.0000 </r>
       <r>   29.1824    0.0000 </r>
      </set>
      <set comment="kpoint 22">
       <r>   -1.0515    1.0000 </r>
       <r>    1.5147    1.0000 </r>
       <r>    1.7285    1.0000 </r>
       <r>    3.1469    1.0000 </r>
       <r>    3.4220    1.0000 </r>
       <r>    4.3677    1.0000 </r>
       <r>    4.4704    1.0000 </r>
       <r>    4.5590    1.0000 </r>
       <r>    4.7953    1.0000 </r>
       <r>    4.8532    1.0000 </r>
       <r>    6.0580   -0.0317 </r>
       <r>   12.1826    0.0000 </r>
       <r>   14.0913    0.0000 </r>
       <r>   18.4662    0.0000 </r>
       <r>   22.7524    0.0000 </r>
       <r>   24.0431    0.0000 </r>
       <r>   26.6844    0.0000 </r>
       <r>   28.2073    0.0000 </r>
       <r>   30.1103    0.0000 </r>
       <r>   31.3756    0.0000 </r>
      </set>
      <set comment="kpoint 23">
       <r>   -0.5363    1.0000 </r>
       <r>    1.6106    1.0000 </r>
       <r>    1.9948    1.0000 </r>
       <r>    3.0590    1.0000 </r>
       <r>    3.3920    1.0000 </r>
       <r>    4.1101    1.0000 </r>
       <r>    4.5138    1.0000 </r>
       <r>    4.6195    1.0000 </r>
       <r>    4.6236    1.0000 </r>
       <r>    4.8650    1.0000 </r>
       <r>    6.0449   -0.0268 </r>
       <r>   10.9183   -0.0000 </r>
       <r>   14.3971    0.0000 </r>
       <r>   19.3386    0.0000 </r>
       <r>   22.4992    0.0000 </r>
       <r>   22.9670    0.0000 </r>
       <r>   27.3629    0.0000 </r>
       <r>   27.8281    0.0000 </r>
       <r>   29.1370    0.0000 </r>
       <r>   31.4037    0.0000 </r>
      </set>
      <set comment="kpoint 24">
       <r>    0.0416    1.0000 </r>
       <r>    1.6593    1.0000 </r>
       <r>    2.2837    1.0000 </r>
       <r>    3.0219    1.0000 </r>
       <r>    3.3635    1.0000 </r>
       <r>    3.7815    1.0000 </r>
       <r>    4.4520    1.0000 </r>
       <r>    4.4579    1.0000 </r>
       <r>    4.8843    1.0000 </r>
       <r>    5.0120    1.0000 </r>
       <r>    5.9584    0.0873 </r>
       <r>    9.4013   -0.0000 </r>
       <r>   15.1870    0.0000 </r>
       <r>   20.3974    0.0000 </r>
       <r>   21.0332    0.0000 </r>
       <r>   23.2399    0.0000 </r>
       <r>   26.4224    0.0000 </r>
       <r>   27.5520    0.0000 </r>
       <r>   28.7130    0.0000 </r>
       <r>   32.0651    0.0000 </r>
      </set>
      <set comment="kpoint 25">
       <r>    0.6071    1.0000 </r>
       <r>    1.6076    1.0000 </r>
       <r>    2.5753    1.0000 </r>
       <r>    3.0435    1.0000 </r>
       <r>    3.2780    1.0000 </r>
       <r>    3.5020    1.0000 </r>
       <r>    4.3948    1.0000 </r>
       <r>    4.4397    1.0000 </r>
       <r>    5.1429    1.0000 </r>
       <r>    5.2940    1.0004 </r>
       <r>    5.8113    0.6265 </r>
       <r>    7.9845   -0.0000 </r>
       <r>   16.1448    0.0000 </r>
       <r>   19.6611    0.0000 </r>
       <r>   21.6128    0.0000 </r>
       <r>   23.6077    0.0000 </r>
       <r>   25.5212    0.0000 </r>
       <r>   25.9523    0.0000 </r>
       <r>   29.5358    0.0000 </r>
       <r>   32.3378    0.0000 </r>
      </set>
      <set comment="kpoint 26">
       <r>    1.0822    1.0000 </r>
       <r>    1.4192    1.0000 </r>
       <r>    2.8546    1.0000 </r>
       <r>    3.1002    1.0000 </r>
       <r>    3.1296    1.0000 </r>
       <r>    3.2828    1.0000 </r>
       <r>    4.4071    1.0000 </r>
       <r>    4.4362    1.0000 </r>
       <r>    5.3908    1.0032 </r>
       <r>    5.6176    1.0335 </r>
       <r>    5.8616    0.4158 </r>
       <r>    6.7765   -0.0000 </r>
       <r>   17.2157    0.0000 </r>
       <r>   18.3882    0.0000 </r>
       <r>   22.9586    0.0000 </r>
       <r>   24.1002    0.0000 </r>
       <r>   24.4122    0.0000 </r>
       <r>   24.7373    0.0000 </r>
       <r>   30.4082    0.0000 </r>
       <r>   31.3582    0.0000 </r>
      </set>
      <set comment="kpoint 27">
       <r>   -0.1017    1.0000 </r>
       <r>    1.6127    1.0000 </r>
       <r>    2.3006    1.0000 </r>
       <r>    2.9214    1.0000 </r>
       <r>    3.4284    1.0000 </r>
       <r>    3.7556    1.0000 </r>
       <r>    4.4775    1.0000 </r>
       <r>    4.6160    1.0000 </r>
       <r>    4.8320    1.0000 </r>
       <r>    4.9081    1.0000 </r>
       <r>    6.1140   -0.0331 </r>
       <r>   10.6127   -0.0000 </r>
       <r>   13.6575    0.0000 </r>
       <r>   20.1277    0.0000 </r>
       <r>   20.9050    0.0000 </r>
       <r>   23.1439    0.0000 </r>
       <r>   26.7736    0.0000 </r>
       <r>   29.5150    0.0000 </r>
       <r>   29.5986    0.0000 </r>
       <r>   29.8147    0.0000 </r>
      </set>
      <set comment="kpoint 28">
       <r>    0.3486    1.0000 </r>
       <r>    1.5669    1.0000 </r>
       <r>    2.6329    1.0000 </r>
       <r>    2.8385    1.0000 </r>
       <r>    3.4413    1.0000 </r>
       <r>    3.5325    1.0000 </r>
       <r>    4.4205    1.0000 </r>
       <r>    4.6332    1.0000 </r>
       <r>    4.9229    1.0000 </r>
       <r>    5.1847    1.0000 </r>
       <r>    6.1029   -0.0345 </r>
       <r>    9.5168   -0.0000 </r>
       <r>   13.9293    0.0000 </r>
       <r>   19.4088    0.0000 </r>
       <r>   21.1016    0.0000 </r>
       <r>   23.3703    0.0000 </r>
       <r>   26.0563    0.0000 </r>
       <r>   28.0000    0.0000 </r>
       <r>   30.4867    0.0000 </r>
       <r>   30.8145    0.0000 </r>
      </set>
      <set comment="kpoint 29">
       <r>    0.7476    1.0000 </r>
       <r>    1.4615    1.0000 </r>
       <r>    2.8189    1.0000 </r>
       <r>    2.9575    1.0000 </r>
       <r>    3.1828    1.0000 </r>
       <r>    3.5816    1.0000 </r>
       <r>    4.4535    1.0000 </r>
       <r>    4.6527    1.0000 </r>
       <r>    5.2240    1.0001 </r>
       <r>    5.4444    1.0084 </r>
       <r>    6.0189   -0.0090 </r>
       <r>    8.1893   -0.0000 </r>
       <r>   14.6833    0.0000 </r>
       <r>   18.0287    0.0000 </r>
       <r>   22.2374    0.0000 </r>
       <r>   23.6824    0.0000 </r>
       <r>   25.3210    0.0000 </r>
       <r>   26.4108    0.0000 </r>
       <r>   31.3508    0.0000 </r>
       <r>   31.8062    0.0000 </r>
      </set>
      <set comment="kpoint 30">
       <r>    1.0612    1.0000 </r>
       <r>    1.2945    1.0000 </r>
       <r>    2.8685    1.0000 </r>
       <r>    2.9902    1.0000 </r>
       <r>    3.2467    1.0000 </r>
       <r>    3.4718    1.0000 </r>
       <r>    4.5404    1.0000 </r>
       <r>    4.6241    1.0000 </r>
       <r>    5.6775    0.9950 </r>
       <r>    5.8730    0.3688 </r>
       <r>    5.9123    0.2203 </r>
       <r>    6.9418   -0.0000 </r>
       <r>   15.6534    0.0000 </r>
       <r>   16.7743    0.0000 </r>
       <r>   23.5134    0.0000 </r>
       <r>   24.1065    0.0000 </r>
       <r>   24.6560    0.0000 </r>
       <r>   24.9101    0.0000 </r>
       <r>   32.3285    0.0000 </r>
       <r>   32.6127    0.0000 </r>
      </set>
      <set comment="kpoint 31">
       <r>    0.6204    1.0000 </r>
       <r>    1.4392    1.0000 </r>
       <r>    2.7118    1.0000 </r>
       <r>    3.0254    1.0000 </r>
       <r>    3.1474    1.0000 </r>
       <r>    3.8807    1.0000 </r>
       <r>    4.4507    1.0000 </r>
       <r>    4.7442    1.0000 </r>
       <r>    4.8753    1.0000 </r>
       <r>    5.4640    1.0113 </r>
       <r>    6.1678   -0.0216 </r>
       <r>    9.1122   -0.0000 </r>
       <r>   13.4045    0.0000 </r>
       <r>   17.9088    0.0000 </r>
       <r>   21.9817    0.0000 </r>
       <r>   23.5395    0.0000 </r>
       <r>   25.5758    0.0000 </r>
       <r>   27.9843    0.0000 </r>
       <r>   29.5927    0.0000 </r>
       <r>   32.6837    0.0000 </r>
      </set>
      <set comment="kpoint 32">
       <r>    0.8309    1.0000 </r>
       <r>    1.2948    1.0000 </r>
       <r>    2.6515    1.0000 </r>
       <r>    2.9145    1.0000 </r>
       <r>    3.4139    1.0000 </r>
       <r>    4.1315    1.0000 </r>
       <r>    4.5384    1.0000 </r>
       <r>    4.7973    1.0000 </r>
       <r>    5.1313    1.0000 </r>
       <r>    5.7112    0.9419 </r>
       <r>    6.1537   -0.0249 </r>
       <r>    8.1637   -0.0000 </r>
       <r>   13.6603    0.0000 </r>
       <r>   16.5556    0.0000 </r>
       <r>   23.0200    0.0000 </r>
       <r>   23.7794    0.0000 </r>
       <r>   25.0454    0.0000 </r>
       <r>   26.8379    0.0000 </r>
       <r>   30.0505    0.0000 </r>
       <r>   33.1664    0.0000 </r>
      </set>
      <set comment="kpoint 33">
       <r>    0.9973    1.0000 </r>
       <r>    1.1471    1.0000 </r>
       <r>    2.6638    1.0000 </r>
       <r>    2.7517    1.0000 </r>
       <r>    3.7581    1.0000 </r>
       <r>    4.0237    1.0000 </r>
       <r>    4.6535    1.0000 </r>
       <r>    4.7539    1.0000 </r>
       <r>    5.9157    0.2091 </r>
       <r>    5.9466    0.1164 </r>
       <r>    6.0666   -0.0337 </r>
       <r>    7.0236   -0.0000 </r>
       <r>   14.3809    0.0000 </r>
       <r>   15.3698    0.0000 </r>
       <r>   24.1112    0.0000 </r>
       <r>   24.1964    0.0000 </r>
       <r>   24.5399    0.0000 </r>
       <r>   25.4858    0.0000 </r>
       <r>   30.9366    0.0000 </r>
       <r>   31.9882    0.0000 </r>
      </set>
      <set comment="kpoint 34">
       <r>    0.8822    1.0000 </r>
       <r>    1.1425    1.0000 </r>
       <r>    2.5519    1.0000 </r>
       <r>    2.7107    1.0000 </r>
       <r>    3.8795    1.0000 </r>
       <r>    4.6388    1.0000 </r>
       <r>    4.6580    1.0000 </r>
       <r>    4.9151    1.0000 </r>
       <r>    5.1699    1.0000 </r>
       <r>    5.9309    0.1607 </r>
       <r>    6.2101   -0.0128 </r>
       <r>    7.7302   -0.0000 </r>
       <r>   13.2765    0.0000 </r>
       <r>   15.2786    0.0000 </r>
       <r>   23.9251    0.0000 </r>
       <r>   23.9412    0.0000 </r>
       <r>   24.7261    0.0000 </r>
       <r>   26.8079    0.0000 </r>
       <r>   29.4476    0.0000 </r>
       <r>   31.8781    0.0000 </r>
      </set>
      <set comment="kpoint 35">
       <r>    0.9380    1.0000 </r>
       <r>    1.0220    1.0000 </r>
       <r>    2.5271    1.0000 </r>
       <r>    2.5801    1.0000 </r>
       <r>    4.2935    1.0000 </r>
       <r>    4.5961    1.0000 </r>
       <r>    4.7409    1.0000 </r>
       <r>    4.8358    1.0000 </r>
       <r>    5.9798    0.0432 </r>
       <r>    6.0929   -0.0353 </r>
       <r>    6.1884   -0.0171 </r>
       <r>    6.9270   -0.0000 </r>
       <r>   13.5301    0.0000 </r>
       <r>   14.2445    0.0000 </r>
       <r>   24.1350    0.0000 </r>
       <r>   24.4091    0.0000 </r>
       <r>   24.9676    0.0000 </r>
       <r>   26.0174    0.0000 </r>
       <r>   29.8458    0.0000 </r>
       <r>   30.7478    0.0000 </r>
      </set>
      <set comment="kpoint 36">
       <r>    0.9146    1.0000 </r>
       <r>    0.9417    1.0000 </r>
       <r>    2.4658    1.0000 </r>
       <r>    2.4835    1.0000 </r>
       <r>    4.7410    1.0000 </r>
       <r>    4.7984    1.0000 </r>
       <r>    4.8092    1.0000 </r>
       <r>    4.9390    1.0000 </r>
       <r>    6.1812   -0.0186 </r>
       <r>    6.2006   -0.0146 </r>
       <r>    6.2333   -0.0091 </r>
       <r>    6.6018   -0.0000 </r>
       <r>   13.2259    0.0000 </r>
       <r>   13.4923    0.0000 </r>
       <r>   24.1920    0.0000 </r>
       <r>   24.2865    0.0000 </r>
       <r>   25.7243    0.0000 </r>
       <r>   26.1821    0.0000 </r>
       <r>   29.3765    0.0000 </r>
       <r>   29.7842    0.0000 </r>
      </set>
      <set comment="kpoint 37">
       <r>   -2.3216    1.0000 </r>
       <r>    1.1074    1.0000 </r>
       <r>    1.1074    1.0000 </r>
       <r>    3.4846    1.0000 </r>
       <r>    3.4846    1.0000 </r>
       <r>    3.7135    1.0000 </r>
       <r>    4.7215    1.0000 </r>
       <r>    4.7215    1.0000 </r>
       <r>    5.5620    1.0318 </r>
       <r>    5.8985    0.2696 </r>
       <r>    5.8985    0.2696 </r>
       <r>   15.3076    0.0000 </r>
       <r>   15.3076    0.0000 </r>
       <r>   15.7437    0.0000 </r>
       <r>   22.3756    0.0000 </r>
       <r>   22.3756    0.0000 </r>
       <r>   27.4843    0.0000 </r>
       <r>   29.5958    0.0000 </r>
       <r>   29.5958    0.0000 </r>
       <r>   31.1388    0.0000 </r>
      </set>
      <set comment="kpoint 38">
       <r>   -2.0519    1.0000 </r>
       <r>    1.2186    1.0000 </r>
       <r>    1.2253    1.0000 </r>
       <r>    3.4247    1.0000 </r>
       <r>    3.4720    1.0000 </r>
       <r>    3.8473    1.0000 </r>
       <r>    4.6181    1.0000 </r>
       <r>    4.7744    1.0000 </r>
       <r>    5.2723    1.0002 </r>
       <r>    5.6839    0.9870 </r>
       <r>    5.9198    0.1953 </r>
       <r>   13.8936    0.0000 </r>
       <r>   15.7759    0.0000 </r>
       <r>   16.1123    0.0000 </r>
       <r>   22.4980    0.0000 </r>
       <r>   23.4220    0.0000 </r>
       <r>   28.1828    0.0000 </r>
       <r>   28.3665    0.0000 </r>
       <r>   29.1722    0.0000 </r>
       <r>   31.0844    0.0000 </r>
      </set>
      <set comment="kpoint 39">
       <r>   -1.6164    1.0000 </r>
       <r>    1.3948    1.0000 </r>
       <r>    1.3989    1.0000 </r>
       <r>    3.3905    1.0000 </r>
       <r>    3.4547    1.0000 </r>
       <r>    4.0130    1.0000 </r>
       <r>    4.4551    1.0000 </r>
       <r>    4.8567    1.0000 </r>
       <r>    4.9361    1.0000 </r>
       <r>    5.3808    1.0027 </r>
       <r>    5.8590    0.4264 </r>
       <r>   12.1954    0.0000 </r>
       <r>   16.4938    0.0000 </r>
       <r>   16.8061    0.0000 </r>
       <r>   22.7123    0.0000 </r>
       <r>   24.2397    0.0000 </r>
       <r>   26.7440    0.0000 </r>
       <r>   28.2290    0.0000 </r>
       <r>   30.0065    0.0000 </r>
       <r>   30.5362    0.0000 </r>
      </set>
      <set comment="kpoint 40">
       <r>   -1.0390    1.0000 </r>
       <r>    1.5734    1.0000 </r>
       <r>    1.6409    1.0000 </r>
       <r>    3.3926    1.0000 </r>
       <r>    3.4307    1.0000 </r>
       <r>    4.2081    1.0000 </r>
       <r>    4.2524    1.0000 </r>
       <r>    4.5928    1.0000 </r>
       <r>    4.9670    1.0000 </r>
       <r>    5.0417    1.0000 </r>
       <r>    5.7317    0.8959 </r>
       <r>   10.5134   -0.0000 </r>
       <r>   17.3963    0.0000 </r>
       <r>   17.7043    0.0000 </r>
       <r>   23.0343    0.0000 </r>
       <r>   24.8006    0.0000 </r>
       <r>   25.3824    0.0000 </r>
       <r>   26.8925    0.0000 </r>
       <r>   29.5209    0.0000 </r>
       <r>   31.5201    0.0000 </r>
      </set>
      <set comment="kpoint 41">
       <r>   -0.3608    1.0000 </r>
       <r>    1.6975    1.0000 </r>
       <r>    1.9335    1.0000 </r>
       <r>    3.3738    1.0000 </r>
       <r>    3.4398    1.0000 </r>
       <r>    4.0587    1.0000 </r>
       <r>    4.2794    1.0000 </r>
       <r>    4.4275    1.0000 </r>
       <r>    4.7093    1.0000 </r>
       <r>    5.1202    1.0000 </r>
       <r>    5.5546    1.0304 </r>
       <r>    8.9578   -0.0000 </r>
       <r>   18.4222    0.0000 </r>
       <r>   18.7563    0.0000 </r>
       <r>   23.4866    0.0000 </r>
       <r>   24.1150    0.0000 </r>
       <r>   25.3021    0.0000 </r>
       <r>   25.4170    0.0000 </r>
       <r>   28.2817    0.0000 </r>
       <r>   30.0856    0.0000 </r>
      </set>
      <set comment="kpoint 42">
       <r>    0.3503    1.0000 </r>
       <r>    1.6849    1.0000 </r>
       <r>    2.2622    1.0000 </r>
       <r>    3.2171    1.0000 </r>
       <r>    3.5350    1.0000 </r>
       <r>    3.9660    1.0000 </r>
       <r>    4.0233    1.0000 </r>
       <r>    4.4142    1.0000 </r>
       <r>    4.6590    1.0000 </r>
       <r>    5.3442    1.0012 </r>
       <r>    5.3677    1.0020 </r>
       <r>    7.6090   -0.0000 </r>
       <r>   19.5184    0.0000 </r>
       <r>   19.9247    0.0000 </r>
       <r>   22.9238    0.0000 </r>
       <r>   23.9438    0.0000 </r>
       <r>   24.0968    0.0000 </r>
       <r>   25.8890    0.0000 </r>
       <r>   27.0265    0.0000 </r>
       <r>   28.7571    0.0000 </r>
      </set>
      <set comment="kpoint 43">
       <r>    0.9934    1.0000 </r>
       <r>    1.4582    1.0000 </r>
       <r>    2.6077    1.0000 </r>
       <r>    2.9418    1.0000 </r>
       <r>    3.6687    1.0000 </r>
       <r>    3.8276    1.0000 </r>
       <r>    4.0181    1.0000 </r>
       <r>    4.1775    1.0000 </r>
       <r>    4.8889    1.0000 </r>
       <r>    5.1177    1.0000 </r>
       <r>    5.8082    0.6392 </r>
       <r>    6.5438   -0.0000 </r>
       <r>   20.6433    0.0000 </r>
       <r>   21.1857    0.0000 </r>
       <r>   21.7761    0.0000 </r>
       <r>   22.5276    0.0000 </r>
       <r>   24.8899    0.0000 </r>
       <r>   25.8744    0.0000 </r>
       <r>   26.6426    0.0000 </r>
       <r>   27.5989    0.0000 </r>
      </set>
      <set comment="kpoint 44">
       <r>   -1.7890    1.0000 </r>
       <r>    1.3175    1.0000 </r>
       <r>    1.3490    1.0000 </r>
       <r>    3.3365    1.0000 </r>
       <r>    3.4278    1.0000 </r>
       <r>    4.0242    1.0000 </r>
       <r>    4.6245    1.0000 </r>
       <r>    4.7483    1.0000 </r>
       <r>    4.9439    1.0000 </r>
       <r>    5.5587    1.0312 </r>
       <r>    5.9309    0.1606 </r>
       <r>   13.9075    0.0000 </r>
       <r>   14.7763    0.0000 </r>
       <r>   16.4090    0.0000 </r>
       <r>   23.0409    0.0000 </r>
       <r>   24.2929    0.0000 </r>
       <r>   27.0746    0.0000 </r>
       <r>   28.4649    0.0000 </r>
       <r>   29.0626    0.0000 </r>
       <r>   31.2857    0.0000 </r>
      </set>
      <set comment="kpoint 45">
       <r>   -1.3663    1.0000 </r>
       <r>    1.4663    1.0000 </r>
       <r>    1.5372    1.0000 </r>
       <r>    3.2581    1.0000 </r>
       <r>    3.3885    1.0000 </r>
       <r>    4.2323    1.0000 </r>
       <r>    4.5273    1.0000 </r>
       <r>    4.5891    1.0000 </r>
       <r>    4.8112    1.0000 </r>
       <r>    5.2827    1.0003 </r>
       <r>    5.9234    0.1837 </r>
       <r>   12.4672    0.0000 </r>
       <r>   15.1475    0.0000 </r>
       <r>   17.0550    0.0000 </r>
       <r>   23.3372    0.0000 </r>
       <r>   25.3215    0.0000 </r>
       <r>   25.5998    0.0000 </r>
       <r>   27.6459    0.0000 </r>
       <r>   30.4586    0.0000 </r>
       <r>   30.9094    0.0000 </r>
      </set>
      <set comment="kpoint 46">
       <r>   -0.8104    1.0000 </r>
       <r>    1.6357    1.0000 </r>
       <r>    1.7652    1.0000 </r>
       <r>    3.2158    1.0000 </r>
       <r>    3.3457    1.0000 </r>
       <r>    4.2486    1.0000 </r>
       <r>    4.3802    1.0000 </r>
       <r>    4.4663    1.0000 </r>
       <r>    4.9216    1.0000 </r>
       <r>    4.9698    1.0000 </r>
       <r>    5.8485    0.4709 </r>
       <r>   10.7969   -0.0000 </r>
       <r>   15.9366    0.0000 </r>
       <r>   17.8981    0.0000 </r>
       <r>   23.6805    0.0000 </r>
       <r>   24.1400    0.0000 </r>
       <r>   26.0812    0.0000 </r>
       <r>   26.4312    0.0000 </r>
       <r>   29.9347    0.0000 </r>
       <r>   31.4690    0.0000 </r>
      </set>
      <set comment="kpoint 47">
       <r>   -0.1664    1.0000 </r>
       <r>    1.7540    1.0000 </r>
       <r>    2.0248    1.0000 </r>
       <r>    3.1937    1.0000 </r>
       <r>    3.3084    1.0000 </r>
       <r>    3.9588    1.0000 </r>
       <r>    4.2486    1.0000 </r>
       <r>    4.6768    1.0000 </r>
       <r>    4.7056    1.0000 </r>
       <r>    5.0834    1.0000 </r>
       <r>    5.7122    0.9398 </r>
       <r>    9.2256   -0.0000 </r>
       <r>   16.8696    0.0000 </r>
       <r>   18.8882    0.0000 </r>
       <r>   22.7490    0.0000 </r>
       <r>   24.1347    0.0000 </r>
       <r>   25.0621    0.0000 </r>
       <r>   26.7239    0.0000 </r>
       <r>   28.7511    0.0000 </r>
[...]
       </set>
       <set comment="band 16">
        <r>  0.0000  0.0825  0.0000  0.0825  0.0000  0.1081  0.0000  0.1081  0.0014 </r>
        <r>  0.0000  0.0825  0.0000  0.0825  0.0000  0.1081  0.0000  0.1081  0.0014 </r>
       </set>
       <set comment="band 17">
        <r>  0.2234  0.0009  0.1383  0.0009  0.0238  0.0008  0.0076  0.0008  0.0000 </r>
        <r>  0.2234  0.0009  0.1383  0.0009  0.0238  0.0008  0.0076  0.0008  0.0000 </r>
       </set>
       <set comment="band 18">
        <r>  0.1366  0.0310  0.1006  0.0310  0.0239  0.0304  0.0039  0.0304  0.0000 </r>
        <r>  0.1366  0.0310  0.1006  0.0310  0.0239  0.0304  0.0039  0.0304  0.0000 </r>
       </set>
       <set comment="band 19">
        <r>  0.0005  0.0000  0.0045  0.0000  0.0030  0.0713  0.0243  0.0713  0.0000 </r>
        <r>  0.0005  0.0000  0.0045  0.0000  0.0030  0.0713  0.0243  0.0713  0.0000 </r>
       </set>
       <set comment="band 20">
        <r>  0.0000  0.0000  0.0000  0.0000  0.0000  0.0777  0.0000  0.0777  0.0009 </r>
        <r>  0.0000  0.0000  0.0000  0.0000  0.0000  0.0777  0.0000  0.0777  0.0009 </r>
       </set>
      </set>
      <set comment="kpoint 117">
       <set comment="band 1">
        <r>  0.0196  0.0074  0.0074  0.0074  0.1393  0.1392  0.0000  0.1392  0.0000 </r>
        <r>  0.0196  0.0074  0.0074  0.0074  0.1393  0.1392  0.0000  0.1392  0.0000 </r>
       </set>
       <set comment="band 2">
        <r>  0.0479  0.0417  0.0418  0.0417  0.0815  0.0814  0.0000  0.0814  0.0000 </r>
        <r>  0.0479  0.0417  0.0418  0.0417  0.0815  0.0814  0.0000  0.0814  0.0000 </r>
       </set>
       <set comment="band 3">
        <r>  0.0000  0.0070  0.0303  0.0082  0.2635  0.0712  0.0160  0.0608  0.0000 </r>
        <r>  0.0000  0.0070  0.0303  0.0082  0.2635  0.0712  0.0160  0.0608  0.0000 </r>
       </set>
       <set comment="band 4">
        <r>  0.0000  0.0234  0.0000  0.0222  0.0001  0.1925  0.0000  0.2029  0.0160 </r>
        <r>  0.0000  0.0234  0.0000  0.0222  0.0001  0.1925  0.0000  0.2029  0.0160 </r>
       </set>
       <set comment="band 5">
        <r>  0.0000  0.0159  0.0656  0.0169  0.1999  0.0515  0.0392  0.0486  0.0000 </r>
        <r>  0.0000  0.0159  0.0656  0.0169  0.1999  0.0515  0.0392  0.0486  0.0000 </r>
       </set>
       <set comment="band 6">
        <r>  0.0000  0.0497  0.0000  0.0487  0.0000  0.1485  0.0000  0.1514  0.0392 </r>
        <r>  0.0000  0.0497  0.0000  0.0487  0.0000  0.1485  0.0000  0.1514  0.0392 </r>
       </set>
       <set comment="band 7">
        <r>  0.0000  0.0001  0.0003  0.0001  0.0369  0.0069  0.4336  0.0119  0.0027 </r>
        <r>  0.0000  0.0001  0.0003  0.0001  0.0369  0.0069  0.4336  0.0119  0.0027 </r>
       </set>
       <set comment="band 8">
        <r>  0.0000  0.0002  0.0000  0.0003  0.0002  0.0302  0.0027  0.0252  0.4336 </r>
        <r>  0.0000  0.0002  0.0000  0.0003  0.0002  0.0302  0.0027  0.0252  0.4336 </r>
       </set>
       <set comment="band 9">
        <r>  0.0000  0.0000  0.0000  0.0000  0.0141  0.0026  0.4682  0.0046  0.0033 </r>
        <r>  0.0000  0.0000  0.0000  0.0000  0.0141  0.0026  0.4682  0.0046  0.0033 </r>
       </set>
       <set comment="band 10">
        <r>  0.0000  0.0000  0.0000  0.0000  0.0001  0.0116  0.0033  0.0096  0.4682 </r>
        <r>  0.0000  0.0000  0.0000  0.0000  0.0001  0.0116  0.0033  0.0096  0.4682 </r>
       </set>
       <set comment="band 11">
        <r>  0.0387  0.0361  0.0361  0.0361  0.0996  0.0996  0.0000  0.0996  0.0000 </r>
        <r>  0.0387  0.0361  0.0361  0.0361  0.0996  0.0996  0.0000  0.0996  0.0000 </r>
       </set>
       <set comment="band 12">
        <r>  0.0000  0.0295  0.1226  0.0318  0.1407  0.0365  0.0256  0.0339  0.0000 </r>
        <r>  0.0000  0.0295  0.1226  0.0318  0.1407  0.0365  0.0256  0.0339  0.0000 </r>
       </set>
       <set comment="band 13">
        <r>  0.0000  0.0931  0.0000  0.0908  0.0000  0.1043  0.0000  0.1068  0.0256 </r>
        <r>  0.0000  0.0931  0.0000  0.0908  0.0000  0.1043  0.0000  0.1068  0.0256 </r>
       </set>
       <set comment="band 14">
        <r>  0.2771  0.0033  0.0033  0.0033  0.0430  0.0430  0.0000  0.0430  0.0000 </r>
        <r>  0.2771  0.0033  0.0033  0.0033  0.0430  0.0430  0.0000  0.0430  0.0000 </r>
       </set>
       <set comment="band 15">
        <r>  0.0000  0.0254  0.1146  0.0321  0.1411  0.0395  0.0140  0.0313  0.0000 </r>
        <r>  0.0000  0.0254  0.1146  0.0321  0.1411  0.0395  0.0140  0.0313  0.0000 </r>
       </set>
       <set comment="band 16">
        <r>  0.0000  0.0893  0.0001  0.0827  0.0002  0.1018  0.0000  0.1100  0.0140 </r>
        <r>  0.0000  0.0893  0.0001  0.0827  0.0002  0.1018  0.0000  0.1100  0.0140 </r>
       </set>
       <set comment="band 17">
        <r>  0.3109  0.0300  0.0300  0.0300  0.0000  0.0000  0.0000  0.0000  0.0000 </r>
        <r>  0.3109  0.0300  0.0300  0.0300  0.0000  0.0000  0.0000  0.0000  0.0000 </r>
       </set>
       <set comment="band 18">
        <r>  0.0943  0.0585  0.0585  0.0585  0.0381  0.0381  0.0000  0.0381  0.0000 </r>
        <r>  0.0943  0.0585  0.0585  0.0585  0.0381  0.0381  0.0000  0.0381  0.0000 </r>
       </set>
       <set comment="band 19">
        <r>  0.0000  0.0105  0.0002  0.0080  0.0005  0.0226  0.0013  0.0295  0.0947 </r>
        <r>  0.0000  0.0105  0.0002  0.0080  0.0005  0.0226  0.0013  0.0295  0.0947 </r>
       </set>
       <set comment="band 20">
        <r>  0.0000  0.0020  0.0123  0.0044  0.0346  0.0124  0.0947  0.0055  0.0013 </r>
        <r>  0.0000  0.0020  0.0123  0.0044  0.0346  0.0124  0.0947  0.0055  0.0013 </r>
       </set>
      </set>
      <set comment="kpoint 118">
       <set comment="band 1">
        <r>  0.0167  0.0174  0.0175  0.0018  0.1572  0.0840  0.0009  0.1571  0.0027 </r>
        <r>  0.0167  0.0174  0.0175  0.0018  0.1572  0.0840  0.0009  0.1571  0.0027 </r>
       </set>
       <set comment="band 2">
        <r>  0.0189  0.0300  0.0301  0.0000  0.1587  0.0431  0.0019  0.1585  0.0056 </r>
        <r>  0.0189  0.0300  0.0301  0.0000  0.1587  0.0431  0.0019  0.1585  0.0056 </r>
       </set>
       <set comment="band 3">
        <r>  0.0000  0.0307  0.0307  0.0000  0.1839  0.0000  0.0162  0.1841  0.0054 </r>
        <r>  0.0000  0.0307  0.0307  0.0000  0.1839  0.0000  0.0162  0.1841  0.0054 </r>
       </set>
       <set comment="band 4">
        <r>  0.0000  0.0395  0.0395  0.0000  0.1682  0.0000  0.0217  0.1683  0.0072 </r>
        <r>  0.0000  0.0395  0.0395  0.0000  0.1682  0.0000  0.0217  0.1683  0.0072 </r>
       </set>
       <set comment="band 5">
        <r>  0.0099  0.0097  0.0097  0.0803  0.0045  0.3189  0.0000  0.0045  0.0000 </r>
        <r>  0.0099  0.0097  0.0097  0.0803  0.0045  0.3189  0.0000  0.0045  0.0000 </r>
       </set>
       <set comment="band 6">
        <r>  0.0021  0.0138  0.0138  0.0788  0.0199  0.2763  0.0030  0.0199  0.0091 </r>
        <r>  0.0021  0.0138  0.0138  0.0788  0.0199  0.2763  0.0030  0.0199  0.0091 </r>
       </set>
       <set comment="band 7">
        <r>  0.0000  0.0001  0.0001  0.0000  0.0202  0.0000  0.3395  0.0201  0.1126 </r>
        <r>  0.0000  0.0001  0.0001  0.0000  0.0202  0.0000  0.3395  0.0201  0.1126 </r>
       </set>
       <set comment="band 8">
        <r>  0.0000  0.0000  0.0000  0.0000  0.0147  0.0000  0.3480  0.0146  0.1153 </r>
        <r>  0.0000  0.0000  0.0000  0.0000  0.0147  0.0000  0.3480  0.0146  0.1153 </r>
       </set>
       <set comment="band 9">
        <r>  0.0001  0.0000  0.0000  0.0001  0.0073  0.0087  0.1170  0.0073  0.3528 </r>
        <r>  0.0001  0.0000  0.0000  0.0001  0.0073  0.0087  0.1170  0.0073  0.3528 </r>
       </set>
       <set comment="band 10">
        <r>  0.0001  0.0000  0.0000  0.0000  0.0052  0.0003  0.1202  0.0052  0.3625 </r>
        <r>  0.0001  0.0000  0.0000  0.0000  0.0052  0.0003  0.1202  0.0052  0.3625 </r>
       </set>
       <set comment="band 11">
        <r>  0.0346  0.0348  0.0348  0.0607  0.0805  0.1079  0.0006  0.0805  0.0017 </r>
        <r>  0.0346  0.0348  0.0348  0.0607  0.0805  0.1079  0.0006  0.0805  0.0017 </r>
       </set>
       <set comment="band 12">
        <r>  0.0182  0.0337  0.0337  0.0929  0.0605  0.1163  0.0026  0.0605  0.0079 </r>
        <r>  0.0182  0.0337  0.0337  0.0929  0.0605  0.1163  0.0026  0.0605  0.0079 </r>
       </set>
       <set comment="band 13">
        <r>  0.0000  0.0917  0.0917  0.0000  0.1056  0.0000  0.0152  0.1056  0.0051 </r>
        <r>  0.0000  0.0917  0.0917  0.0000  0.1056  0.0000  0.0152  0.1056  0.0051 </r>
       </set>
       <set comment="band 14">
        <r>  0.0000  0.0896  0.0896  0.0000  0.1059  0.0000  0.0124  0.1059  0.0041 </r>
        <r>  0.0000  0.0896  0.0896  0.0000  0.1059  0.0000  0.0124  0.1059  0.0041 </r>
       </set>
       <set comment="band 15">
        <r>  0.2323  0.0008  0.0008  0.0438  0.0307  0.0712  0.0000  0.0307  0.0000 </r>
        <r>  0.2323  0.0008  0.0008  0.0438  0.0307  0.0712  0.0000  0.0307  0.0000 </r>
       </set>
       <set comment="band 16">
        <r>  0.1373  0.0025  0.0025  0.1018  0.0306  0.0946  0.0005  0.0306  0.0016 </r>
        <r>  0.1373  0.0025  0.0025  0.1018  0.0306  0.0946  0.0005  0.0306  0.0016 </r>
       </set>
       <set comment="band 17">
        <r>  0.1980  0.0586  0.0586  0.0105  0.0160  0.0345  0.0006  0.0160  0.0017 </r>
        <r>  0.1980  0.0586  0.0586  0.0105  0.0160  0.0345  0.0006  0.0160  0.0017 </r>
       </set>
       <set comment="band 18">
        <r>  0.1273  0.0606  0.0606  0.0375  0.0299  0.0420  0.0002  0.0299  0.0005 </r>
        <r>  0.1273  0.0606  0.0606  0.0375  0.0299  0.0420  0.0002  0.0299  0.0005 </r>
       </set>
       <set comment="band 19">
        <r>  0.0000  0.0059  0.0059  0.0000  0.0309  0.0000  0.0463  0.0309  0.0154 </r>
        <r>  0.0000  0.0059  0.0059  0.0000  0.0309  0.0000  0.0463  0.0309  0.0154 </r>
       </set>
       <set comment="band 20">
        <r>  0.0000  0.0021  0.0021  0.0000  0.0244  0.0000  0.0172  0.0244  0.0057 </r>
        <r>  0.0000  0.0021  0.0021  0.0000  0.0244  0.0000  0.0172  0.0244  0.0057 </r>
       </set>
      </set>
      <set comment="kpoint 119">
       <set comment="band 1">
        <r>  0.0112  0.0057  0.0384  0.0057  0.2379  0.0732  0.0070  0.0732  0.0000 </r>
        <r>  0.0112  0.0057  0.0384  0.0057  0.2379  0.0732  0.0070  0.0732  0.0000 </r>
       </set>
       <set comment="band 2">
        <r>  0.0118  0.0004  0.0681  0.0004  0.3488  0.0000  0.0153  0.0000  0.0000 </r>
        <r>  0.0118  0.0004  0.0681  0.0004  0.3488  0.0000  0.0153  0.0000  0.0000 </r>
       </set>
       <set comment="band 3">
        <r>  0.0000  0.0244  0.0000  0.0244  0.0000  0.2031  0.0000  0.2031  0.0019 </r>
        <r>  0.0000  0.0244  0.0000  0.0244  0.0000  0.2031  0.0000  0.2031  0.0019 </r>
       </set>
       <set comment="band 4">
        <r>  0.0008  0.0189  0.0301  0.0189  0.1114  0.1290  0.0115  0.1290  0.0000 </r>
        <r>  0.0008  0.0189  0.0301  0.0189  0.1114  0.1290  0.0115  0.1290  0.0000 </r>
       </set>
       <set comment="band 5">
        <r>  0.0036  0.0533  0.0003  0.0533  0.0011  0.1622  0.0008  0.1623  0.0000 </r>
        <r>  0.0036  0.0533  0.0003  0.0533  0.0011  0.1622  0.0008  0.1623  0.0000 </r>
       </set>
       <set comment="band 6">
        <r>  0.0000  0.0537  0.0000  0.0537  0.0000  0.1627  0.0000  0.1627  0.0047 </r>
        <r>  0.0000  0.0537  0.0000  0.0537  0.0000  0.1627  0.0000  0.1627  0.0047 </r>
       </set>
       <set comment="band 7">
        <r>  0.0001  0.0000  0.0001  0.0000  0.0239  0.0010  0.4671  0.0010  0.0000 </r>
        <r>  0.0001  0.0000  0.0001  0.0000  0.0239  0.0010  0.4671  0.0010  0.0000 </r>
       </set>
       <set comment="band 8">
        <r>  0.0001  0.0000  0.0001  0.0000  0.0214  0.0004  0.4709  0.0004  0.0000 </r>
        <r>  0.0001  0.0000  0.0001  0.0000  0.0214  0.0004  0.4709  0.0004  0.0000 </r>
       </set>
       <set comment="band 9">
        <r>  0.0000  0.0000  0.0000  0.0000  0.0000  0.0034  0.0000  0.0034  0.4869 </r>
        <r>  0.0000  0.0000  0.0000  0.0000  0.0000  0.0034  0.0000  0.0034  0.4869 </r>
       </set>
       <set comment="band 10">
        <r>  0.0000  0.0000  0.0000  0.0000  0.0000  0.0013  0.0000  0.0013  0.4913 </r>
        <r>  0.0000  0.0000  0.0000  0.0000  0.0000  0.0013  0.0000  0.0013  0.4913 </r>
       </set>
       <set comment="band 11">
        <r>  0.0236  0.0660  0.0209  0.0660  0.0454  0.1020  0.0006  0.1020  0.0000 </r>
        <r>  0.0236  0.0660  0.0209  0.0660  0.0454  0.1020  0.0006  0.1020  0.0000 </r>
       </set>
       <set comment="band 12">
        <r>  0.0000  0.0901  0.0000  0.0901  0.0000  0.1179  0.0000  0.1179  0.0032 </r>
        <r>  0.0000  0.0901  0.0000  0.0901  0.0000  0.1179  0.0000  0.1179  0.0032 </r>
       </set>
       <set comment="band 13">
        <r>  0.0655  0.0069  0.1183  0.0069  0.2018  0.0047  0.0120  0.0047  0.0000 </r>
        <r>  0.0655  0.0069  0.1183  0.0069  0.2018  0.0047  0.0120  0.0047  0.0000 </r>
       </set>
       <set comment="band 14">
        <r>  0.0621  0.0226  0.0930  0.0226  0.1659  0.0193  0.0099  0.0193  0.0000 </r>
        <r>  0.0621  0.0226  0.0930  0.0226  0.1659  0.0193  0.0099  0.0193  0.0000 </r>
       </set>
       <set comment="band 15">
        <r>  0.1369  0.0495  0.0056  0.0495  0.0010  0.0806  0.0007  0.0806  0.0000 </r>
        <r>  0.1369  0.0495  0.0056  0.0495  0.0010  0.0806  0.0007  0.0806  0.0000 </r>
       </set>
       <set comment="band 16">
        <r>  0.0000  0.0868  0.0000  0.0868  0.0000  0.1109  0.0000  0.1109  0.0016 </r>
        <r>  0.0000  0.0868  0.0000  0.0868  0.0000  0.1109  0.0000  0.1109  0.0016 </r>
       </set>
       <set comment="band 17">
        <r>  0.3004  0.0018  0.0757  0.0018  0.0180  0.0003  0.0018  0.0003  0.0000 </r>
        <r>  0.3004  0.0018  0.0757  0.0018  0.0180  0.0003  0.0018  0.0003  0.0000 </r>
       </set>
       <set comment="band 18">
        <r>  0.1865  0.0311  0.0662  0.0311  0.0245  0.0269  0.0009  0.0269  0.0000 </r>
        <r>  0.1865  0.0311  0.0662  0.0311  0.0245  0.0269  0.0009  0.0269  0.0000 </r>
       </set>
       <set comment="band 19">
        <r>  0.0001  0.0005  0.0043  0.0005  0.0088  0.0380  0.0244  0.0380  0.0000 </r>
        <r>  0.0001  0.0005  0.0043  0.0005  0.0088  0.0380  0.0244  0.0380  0.0000 </r>
       </set>
       <set comment="band 20">
        <r>  0.0000  0.0003  0.0000  0.0003  0.0000  0.0403  0.0000  0.0403  0.0012 </r>
        <r>  0.0000  0.0003  0.0000  0.0003  0.0000  0.0403  0.0000  0.0403  0.0012 </r>
       </set>
      </set>
      <set comment="kpoint 120">
       <set comment="band 1">
        <r>  0.0033  0.0188  0.0188  0.0188  0.1312  0.1311  0.0000  0.1311  0.0000 </r>
        <r>  0.0033  0.0188  0.0188  0.0188  0.1312  0.1311  0.0000  0.1311  0.0000 </r>
       </set>
       <set comment="band 2">
        <r>  0.0000  0.0099  0.0440  0.0121  0.2549  0.0700  0.0025  0.0576  0.0000 </r>
        <r>  0.0000  0.0099  0.0440  0.0121  0.2549  0.0700  0.0025  0.0576  0.0000 </r>
       </set>
       <set comment="band 3">
        <r>  0.0000  0.0341  0.0000  0.0319  0.0002  0.1849  0.0000  0.1973  0.0025 </r>
        <r>  0.0000  0.0341  0.0000  0.0319  0.0002  0.1849  0.0000  0.1973  0.0025 </r>
       </set>
       <set comment="band 4">
        <r>  0.0000  0.0129  0.0570  0.0156  0.2368  0.0650  0.0034  0.0538  0.0000 </r>
        <r>  0.0000  0.0129  0.0570  0.0156  0.2368  0.0650  0.0034  0.0538  0.0000 </r>
       </set>
       <set comment="band 5">
        <r>  0.0000  0.0441  0.0000  0.0414  0.0002  0.1721  0.0000  0.1833  0.0034 </r>
        <r>  0.0000  0.0441  0.0000  0.0414  0.0002  0.1721  0.0000  0.1833  0.0034 </r>
       </set>
       <set comment="band 6">
        <r>  0.0045  0.0318  0.0318  0.0318  0.1133  0.1135  0.0000  0.1135  0.0000 </r>
        <r>  0.0045  0.0318  0.0318  0.0318  0.1133  0.1135  0.0000  0.1135  0.0000 </r>
       </set>
       <set comment="band 7">
        <r>  0.0000  0.0000  0.0000  0.0000  0.0032  0.0006  0.4855  0.0011  0.0036 </r>
        <r>  0.0000  0.0000  0.0000  0.0000  0.0032  0.0006  0.4855  0.0011  0.0036 </r>
       </set>
       <set comment="band 8">
        <r>  0.0000  0.0000  0.0000  0.0000  0.0000  0.0026  0.0036  0.0022  0.4854 </r>
        <r>  0.0000  0.0000  0.0000  0.0000  0.0000  0.0026  0.0036  0.0022  0.4854 </r>
       </set>
       <set comment="band 9">
        <r>  0.0000  0.0000  0.0000  0.0000  0.0023  0.0004  0.4868  0.0008  0.0036 </r>
        <r>  0.0000  0.0000  0.0000  0.0000  0.0023  0.0004  0.4868  0.0008  0.0036 </r>
       </set>
       <set comment="band 10">
        <r>  0.0000  0.0000  0.0000  0.0000  0.0000  0.0019  0.0036  0.0016  0.4868 </r>
        <r>  0.0000  0.0000  0.0000  0.0000  0.0000  0.0019  0.0036  0.0016  0.4868 </r>
       </set>
       <set comment="band 11">
        <r>  0.0206  0.0542  0.0542  0.0542  0.0788  0.0788  0.0000  0.0788  0.0000 </r>
        <r>  0.0206  0.0542  0.0542  0.0542  0.0788  0.0788  0.0000  0.0788  0.0000 </r>
       </set>
       <set comment="band 12">
        <r>  0.0000  0.0256  0.1211  0.0353  0.1524  0.0444  0.0024  0.0323  0.0000 </r>
        <r>  0.0000  0.0256  0.1211  0.0353  0.1524  0.0444  0.0024  0.0323  0.0000 </r>
       </set>
       <set comment="band 13">
        <r>  0.0000  0.0957  0.0003  0.0861  0.0003  0.1083  0.0000  0.1204  0.0024 </r>
        <r>  0.0000  0.0957  0.0003  0.0861  0.0003  0.1083  0.0000  0.1204  0.0024 </r>
       </set>
       <set comment="band 14">
        <r>  0.0000  0.0246  0.1194  0.0356  0.1496  0.0446  0.0019  0.0309  0.0000 </r>
        <r>  0.0000  0.0246  0.1194  0.0356  0.1496  0.0446  0.0019  0.0309  0.0000 </r>
       </set>
       <set comment="band 15">
        <r>  0.0000  0.0951  0.0003  0.0842  0.0004  0.1055  0.0000  0.1192  0.0019 </r>
        <r>  0.0000  0.0951  0.0003  0.0842  0.0004  0.1055  0.0000  0.1192  0.0019 </r>
       </set>
       <set comment="band 16">
        <r>  0.1142  0.0368  0.0368  0.0368  0.0617  0.0617  0.0000  0.0617  0.0000 </r>
        <r>  0.1142  0.0368  0.0368  0.0368  0.0617  0.0617  0.0000  0.0617  0.0000 </r>
       </set>
       <set comment="band 17">
        <r>  0.3797  0.0073  0.0073  0.0073  0.0009  0.0009  0.0000  0.0009  0.0000 </r>
        <r>  0.3797  0.0073  0.0073  0.0073  0.0009  0.0009  0.0000  0.0009  0.0000 </r>
       </set>
       <set comment="band 18">
        <r>  0.2871  0.0233  0.0233  0.0233  0.0145  0.0145  0.0000  0.0145  0.0000 </r>
        <r>  0.2871  0.0233  0.0233  0.0233  0.0145  0.0145  0.0000  0.0145  0.0000 </r>
       </set>
       <set comment="band 19">
        <r>  0.0000  0.0007  0.0036  0.0027  0.0236  0.0182  0.0134  0.0048  0.0043 </r>
        <r>  0.0000  0.0007  0.0036  0.0027  0.0236  0.0182  0.0134  0.0048  0.0043 </r>
       </set>
       <set comment="band 20">
        <r>  0.0000  0.0021  0.0006  0.0010  0.0041  0.0071  0.0023  0.0145  0.0073 </r>
        <r>  0.0000  0.0021  0.0006  0.0010  0.0041  0.0071  0.0023  0.0145  0.0073 </r>
       </set>
      </set>
     </set>
    </set>
   </array>
  </projected>
 </calculation>
 <structure name="finalpos" >
  <crystal>
   <varray name="basis" >
    <v>       2.83045604      -0.00000000       0.00000000 </v>
    <v>       0.00000000       2.83045604       0.00000000 </v>
    <v>      -0.00000000       0.00000000       2.83045604 </v>
   </varray>
   <i name="volume">     22.67614586 </i>
   <varray name="rec_basis" >
    <v>       0.35329996      -0.00000000       0.00000000 </v>
    <v>       0.00000000       0.35329996      -0.00000000 </v>
    <v>      -0.00000000      -0.00000000       0.35329996 </v>
   </varray>
  </crystal>
  <varray name="positions" >
   <v>       0.00000000      -0.00000000       0.00000000 </v>
   <v>       0.50000000       0.50000000       0.50000000 </v>
  </varray>
 </structure>
</modeling>
