   2   2   1   0
  0.1136426E+02  0.2832634E-09  0.2832634E-09  0.2832634E-09  0.5000000E-15
  1.000000000000000E-004
  CAR 
 unknown system                          
     27.05829958     -4.39062664  301      5.82632181      1.00000000
     -4.391  0.0000E+00  0.0000E+00
     -4.286  0.0000E+00  0.0000E+00
     -4.181  0.0000E+00  0.0000E+00
     -4.076 -0.5061E-31 -0.5305E-32
     -3.971 -0.2476E-27 -0.2596E-28
     -3.866 -0.6962E-24 -0.7301E-25
     -3.762 -0.1124E-20 -0.1179E-21
     -3.657 -0.1042E-17 -0.1093E-18
     -3.552 -0.5366E-15 -0.5636E-16
     -3.447 -0.1622E-12 -0.1705E-13
     -3.342 -0.2790E-10 -0.2941E-11
     -3.237 -0.2723E-08 -0.2884E-09
     -3.133 -0.1497E-06 -0.1598E-07
     -3.028 -0.4586E-05 -0.4968E-06
     -2.923 -0.7662E-04 -0.8529E-05
     -2.818 -0.6674E-03 -0.7849E-04
     -2.713 -0.2668E-02 -0.3582E-03
     -2.609 -0.2051E-02 -0.5731E-03
     -2.504  0.1662E-01  0.1169E-02
     -2.399  0.5322E-01  0.6748E-02
     -2.294  0.7630E-01  0.1475E-01
     -2.189  0.7612E-01  0.2273E-01
     -2.084  0.5156E-01  0.2813E-01
     -1.980  0.1869E-01  0.3009E-01
     -1.875  0.5547E-01  0.3590E-01
     -1.770  0.1609E+00  0.5277E-01
     -1.665  0.2228E+00  0.7613E-01
     -1.560  0.2230E+00  0.9951E-01
     -1.455  0.1686E+00  0.1172E+00
     -1.351  0.8621E-01  0.1262E+00
     -1.246  0.1055E+00  0.1373E+00
     -1.141  0.1843E+00  0.1566E+00
     -1.036  0.2060E+00  0.1782E+00
     -0.931  0.1953E+00  0.1987E+00
     -0.826  0.1502E+00  0.2144E+00
     -0.722  0.1447E+00  0.2296E+00
     -0.617  0.2202E+00  0.2527E+00
     -0.512  0.2351E+00  0.2773E+00
     -0.407  0.2374E+00  0.3022E+00
     -0.302  0.3279E+00  0.3366E+00
     -0.197  0.4176E+00  0.3804E+00
     -0.093  0.3649E+00  0.4186E+00
      0.012  0.2405E+00  0.4438E+00
      0.117  0.3007E+00  0.4753E+00
      0.222  0.4131E+00  0.5186E+00
      0.327  0.3651E+00  0.5569E+00
      0.432  0.2835E+00  0.5866E+00
      0.536  0.2834E+00  0.6163E+00
      0.641  0.3379E+00  0.6518E+00
      0.746  0.3884E+00  0.6925E+00
      0.851  0.6422E+00  0.7598E+00
      0.956  0.1218E+01  0.8875E+00
      1.061  0.1448E+01  0.1039E+01
      1.165  0.1091E+01  0.1154E+01
      1.270  0.1000E+01  0.1258E+01
      1.375  0.1540E+01  0.1420E+01
      1.480  0.2157E+01  0.1646E+01
      1.585  0.2376E+01  0.1895E+01
      1.689  0.2106E+01  0.2116E+01
      1.794  0.1705E+01  0.2294E+01
      1.899  0.1677E+01  0.2470E+01
      2.004  0.1841E+01  0.2663E+01
      2.109  0.1662E+01  0.2838E+01
      2.214  0.1176E+01  0.2961E+01
      2.318  0.1244E+01  0.3091E+01
      2.423  0.2429E+01  0.3346E+01
      2.528  0.3768E+01  0.3741E+01
      2.633  0.4204E+01  0.4181E+01
      2.738  0.3648E+01  0.4564E+01
      2.843  0.2810E+01  0.4858E+01
      2.947  0.2623E+01  0.5133E+01
      3.052  0.3010E+01  0.5449E+01
      3.157  0.3492E+01  0.5815E+01
      3.262  0.4175E+01  0.6253E+01
      3.367  0.4652E+01  0.6740E+01
      3.472  0.3910E+01  0.7150E+01
      3.576  0.2245E+01  0.7386E+01
      3.681  0.1210E+01  0.7512E+01
      3.786  0.1419E+01  0.7661E+01
      3.891  0.2179E+01  0.7890E+01
      3.996  0.2578E+01  0.8160E+01
      4.101  0.2521E+01  0.8424E+01
      4.205  0.2818E+01  0.8720E+01
      4.310  0.3892E+01  0.9128E+01
      4.415  0.5080E+01  0.9660E+01
      4.520  0.5357E+01  0.1022E+02
      4.625  0.5103E+01  0.1076E+02
      4.730  0.5725E+01  0.1136E+02
      4.834  0.6849E+01  0.1207E+02
      4.939  0.7224E+01  0.1283E+02
      5.044  0.6769E+01  0.1354E+02
      5.149  0.5751E+01  0.1414E+02
      5.254  0.4481E+01  0.1461E+02
      5.359  0.3342E+01  0.1496E+02
      5.463  0.2662E+01  0.1524E+02
      5.568  0.2361E+01  0.1549E+02
      5.673  0.2009E+01  0.1570E+02
      5.778  0.1872E+01  0.1590E+02
      5.883  0.2175E+01  0.1613E+02
      5.988  0.2009E+01  0.1634E+02
      6.092  0.1362E+01  0.1648E+02
      6.197  0.1111E+01  0.1660E+02
      6.302  0.1158E+01  0.1672E+02
      6.407  0.1013E+01  0.1682E+02
      6.512  0.9634E+00  0.1692E+02
      6.616  0.1360E+01  0.1707E+02
      6.721  0.1724E+01  0.1725E+02
      6.826  0.1832E+01  0.1744E+02
      6.931  0.1949E+01  0.1764E+02
      7.036  0.2078E+01  0.1786E+02
      7.141  0.2490E+01  0.1812E+02
      7.245  0.3128E+01  0.1845E+02
      7.350  0.3447E+01  0.1881E+02
      7.455  0.3338E+01  0.1916E+02
      7.560  0.3310E+01  0.1951E+02
      7.665  0.4342E+01  0.1996E+02
      7.770  0.5420E+01  0.2053E+02
      7.874  0.4088E+01  0.2096E+02
      7.979  0.1939E+01  0.2116E+02
      8.084  0.1903E+01  0.2136E+02
      8.189  0.2522E+01  0.2163E+02
      8.294  0.1808E+01  0.2182E+02
      8.399  0.7331E+00  0.2189E+02
      8.503  0.4027E+00  0.2194E+02
      8.608  0.3689E+00  0.2198E+02
      8.713  0.1840E+00  0.2199E+02
      8.818  0.2113E+00  0.2202E+02
      8.923  0.6445E+00  0.2208E+02
      9.028  0.1094E+01  0.2220E+02
      9.132  0.1260E+01  0.2233E+02
      9.237  0.1105E+01  0.2245E+02
      9.342  0.7706E+00  0.2253E+02
      9.447  0.3886E+00  0.2257E+02
      9.552  0.1025E+00  0.2258E+02
      9.657  0.1832E+00  0.2260E+02
      9.761  0.5670E+00  0.2266E+02
      9.866  0.8405E+00  0.2275E+02
      9.971  0.7341E+00  0.2282E+02
     10.076  0.3870E+00  0.2286E+02
     10.181  0.1940E+00  0.2288E+02
     10.286  0.3357E+00  0.2292E+02
     10.390  0.6532E+00  0.2299E+02
     10.495  0.7434E+00  0.2307E+02
     10.600  0.5527E+00  0.2312E+02
     10.705  0.4143E+00  0.2317E+02
     10.810  0.3844E+00  0.2321E+02
     10.915  0.3818E+00  0.2325E+02
     11.019  0.4013E+00  0.2329E+02
     11.124  0.5467E+00  0.2335E+02
     11.229  0.6247E+00  0.2341E+02
     11.334  0.4118E+00  0.2346E+02
     11.439  0.1306E+00  0.2347E+02
     11.543  0.3991E-01  0.2347E+02
     11.648  0.1513E+00  0.2349E+02
     11.753  0.2572E+00  0.2352E+02
     11.858  0.2611E+00  0.2354E+02
     11.963  0.2761E+00  0.2357E+02
     12.068  0.2829E+00  0.2360E+02
     12.172  0.2360E+00  0.2363E+02
     12.277  0.2222E+00  0.2365E+02
     12.382  0.2763E+00  0.2368E+02
     12.487  0.3715E+00  0.2372E+02
     12.592  0.4153E+00  0.2376E+02
     12.697  0.2894E+00  0.2379E+02
     12.801  0.1109E+00  0.2380E+02
     12.906  0.3059E-01  0.2381E+02
     13.011  0.1266E-01  0.2381E+02
     13.116  0.1129E+00  0.2382E+02
     13.221  0.4014E+00  0.2386E+02
     13.326  0.7150E+00  0.2394E+02
     13.430  0.9157E+00  0.2403E+02
     13.535  0.9211E+00  0.2413E+02
     13.640  0.6451E+00  0.2420E+02
     13.745  0.2844E+00  0.2423E+02
     13.850  0.6465E-01  0.2423E+02
     13.955  0.2362E-01  0.2424E+02
     14.059  0.1576E+00  0.2425E+02
     14.164  0.3931E+00  0.2429E+02
     14.269  0.6323E+00  0.2436E+02
     14.374  0.7575E+00  0.2444E+02
     14.479  0.8574E+00  0.2453E+02
     14.584  0.1202E+01  0.2466E+02
     14.688  0.1367E+01  0.2480E+02
     14.793  0.8979E+00  0.2489E+02
     14.898  0.3488E+00  0.2493E+02
     15.003  0.2877E+00  0.2496E+02
     15.108  0.5902E+00  0.2502E+02
     15.213  0.8278E+00  0.2511E+02
     15.317  0.8004E+00  0.2519E+02
     15.422  0.7731E+00  0.2527E+02
     15.527  0.8680E+00  0.2536E+02
     15.632  0.9104E+00  0.2546E+02
     15.737  0.8022E+00  0.2554E+02
     15.842  0.5744E+00  0.2560E+02
     15.946  0.4266E+00  0.2565E+02
     16.051  0.6019E+00  0.2571E+02
     16.156  0.1062E+01  0.2582E+02
     16.261  0.1306E+01  0.2596E+02
     16.366  0.9930E+00  0.2606E+02
     16.470  0.5122E+00  0.2612E+02
     16.575  0.4379E+00  0.2616E+02
     16.680  0.5409E+00  0.2622E+02
     16.785  0.4884E+00  0.2627E+02
     16.890  0.7535E+00  0.2635E+02
     16.995  0.1356E+01  0.2649E+02
     17.099  0.1449E+01  0.2664E+02
     17.204  0.9841E+00  0.2675E+02
     17.309  0.6445E+00  0.2682E+02
     17.414  0.5390E+00  0.2687E+02
     17.519  0.5132E+00  0.2693E+02
     17.624  0.5178E+00  0.2698E+02
     17.728  0.5641E+00  0.2704E+02
     17.833  0.8108E+00  0.2712E+02
     17.938  0.1182E+01  0.2725E+02
     18.043  0.1158E+01  0.2737E+02
     18.148  0.6281E+00  0.2744E+02
     18.253  0.1994E+00  0.2746E+02
     18.357  0.3090E+00  0.2749E+02
     18.462  0.6643E+00  0.2756E+02
     18.567  0.7361E+00  0.2764E+02
     18.672  0.6035E+00  0.2770E+02
     18.777  0.5538E+00  0.2776E+02
     18.882  0.5967E+00  0.2782E+02
     18.986  0.7006E+00  0.2789E+02
     19.091  0.9965E+00  0.2800E+02
     19.196  0.1354E+01  0.2814E+02
     19.301  0.1119E+01  0.2826E+02
     19.406  0.4202E+00  0.2830E+02
     19.511  0.2067E+00  0.2832E+02
     19.615  0.5389E+00  0.2838E+02
     19.720  0.6589E+00  0.2845E+02
     19.825  0.4770E+00  0.2850E+02
     19.930  0.5289E+00  0.2855E+02
     20.035  0.8612E+00  0.2864E+02
     20.140  0.1007E+01  0.2875E+02
     20.244  0.7574E+00  0.2883E+02
     20.349  0.4998E+00  0.2888E+02
     20.454  0.5390E+00  0.2894E+02
     20.559  0.5873E+00  0.2900E+02
     20.664  0.4734E+00  0.2905E+02
     20.769  0.4777E+00  0.2910E+02
     20.873  0.6633E+00  0.2917E+02
     20.978  0.7795E+00  0.2925E+02
     21.083  0.7035E+00  0.2932E+02
     21.188  0.5692E+00  0.2938E+02
     21.293  0.4689E+00  0.2943E+02
     21.397  0.3272E+00  0.2947E+02
     21.502  0.2411E+00  0.2949E+02
     21.607  0.5075E+00  0.2954E+02
     21.712  0.1019E+01  0.2965E+02
     21.817  0.1190E+01  0.2978E+02
     21.922  0.7090E+00  0.2985E+02
     22.026  0.1119E+00  0.2986E+02
     22.131 -0.3908E-01  0.2986E+02
     22.236  0.3166E+00  0.2989E+02
     22.341  0.9985E+00  0.3000E+02
     22.446  0.1382E+01  0.3014E+02
     22.551  0.1014E+01  0.3025E+02
     22.655  0.4197E+00  0.3029E+02
     22.760  0.1523E+00  0.3031E+02
     22.865  0.2397E+00  0.3033E+02
     22.970  0.5334E+00  0.3039E+02
     23.075  0.8570E+00  0.3048E+02
     23.180  0.1129E+01  0.3060E+02
     23.284  0.1146E+01  0.3072E+02
     23.389  0.8363E+00  0.3080E+02
     23.494  0.4541E+00  0.3085E+02
     23.599  0.4017E+00  0.3089E+02
     23.704  0.7347E+00  0.3097E+02
     23.809  0.9835E+00  0.3107E+02
     23.913  0.1080E+01  0.3119E+02
     24.018  0.1298E+01  0.3132E+02
     24.123  0.1225E+01  0.3145E+02
     24.228  0.5780E+00  0.3151E+02
     24.333  0.6342E-01  0.3152E+02
     24.438  0.2032E+00  0.3154E+02
     24.542  0.7512E+00  0.3162E+02
     24.647  0.1048E+01  0.3173E+02
     24.752  0.7442E+00  0.3181E+02
     24.857  0.3690E+00  0.3185E+02
     24.962  0.4474E+00  0.3189E+02
     25.067  0.5985E+00  0.3196E+02
     25.171  0.3873E+00  0.3200E+02
     25.276  0.8194E-01  0.3200E+02
     25.381 -0.2581E-01  0.3200E+02
     25.486 -0.1700E-01  0.3200E+02
     25.591 -0.3546E-02  0.3200E+02
     25.696 -0.3636E-03  0.3200E+02
     25.800 -0.2005E-04  0.3200E+02
     25.905 -0.6147E-06  0.3200E+02
     26.010 -0.1063E-07  0.3200E+02
     26.115 -0.1046E-09  0.3200E+02
     26.220 -0.5875E-12  0.3200E+02
     26.324 -0.1886E-14  0.3200E+02
     26.429  0.0000E+00  0.3200E+02
     26.534  0.0000E+00  0.3200E+02
     26.639  0.0000E+00  0.3200E+02
     26.744  0.0000E+00  0.3200E+02
     26.849  0.0000E+00  0.3200E+02
     26.953  0.0000E+00  0.3200E+02
     27.058  0.0000E+00  0.3200E+02
     27.05829958     -4.39062664  301      5.82632181      1.00000000
     -4.391  0.0000E+00  0.0000E+00  0.0000E+00  0.0000E+00  0.0000E+00  0.0000E+00  0.0000E+00  0.0000E+00  0.0000E+00  0.0000E+00  0.0000E+00  0.0000E+00  0.0000E+00  0.0000E+00  0.0000E+00  0.0000E+00  0.0000E+00  0.0000E+00  0.0000E+00  0.0000E+00  0.0000E+00  0.0000E+00  0.0000E+00  0.0000E+00  0.0000E+00  0.0000E+00  0.0000E+00  0.0000E+00  0.0000E+00  0.0000E+00  0.0000E+00  0.0000E+00  0.0000E+00  0.0000E+00  0.0000E+00  0.0000E+00
     -4.286  0.0000E+00  0.0000E+00  0.0000E+00  0.0000E+00  0.0000E+00  0.0000E+00  0.0000E+00  0.0000E+00  0.0000E+00  0.0000E+00  0.0000E+00  0.0000E+00  0.0000E+00  0.0000E+00  0.0000E+00  0.0000E+00  0.0000E+00  0.0000E+00  0.0000E+00  0.0000E+00  0.0000E+00  0.0000E+00  0.0000E+00  0.0000E+00  0.0000E+00  0.0000E+00  0.0000E+00  0.0000E+00  0.0000E+00  0.0000E+00  0.0000E+00  0.0000E+00  0.0000E+00  0.0000E+00  0.0000E+00  0.0000E+00
     -4.181  0.0000E+00  0.0000E+00  0.0000E+00  0.0000E+00  0.0000E+00  0.0000E+00  0.0000E+00  0.0000E+00  0.0000E+00  0.0000E+00  0.0000E+00  0.0000E+00  0.0000E+00  0.0000E+00  0.0000E+00  0.0000E+00  0.0000E+00  0.0000E+00  0.0000E+00  0.0000E+00  0.0000E+00  0.0000E+00  0.0000E+00  0.0000E+00  0.0000E+00  0.0000E+00  0.0000E+00  0.0000E+00  0.0000E+00  0.0000E+00  0.0000E+00  0.0000E+00  0.0000E+00  0.0000E+00  0.0000E+00  0.0000E+00
     -4.076 -0.1806E-31 -0.1806E-31  0.2298E-34  0.7786E-34 -0.1439E-33 -0.1439E-33  0.1625E-36  0.6118E-36 -0.1439E-33 -0.1439E-33  0.2053E-36  0.6240E-36 -0.1439E-33 -0.1439E-33  0.1702E-36  0.6336E-36 -0.3727E-35 -0.3727E-35  0.1834E-38  0.1292E-37 -0.3727E-35 -0.3727E-35  0.2287E-38  0.1474E-37 -0.2536E-39  0.4730E-40 -0.1606E-40 -0.3056E-42 -0.3728E-35 -0.3728E-35  0.4521E-38  0.1569E-37 -0.1590E-39  0.8588E-40  0.6993E-41  0.1263E-40
     -3.971 -0.8834E-28 -0.8834E-28  0.1124E-30  0.3809E-30 -0.7039E-30 -0.7038E-30  0.7951E-33  0.2993E-32 -0.7039E-30 -0.7038E-30  0.1004E-32  0.3053E-32 -0.7039E-30 -0.7038E-30  0.8327E-33  0.3100E-32 -0.1824E-31 -0.1824E-31  0.8972E-35  0.6322E-34 -0.1823E-31 -0.1823E-31  0.1119E-34  0.7209E-34 -0.1241E-35  0.2314E-36 -0.7856E-37 -0.1495E-38 -0.1824E-31 -0.1824E-31  0.2212E-34  0.7677E-34 -0.7777E-36  0.4202E-36  0.3421E-37  0.6179E-37
     -3.866 -0.2484E-24 -0.2484E-24  0.3161E-27  0.1071E-26 -0.1979E-26 -0.1979E-26  0.2236E-29  0.8417E-29 -0.1979E-26 -0.1979E-26  0.2824E-29  0.8584E-29 -0.1979E-26 -0.1979E-26  0.2341E-29  0.8716E-29 -0.5128E-28 -0.5128E-28  0.2523E-31  0.1778E-30 -0.5127E-28 -0.5127E-28  0.3146E-31  0.2027E-30 -0.3489E-32  0.6507E-33 -0.2209E-33 -0.4204E-35 -0.5128E-28 -0.5128E-28  0.6220E-31  0.2159E-30 -0.2187E-32  0.1181E-32  0.9620E-34  0.1737E-33
     -3.762 -0.4011E-21 -0.4011E-21  0.5105E-24  0.1730E-23 -0.3196E-23 -0.3196E-23  0.3610E-26  0.1359E-25 -0.3196E-23 -0.3196E-23  0.4560E-26  0.1386E-25 -0.3196E-23 -0.3196E-23  0.3781E-26  0.1408E-25 -0.8281E-25 -0.8281E-25  0.4074E-28  0.2871E-27 -0.8280E-25 -0.8280E-25  0.5080E-28  0.3273E-27 -0.5634E-29  0.1051E-29 -0.3567E-30 -0.6789E-32 -0.8281E-25 -0.8281E-25  0.1004E-27  0.3486E-27 -0.3531E-29  0.1908E-29  0.1553E-30  0.2806E-30
     -3.657 -0.3716E-18 -0.3716E-18  0.4730E-21  0.1603E-20 -0.2961E-20 -0.2961E-20  0.3345E-23  0.1259E-22 -0.2961E-20 -0.2961E-20  0.4225E-23  0.1284E-22 -0.2961E-20 -0.2961E-20  0.3503E-23  0.1304E-22 -0.7672E-22 -0.7672E-22  0.3775E-25  0.2660E-24 -0.7672E-22 -0.7672E-22  0.4707E-25  0.3033E-24 -0.5220E-26  0.9735E-27 -0.3305E-27 -0.6290E-29 -0.7673E-22 -0.7673E-22  0.9306E-25  0.3230E-24 -0.3272E-26  0.1768E-26  0.1439E-27  0.2600E-27
     -3.552 -0.1914E-15 -0.1914E-15  0.2436E-18  0.8255E-18 -0.1525E-17 -0.1525E-17  0.1723E-20  0.6487E-20 -0.1525E-17 -0.1525E-17  0.2176E-20  0.6616E-20 -0.1525E-17 -0.1525E-17  0.1805E-20  0.6718E-20 -0.3952E-19 -0.3952E-19  0.1944E-22  0.1370E-21 -0.3952E-19 -0.3952E-19  0.2424E-22  0.1562E-21 -0.2689E-23  0.5015E-24 -0.1703E-24 -0.3240E-26 -0.3952E-19 -0.3952E-19  0.4794E-22  0.1664E-21 -0.1685E-23  0.9106E-24  0.7415E-25  0.1339E-24
     -3.447 -0.5785E-13 -0.5785E-13  0.7362E-16  0.2495E-15 -0.4609E-15 -0.4609E-15  0.5207E-18  0.1960E-17 -0.4609E-15 -0.4609E-15  0.6577E-18  0.1999E-17 -0.4610E-15 -0.4609E-15  0.5453E-18  0.2030E-17 -0.1194E-16 -0.1194E-16  0.5876E-20  0.4140E-19 -0.1194E-16 -0.1194E-16  0.7326E-20  0.4721E-19 -0.8125E-21  0.1515E-21 -0.5145E-22 -0.9791E-24 -0.1194E-16 -0.1194E-16  0.1449E-19  0.5028E-19 -0.5093E-21  0.2752E-21  0.2240E-22  0.4046E-22
     -3.342 -0.9953E-11 -0.9952E-11  0.1267E-13  0.4292E-13 -0.7930E-13 -0.7930E-13  0.8958E-16  0.3372E-15 -0.7930E-13 -0.7930E-13  0.1131E-15  0.3439E-15 -0.7930E-13 -0.7930E-13  0.9382E-16  0.3492E-15 -0.2055E-14 -0.2055E-14  0.1011E-17  0.7123E-17 -0.2054E-14 -0.2054E-14  0.1260E-17  0.8122E-17 -0.1398E-18  0.2607E-19 -0.8851E-20 -0.1684E-21 -0.2055E-14 -0.2055E-14  0.2492E-17  0.8650E-17 -0.8762E-19  0.4734E-19  0.3855E-20  0.6961E-20
     -3.237 -0.9713E-09 -0.9712E-09  0.1236E-11  0.4188E-11 -0.7740E-11 -0.7739E-11  0.8742E-14  0.3291E-13 -0.7740E-11 -0.7739E-11  0.1104E-13  0.3356E-13 -0.7740E-11 -0.7739E-11  0.9156E-14  0.3408E-13 -0.2005E-12 -0.2005E-12  0.9864E-16  0.6951E-15 -0.2005E-12 -0.2005E-12  0.1230E-15  0.7926E-15 -0.1364E-16  0.2544E-17 -0.8638E-18 -0.1643E-19 -0.2005E-12 -0.2005E-12  0.2432E-15  0.8441E-15 -0.8551E-17  0.4620E-17  0.3762E-18  0.6794E-18
     -3.133 -0.5342E-07 -0.5340E-07  0.6796E-10  0.2303E-09 -0.4256E-09 -0.4255E-09  0.4806E-12  0.1809E-11 -0.4256E-09 -0.4255E-09  0.6071E-12  0.1845E-11 -0.4256E-09 -0.4255E-09  0.5034E-12  0.1874E-11 -0.1103E-10 -0.1102E-10  0.5422E-14  0.3822E-13 -0.1103E-10 -0.1102E-10  0.6762E-14  0.4358E-13 -0.7503E-15  0.1398E-15 -0.4749E-16 -0.9026E-18 -0.1103E-10 -0.1102E-10  0.1337E-13  0.4641E-13 -0.4703E-15  0.2540E-15  0.2069E-16  0.3736E-16
     -3.028 -0.1636E-05 -0.1635E-05  0.2080E-08  0.7049E-08 -0.1304E-07 -0.1302E-07  0.1471E-10  0.5539E-10 -0.1304E-07 -0.1302E-07  0.1859E-10  0.5649E-10 -0.1304E-07 -0.1302E-07  0.1541E-10  0.5736E-10 -0.3377E-09 -0.3375E-09  0.1659E-12  0.1170E-11 -0.3377E-09 -0.3375E-09  0.2069E-12  0.1334E-11 -0.2298E-13  0.4273E-14 -0.1454E-14 -0.2755E-16 -0.3378E-09 -0.3375E-09  0.4094E-12  0.1421E-11 -0.1441E-13  0.7772E-14  0.6335E-15  0.1144E-14
     -2.923 -0.2734E-04 -0.2725E-04  0.3468E-07  0.1175E-06 -0.2178E-06 -0.2171E-06  0.2451E-09  0.9232E-09 -0.2178E-06 -0.2171E-06  0.3099E-09  0.9416E-09 -0.2178E-06 -0.2171E-06  0.2568E-09  0.9561E-09 -0.5641E-08 -0.5627E-08  0.2759E-11  0.1950E-10 -0.5640E-08 -0.5627E-08  0.3446E-11  0.2224E-10 -0.3841E-12  0.7088E-13 -0.2426E-13 -0.4547E-15 -0.5641E-08 -0.5628E-08  0.6825E-11  0.2368E-10 -0.2407E-12  0.1294E-12  0.1058E-13  0.1908E-13
     -2.818 -0.2381E-03 -0.2352E-03  0.2995E-06  0.1014E-05 -0.1897E-05 -0.1874E-05  0.2114E-08  0.7970E-08 -0.1897E-05 -0.1874E-05  0.2679E-08  0.8130E-08 -0.1897E-05 -0.1874E-05  0.2216E-08  0.8257E-08 -0.4907E-07 -0.4865E-07  0.2364E-10  0.1682E-09 -0.4907E-07 -0.4864E-07  0.2964E-10  0.1920E-09 -0.3348E-11  0.6005E-12 -0.2102E-12 -0.3779E-14 -0.4907E-07 -0.4865E-07  0.5900E-10  0.2046E-09 -0.2098E-11  0.1112E-11  0.9190E-13  0.1653E-12
     -2.713 -0.9519E-03 -0.9031E-03  0.1151E-05  0.3894E-05 -0.7585E-05 -0.7194E-05  0.8077E-08  0.3056E-07 -0.7585E-05 -0.7194E-05  0.1035E-07  0.3121E-07 -0.7586E-05 -0.7195E-05  0.8489E-08  0.3172E-07 -0.1951E-06 -0.1878E-06  0.8730E-10  0.6440E-09 -0.1951E-06 -0.1878E-06  0.1118E-09  0.7378E-09 -0.1351E-10  0.2027E-11 -0.8207E-12 -0.1159E-13 -0.1951E-06 -0.1878E-06  0.2277E-09  0.7874E-09 -0.8488E-11  0.4116E-11  0.3633E-12  0.6443E-12
     -2.609 -0.7317E-03 -0.2953E-03  0.3945E-06  0.1268E-05 -0.5840E-05 -0.2344E-05  0.2192E-08  0.9673E-08 -0.5840E-05 -0.2344E-05  0.4098E-08  0.1023E-07 -0.5840E-05 -0.2344E-05  0.2567E-08  0.1061E-07 -0.1386E-06 -0.7346E-07 -0.9623E-11  0.1908E-09 -0.1386E-06 -0.7345E-07  0.1432E-10  0.2481E-09 -0.1802E-10 -0.8730E-11 -0.4123E-12  0.4949E-13 -0.1386E-06 -0.7347E-07  0.8775E-10  0.2793E-09 -0.1389E-10 -0.6675E-11  0.2440E-12  0.3413E-12
     -2.504  0.5927E-02  0.7712E-02 -0.9738E-05 -0.3328E-04  0.4719E-04  0.6148E-04 -0.7132E-07 -0.2627E-06  0.4719E-04  0.6148E-04 -0.8464E-07 -0.2664E-06  0.4719E-04  0.6148E-04 -0.7358E-07 -0.2696E-06  0.1274E-05  0.1541E-05 -0.9452E-09 -0.5603E-08  0.1274E-05  0.1541E-05 -0.1071E-08 -0.6264E-08 -0.2997E-09 -0.4103E-09  0.6687E-11  0.1518E-11  0.1275E-05  0.1541E-05 -0.1874E-08 -0.6609E-08 -0.3297E-09 -0.4210E-09 -0.2026E-11 -0.3643E-11
     -2.399  0.1899E-01  0.2025E-01 -0.2572E-04 -0.8734E-04  0.1511E-03  0.1613E-03 -0.1835E-06 -0.6867E-06  0.1511E-03  0.1613E-03 -0.2279E-06 -0.6992E-06  0.1511E-03  0.1613E-03 -0.1914E-06 -0.7094E-06  0.3948E-05  0.4137E-05 -0.2168E-08 -0.1453E-07  0.3948E-05  0.4136E-05 -0.2626E-08 -0.1648E-07 -0.1101E-07 -0.1132E-07  0.3169E-10  0.3778E-10  0.3948E-05  0.4137E-05 -0.5022E-08 -0.1751E-07 -0.1111E-07 -0.1136E-07  0.6326E-11  0.2465E-10
     -2.294  0.2723E-01  0.1465E-01 -0.1918E-04 -0.6301E-04  0.2153E-03  0.1145E-03 -0.1167E-06 -0.4789E-06  0.2153E-03  0.1145E-03 -0.1851E-06 -0.4988E-06  0.2153E-03  0.1145E-03 -0.1295E-06 -0.5131E-06  0.5140E-05  0.3262E-05 -0.2945E-09 -0.9490E-08  0.5140E-05  0.3262E-05 -0.1112E-08 -0.1174E-07 -0.1812E-06 -0.1813E-06  0.2453E-09  0.6003E-09  0.5140E-05  0.3263E-05 -0.3923E-08 -0.1296E-07 -0.1814E-06 -0.1814E-06  0.2133E-09  0.6060E-09
     -2.189  0.2722E-01 -0.1111E-01  0.1248E-04  0.4831E-04  0.2015E-03 -0.1053E-03  0.1553E-06  0.4704E-06  0.2015E-03 -0.1053E-03  0.8454E-07  0.4491E-06  0.2015E-03 -0.1053E-03  0.1431E-06  0.4344E-06  0.3506E-05 -0.2206E-05  0.5026E-08  0.1308E-07  0.3506E-05 -0.2206E-05  0.4075E-08  0.1193E-07 -0.1517E-05 -0.1507E-05  0.1898E-08  0.4985E-08  0.3506E-05 -0.2206E-05  0.2756E-08  0.1117E-07 -0.1518E-05 -0.1507E-05  0.1844E-08  0.5142E-08
     -2.084  0.1860E-01 -0.2400E-01  0.2863E-04  0.1037E-03  0.8803E-04 -0.2503E-03  0.3134E-06  0.1080E-05  0.8803E-04 -0.2503E-03  0.2857E-06  0.1072E-05  0.8803E-04 -0.2503E-03  0.3176E-06  0.1059E-05 -0.1197E-05 -0.7430E-05  0.7757E-08  0.3124E-07 -0.1197E-05 -0.7429E-05  0.7589E-08  0.3154E-07 -0.5700E-05 -0.5517E-05  0.6947E-08  0.1812E-07 -0.1197E-05 -0.7430E-05  0.8998E-08  0.3137E-07 -0.5700E-05 -0.5518E-05  0.6790E-08  0.1873E-07
     -1.980  0.6779E-02 -0.1079E-01  0.1297E-04  0.4670E-04  0.2009E-04 -0.9418E-04  0.1186E-06  0.4085E-06  0.2009E-04 -0.9419E-04  0.1106E-06  0.4060E-06  0.2009E-04 -0.9418E-04  0.1182E-06  0.4041E-06 -0.9955E-06 -0.2488E-05  0.2142E-08  0.9942E-08 -0.9953E-06 -0.2488E-05  0.2251E-08  0.1014E-07 -0.2807E-05 -0.1160E-05  0.1679E-08  0.2266E-08 -0.9955E-06 -0.2488E-05  0.3020E-08  0.1024E-07 -0.2807E-05 -0.1160E-05  0.1641E-08  0.2773E-08
     -1.875  0.1849E-01  0.2301E-01 -0.2821E-04 -0.9564E-04  0.5536E-03  0.6993E-03 -0.6938E-06 -0.2873E-05  0.5536E-03  0.6993E-03 -0.9767E-06 -0.2965E-05  0.5537E-03  0.6993E-03 -0.8503E-06 -0.2925E-05  0.3066E-04  0.3600E-04 -0.1948E-07 -0.1248E-06  0.3065E-04  0.3600E-04 -0.2536E-07 -0.1313E-06  0.3998E-04  0.4679E-04 -0.5780E-07 -0.1617E-06  0.3066E-04  0.3600E-04 -0.4255E-07 -0.1322E-06  0.3998E-04  0.4680E-04 -0.5650E-07 -0.1649E-06
     -1.770  0.5358E-01  0.5944E-01 -0.7324E-04 -0.2473E-03  0.1623E-02  0.1752E-02 -0.1705E-05 -0.7182E-05  0.1623E-02  0.1752E-02 -0.2503E-05 -0.7441E-05  0.1623E-02  0.1752E-02 -0.2116E-05 -0.7359E-05  0.8731E-04  0.9169E-04 -0.4260E-07 -0.3088E-06  0.8730E-04  0.9168E-04 -0.6024E-07 -0.3265E-06  0.1139E-03  0.1190E-03 -0.1487E-06 -0.3997E-06  0.8731E-04  0.9169E-04 -0.1082E-06 -0.3302E-06  0.1139E-03  0.1190E-03 -0.1454E-06 -0.4106E-06
     -1.665  0.7432E-01  0.4053E-01 -0.5178E-04 -0.1682E-03  0.2226E-02  0.1193E-02 -0.9884E-06 -0.4798E-05  0.2226E-02  0.1193E-02 -0.1968E-05 -0.5111E-05  0.2226E-02  0.1193E-02 -0.1370E-05 -0.5133E-05  0.1079E-03  0.7028E-04 -0.1504E-08 -0.1971E-06  0.1079E-03  0.7028E-04 -0.2700E-07 -0.2156E-06  0.1418E-03  0.9428E-04 -0.1249E-06 -0.2676E-06  0.1079E-03  0.7029E-04 -0.8208E-07 -0.2241E-06  0.1418E-03  0.9429E-04 -0.1222E-06 -0.2882E-06
     -1.560  0.7454E-01 -0.3215E-01  0.3442E-04  0.1344E-03  0.2211E-02 -0.1004E-02  0.1457E-05  0.4360E-05  0.2211E-02 -0.1004E-02  0.6931E-06  0.4129E-05  0.2211E-02 -0.1004E-02  0.1406E-05  0.3864E-05  0.8010E-04 -0.3651E-04  0.1044E-06  0.2302E-06  0.8010E-04 -0.3651E-04  0.7739E-07  0.2240E-06  0.1157E-03 -0.3147E-04  0.1891E-07  0.2430E-06  0.8010E-04 -0.3651E-04  0.4555E-07  0.2091E-06  0.1157E-03 -0.3147E-04  0.1804E-07  0.2123E-06
     -1.455  0.5654E-01 -0.6363E-01  0.7255E-04  0.2649E-03  0.1638E-02 -0.1976E-02  0.2447E-05  0.8346E-05  0.1638E-02 -0.1976E-02  0.1999E-05  0.8220E-05  0.1638E-02 -0.1976E-02  0.2591E-05  0.7889E-05  0.3408E-04 -0.9586E-04  0.1399E-06  0.4327E-06  0.3408E-04 -0.9586E-04  0.1205E-06  0.4376E-06  0.7206E-04 -0.9338E-04  0.9372E-07  0.4632E-06  0.3408E-04 -0.9586E-04  0.1160E-06  0.4231E-06  0.7206E-04 -0.9338E-04  0.9041E-07  0.4351E-06
     -1.351  0.2843E-01 -0.2330E-01  0.2681E-04  0.9954E-04  0.9482E-03 -0.5688E-03  0.8015E-06  0.2563E-05  0.9482E-03 -0.5688E-03  0.4937E-06  0.2465E-05  0.9482E-03 -0.5688E-03  0.8150E-06  0.2325E-05  0.7256E-04  0.2632E-04  0.2359E-07 -0.1210E-07  0.7256E-04  0.2631E-04  0.7653E-08 -0.2689E-07  0.4647E-04 -0.2383E-04  0.2274E-07  0.1559E-06  0.7256E-04  0.2632E-04 -0.3013E-07 -0.3308E-07  0.4647E-04 -0.2383E-04  0.2324E-07  0.1392E-06
     -1.246  0.3266E-01  0.3687E-01 -0.4212E-04 -0.1405E-03  0.1658E-02  0.1910E-02 -0.1749E-05 -0.7201E-05  0.1658E-02  0.1910E-02 -0.2549E-05 -0.7490E-05  0.1658E-02  0.1910E-02 -0.2106E-05 -0.7458E-05  0.3369E-03  0.3728E-03 -0.1882E-06 -0.1087E-05  0.3369E-03  0.3728E-03 -0.2358E-06 -0.1181E-05  0.1069E-03  0.1157E-03 -0.1305E-06 -0.3308E-06  0.3369E-03  0.3728E-03 -0.4423E-06 -0.1183E-05  0.1069E-03  0.1157E-03 -0.1173E-06 -0.3560E-06
     -1.141  0.5687E-01  0.6073E-01 -0.7005E-04 -0.2333E-03  0.2954E-02  0.3023E-02 -0.2732E-05 -0.1144E-04  0.2954E-02  0.3023E-02 -0.4141E-05 -0.1194E-04  0.2954E-02  0.3023E-02 -0.3327E-05 -0.1192E-04  0.5936E-03  0.5859E-03 -0.2455E-06 -0.1642E-05  0.5936E-03  0.5859E-03 -0.3376E-06 -0.1797E-05  0.1824E-03  0.1866E-03 -0.2166E-06 -0.5251E-06  0.5936E-03  0.5859E-03 -0.6973E-06 -0.1808E-05  0.1824E-03  0.1866E-03 -0.1878E-06 -0.5653E-06
     -1.036  0.6397E-01  0.1373E-01 -0.1864E-04 -0.5293E-04  0.3274E-02  0.6184E-03 -0.1838E-06 -0.2207E-05  0.3274E-02  0.6184E-03 -0.1564E-05 -0.2663E-05  0.3274E-02  0.6184E-03 -0.5057E-06 -0.2906E-05  0.5590E-03  0.2190E-03  0.1713E-06 -0.2500E-06  0.5589E-03  0.2189E-03  0.4668E-07 -0.3487E-06  0.1524E-03  0.5598E-04 -0.9639E-07 -0.5139E-07  0.5590E-03  0.2190E-03 -0.2706E-06 -0.3919E-06  0.1524E-03  0.5597E-04 -0.4886E-07 -0.7945E-07
     -0.931  0.6105E-01 -0.5192E-01  0.5359E-04  0.1980E-03  0.3083E-02 -0.2798E-02  0.3315E-05  0.1082E-04  0.3083E-02 -0.2798E-02  0.2259E-05  0.1052E-04  0.3083E-02 -0.2798E-02  0.3451E-05  0.9949E-05  0.4153E-03 -0.3270E-03  0.7190E-06  0.1718E-05  0.4152E-03 -0.3269E-03  0.5708E-06  0.1713E-05  0.6319E-04 -0.1506E-03  0.1038E-06  0.6475E-06  0.4153E-03 -0.3270E-03  0.3644E-06  0.1633E-05  0.6319E-04 -0.1506E-03  0.1693E-06  0.6423E-06
     -0.826  0.4667E-01 -0.5013E-01  0.5277E-04  0.1928E-03  0.2449E-02 -0.2563E-02  0.3096E-05  0.1002E-04  0.2449E-02 -0.2563E-02  0.2193E-05  0.9772E-05  0.2449E-02 -0.2563E-02  0.3146E-05  0.9344E-05  0.2969E-03 -0.3377E-03  0.6419E-06  0.1644E-05  0.2969E-03 -0.3377E-03  0.5237E-06  0.1658E-05  0.1068E-03 -0.6756E-04  0.2534E-07  0.3923E-06  0.2969E-03 -0.3377E-03  0.3886E-06  0.1590E-05  0.1068E-03 -0.6753E-04  0.8307E-07  0.3943E-06
     -0.722  0.4225E-01  0.1661E-01 -0.1798E-04 -0.5171E-04  0.2914E-02  0.1701E-02 -0.5587E-06 -0.5427E-05  0.2914E-02  0.1701E-02 -0.2488E-05 -0.6048E-05  0.2914E-02  0.1702E-02 -0.1700E-05 -0.5709E-05  0.3832E-03  0.2164E-03  0.5329E-07 -0.3437E-06  0.3832E-03  0.2164E-03 -0.2880E-07 -0.3961E-06  0.6288E-03  0.6270E-03 -0.6891E-06 -0.1613E-05  0.3832E-03  0.2164E-03 -0.2001E-06 -0.4259E-06  0.6289E-03  0.6271E-03 -0.6341E-06 -0.1620E-05
     -0.617  0.6235E-01  0.7268E-01 -0.7806E-04 -0.2537E-03  0.4836E-02  0.5544E-02 -0.3436E-05 -0.1905E-04  0.4836E-02  0.5544E-02 -0.7062E-05 -0.2025E-04  0.4837E-02  0.5544E-02 -0.5934E-05 -0.1925E-04  0.6508E-03  0.7202E-03 -0.3368E-06 -0.1949E-05  0.6508E-03  0.7202E-03 -0.4392E-06 -0.2074E-05  0.1300E-02  0.1386E-02 -0.1497E-05 -0.3698E-05  0.6508E-03  0.7202E-03 -0.7241E-06 -0.2094E-05  0.1300E-02  0.1386E-02 -0.1423E-05 -0.3723E-05
     -0.512  0.6710E-01  0.4566E-01 -0.5199E-04 -0.1623E-03  0.5177E-02  0.3383E-02 -0.1642E-05 -0.1166E-04  0.5177E-02  0.3383E-02 -0.4921E-05 -0.1273E-04  0.5177E-02  0.3383E-02 -0.3407E-05 -0.1232E-04  0.5673E-03  0.4193E-03 -0.7098E-07 -0.1045E-05  0.5672E-03  0.4193E-03 -0.1906E-06 -0.1136E-05  0.1213E-02  0.9100E-03 -0.1043E-05 -0.2102E-05  0.5673E-03  0.4193E-03 -0.4375E-06 -0.1172E-05  0.1213E-02  0.9100E-03 -0.1046E-05 -0.2218E-05
     -0.407  0.6843E-01 -0.3785E-01  0.3149E-04  0.1278E-03  0.5284E-02 -0.3051E-02  0.3720E-05  0.1085E-04  0.5284E-02 -0.3051E-02  0.1782E-05  0.1026E-04  0.5285E-02 -0.3051E-02  0.4105E-05  0.9075E-05  0.4155E-03 -0.3078E-03  0.6894E-06  0.1446E-05  0.4155E-03 -0.3078E-03  0.5180E-06  0.1386E-05  0.8896E-03 -0.4010E-03  0.2577E-06  0.2374E-05  0.4155E-03 -0.3078E-03  0.2450E-06  0.1314E-05  0.8896E-03 -0.4010E-03  0.5727E-07  0.2011E-05
     -0.302  0.9152E-01 -0.5146E-01  0.4774E-04  0.1941E-03  0.7467E-02 -0.3686E-02  0.5191E-05  0.1496E-04  0.7467E-02 -0.3686E-02  0.2193E-05  0.1399E-04  0.7468E-02 -0.3686E-02  0.5472E-05  0.1245E-04  0.1413E-02  0.4653E-03  0.8878E-06  0.6994E-06  0.1413E-02  0.4652E-03  0.5349E-06  0.2504E-06  0.1516E-02 -0.2020E-03  0.1440E-06  0.2942E-05  0.1413E-02  0.4653E-03 -0.6075E-06  0.1492E-06  0.1516E-02 -0.2019E-03 -0.1291E-06  0.2353E-05
     -0.197  0.1107E+00  0.3879E-01 -0.3406E-04 -0.7700E-04  0.9706E-02  0.4224E-02  0.7274E-07 -0.8745E-05  0.9706E-02  0.4224E-02 -0.5961E-05 -0.1087E-04  0.9706E-02  0.4225E-02 -0.2655E-05 -0.1068E-04  0.3495E-02  0.3131E-02  0.3005E-07 -0.4639E-05  0.3494E-02  0.3131E-02 -0.5504E-06 -0.5918E-05  0.2816E-02  0.1983E-02 -0.1773E-05 -0.2356E-05  0.3495E-02  0.3131E-02 -0.3363E-05 -0.5994E-05  0.2817E-02  0.1983E-02 -0.1882E-05 -0.2960E-05
     -0.093  0.9352E-01  0.9259E-01 -0.8358E-04 -0.2515E-03  0.8576E-02  0.8657E-02 -0.3613E-05 -0.2328E-04  0.8576E-02  0.8657E-02 -0.1012E-04 -0.2563E-04  0.8576E-02  0.8657E-02 -0.7721E-05 -0.2425E-04  0.3950E-02  0.4084E-02 -0.5699E-06 -0.7032E-05  0.3950E-02  0.4084E-02 -0.1148E-05 -0.8520E-05  0.2946E-02  0.2972E-02 -0.2644E-05 -0.5478E-05  0.3950E-02  0.4084E-02 -0.4318E-05 -0.8560E-05  0.2946E-02  0.2972E-02 -0.2601E-05 -0.5916E-05