    2    2    1    1
  0.1136426E+02  0.2832634E-09  0.2832634E-09  0.2832634E-09  0.5000000E-15
  1.000000000000000E-004
  CAR 
 unknown system                          
     16    512     32
 
  0.6250000E-01  0.6250000E-01  0.6250000E-01  0.1953125E-02
    1       -2.390627   1.000000
    2       -2.176255   1.000000
    3        1.090939   1.000000
    4        1.091625   1.000000
    5        2.921326   1.000000
    6        2.921948   1.000000
    7        3.445103   1.000000
    8        3.473439   1.000000
    9        3.664025   1.000000
   10        4.723045   1.000000
   11        4.734446   1.000000
   12        5.378315   1.003415
   13        5.403541   1.005439
   14        5.567668   1.034800
   15        5.618612   1.028679
   16        5.850787   0.397334
   17        5.886636   0.257199
   18        7.445031  -0.000000
   19        7.449408  -0.000000
   20        7.697089  -0.000000
   21        8.054029  -0.000000
   22        8.089609  -0.000000
   23       15.232528   0.000000
   24       15.328060   0.000000
   25       15.637568   0.000000
   26       15.789764   0.000000
   27       15.826695   0.000000
   28       16.126598   0.000000
   29       22.218556   0.000000
   30       22.228135   0.000000
   31       23.130491   0.000000
   32       23.138113   0.000000
 
  0.1875000E+00  0.6250000E-01  0.6250000E-01  0.1953125E-02
    1       -1.767596   1.000000
    2       -1.545919   1.000000
    3        1.347117   1.000000
    4        1.350752   1.000000
    5        3.104570   1.000000
    6        3.227194   1.000000
    7        3.371618   1.000000
    8        3.441141   1.000000
    9        3.923379   1.000000
   10        4.492723   1.000000
   11        4.840263   1.000000
   12        5.002581   1.000000
   13        5.278140   1.000369
   14        5.356071   1.002193
   15        5.405371   1.005617
   16        5.833310   0.470449
   17        5.900508   0.208750
   18        7.007795  -0.000000
   19        7.125042  -0.000000
   20        7.487939  -0.000000
   21        7.591052  -0.000000
   22        8.037136  -0.000000
   23       12.441045   0.000000
   24       13.253537   0.000000
   25       16.344847   0.000000
   26       16.664220   0.000000
   27       16.940609   0.000000
   28       17.202455   0.000000
   29       22.507303   0.000000
   30       23.356543   0.000000
   31       23.973967   0.000000
   32       24.678338   0.000000
 
  0.3125000E+00  0.6250000E-01  0.6250000E-01  0.1953125E-02
    1       -0.635245   1.000000
    2       -0.371886   1.000000
    3        1.650746   1.000000
    4        1.832004   1.000000
    5        3.144689   1.000000
    6        3.389163   1.000000
    7        3.407623   1.000000
    8        3.795403   1.000000
    9        4.087850   1.000000
   10        4.302954   1.000000
   11        4.375456   1.000000
   12        4.775739   1.000000
   13        5.054702   1.000000
   14        5.279959   1.000386
   15        5.318898   1.000979
   16        5.562254   1.034225
   17        6.295576  -0.002238
   18        6.297745  -0.002141
   19        6.562620  -0.000001
   20        6.754695  -0.000000
   21        7.730964  -0.000000
   22        7.819525  -0.000000
   23        9.365138  -0.000000
   24       10.633737  -0.000000
   25       18.107464   0.000000
   26       18.432514   0.000000
   27       18.832627   0.000000
   28       19.076943   0.000000
   29       23.152479   0.000000
   30       23.885241   0.000000
   31       24.528453   0.000000
   32       24.969895   0.000000
 
  0.4375000E+00  0.6250000E-01  0.6250000E-01  0.1953125E-02
    1        0.683125   1.000000
    2        1.128243   1.000000
    3        1.558952   1.000000
    4        2.456594   1.000000
    5        2.496603   1.000000
    6        3.081116   1.000000
    7        3.590864   1.000000
    8        3.900300   1.000000
    9        3.942383   1.000000
   10        4.234566   1.000000
   11        4.530266   1.000000
   12        4.726970   1.000000
   13        5.149545   1.000009
   14        5.161876   1.000014
   15        5.426985   1.008081
   16        5.592574   1.034937
   17        5.781809   0.683274
   18        6.057563  -0.034665
   19        6.190512  -0.013639
   20        6.794222  -0.000000
   21        6.935533  -0.000000
   22        7.291702  -0.000000
   23        8.137291  -0.000000
   24        8.888984  -0.000000
   25       20.188029   0.000000
   26       20.650636   0.000000
   27       20.964045   0.000000
   28       21.330585   0.000000
   29       22.318690   0.000000
   30       22.992354   0.000000
   31       23.177211   0.000000
   32       23.813749   0.000000
 
 -0.4375000E+00  0.6250000E-01  0.6250000E-01  0.1953125E-02
    1        0.683128   1.000000
    2        1.128249   1.000000
    3        1.558950   1.000000
    4        2.456646   1.000000
    5        2.496544   1.000000
    6        3.081113   1.000000
    7        3.590862   1.000000
    8        3.900306   1.000000
    9        3.942378   1.000000
   10        4.234583   1.000000
   11        4.530256   1.000000
   12        4.726964   1.000000
   13        5.149536   1.000009
   14        5.161872   1.000014
   15        5.426965   1.008078
   16        5.592613   1.034933
   17        5.781815   0.683251
   18        6.057569  -0.034665
   19        6.190499  -0.013642
   20        6.794225  -0.000000
   21        6.935532  -0.000000
   22        7.291695  -0.000000
   23        8.137292  -0.000000
   24        8.888982  -0.000000
   25       20.188061   0.000000
   26       20.650708   0.000000
   27       20.963975   0.000000
   28       21.330582   0.000000
   29       22.318652   0.000000
   30       22.992208   0.000000
   31       23.177366   0.000000
   32       23.813757   0.000000
 
 -0.3125000E+00  0.6250000E-01  0.6250000E-01  0.1953125E-02
    1       -0.635243   1.000000
    2       -0.371882   1.000000
    3        1.650744   1.000000
    4        1.832006   1.000000
    5        3.144681   1.000000
    6        3.389161   1.000000
    7        3.407619   1.000000
    8        3.795416   1.000000
    9        4.087847   1.000000
   10        4.302954   1.000000
   11        4.375454   1.000000
   12        4.775736   1.000000
   13        5.054687   1.000000
   14        5.279968   1.000387
   15        5.318906   1.000980
   16        5.562254   1.034225
   17        6.295576  -0.002238
   18        6.297749  -0.002140
   19        6.562626  -0.000001
   20        6.754689  -0.000000
   21        7.730963  -0.000000
   22        7.819526  -0.000000
   23        9.365131  -0.000000
   24       10.633730  -0.000000
   25       18.107488   0.000000
   26       18.432542   0.000000
   27       18.832609   0.000000
   28       19.076946   0.000000
   29       23.152473   0.000000
   30       23.885246   0.000000
   31       24.528418   0.000000
   32       24.969880   0.000000
 
 -0.1875000E+00  0.6250000E-01  0.6250000E-01  0.1953125E-02
    1       -1.767594   1.000000
    2       -1.545917   1.000000
    3        1.347116   1.000000
    4        1.350753   1.000000
    5        3.104567   1.000000
    6        3.227198   1.000000
    7        3.371618   1.000000
    8        3.441137   1.000000
    9        3.923378   1.000000
   10        4.492722   1.000000
   11        4.840258   1.000000
   12        5.002582   1.000000
   13        5.278144   1.000369
   14        5.356073   1.002193
   15        5.405370   1.005617
   16        5.833310   0.470451
   17        5.900511   0.208741
   18        7.007794  -0.000000
   19        7.125045  -0.000000
   20        7.487935  -0.000000
   21        7.591053  -0.000000
   22        8.037134  -0.000000
   23       12.441033   0.000000
   24       13.253518   0.000000
   25       16.344875   0.000000
   26       16.664218   0.000000
   27       16.940628   0.000000
   28       17.202459   0.000000
   29       22.507297   0.000000
   30       23.356546   0.000000
   31       23.973968   0.000000
   32       24.678340   0.000000
 
 -0.6250000E-01  0.6250000E-01  0.6250000E-01  0.1953125E-02
    1       -2.390626   1.000000
    2       -2.176255   1.000000
    3        1.090939   1.000000
    4        1.091625   1.000000
    5        2.921325   1.000000
    6        2.921949   1.000000
    7        3.445105   1.000000
    8        3.473435   1.000000
    9        3.664026   1.000000
   10        4.723044   1.000000
   11        4.734444   1.000000
   12        5.378319   1.003415
   13        5.403537   1.005438
   14        5.567668   1.034800
   15        5.618614   1.028678
   16        5.850790   0.397321
   17        5.886633   0.257213
   18        7.445032  -0.000000
   19        7.449409  -0.000000
   20        7.697088  -0.000000
   21        8.054033  -0.000000
   22        8.089604  -0.000000
   23       15.232420   0.000000
   24       15.328176   0.000000
   25       15.637240   0.000000
   26       15.790092   0.000000
   27       15.826666   0.000000
   28       16.126627   0.000000
   29       22.218542   0.000000
   30       22.228147   0.000000
   31       23.130485   0.000000
   32       23.138121   0.000000
 
  0.6250000E-01  0.1875000E+00  0.6250000E-01  0.1953125E-02
    1       -1.767594   1.000000
    2       -1.545913   1.000000
    3        1.347052   1.000000
    4        1.350804   1.000000
    5        3.105044   1.000000
    6        3.226663   1.000000
    7        3.373961   1.000000
    8        3.438310   1.000000
    9        3.925575   1.000000
   10        4.485163   1.000000
   11        4.849030   1.000000
   12        5.003789   1.000000
   13        5.278713   1.000375
   14        5.351090   1.001978
   15        5.402892   1.005377
   16        5.834582   0.465080
   17        5.902544   0.201979
   18        7.009104  -0.000000
   19        7.123676  -0.000000
   20        7.486246  -0.000000
   21        7.591881  -0.000000
   22        8.037526  -0.000000
   23       12.440893   0.000000
   24       13.253907   0.000000
   25       16.357652   0.000000
   26       16.626863   0.000000
   27       16.981899   0.000000
   28       17.185555   0.000000
   29       22.507001   0.000000
   30       23.356350   0.000000
   31       23.974470   0.000000
   32       24.678496   0.000000
 
  0.1875000E+00  0.1875000E+00  0.6250000E-01  0.1953125E-02
    1       -1.186751   1.000000
    2       -0.948846   1.000000
    3        1.514550   1.000000
    4        1.656326   1.000000
    5        3.143228   1.000000
    6        3.335210   1.000000
    7        3.338210   1.000000
    8        3.430561   1.000000
    9        4.336912   1.000000
   10        4.351175   1.000000
   11        4.579208   1.000000
   12        4.779020   1.000000
   13        5.014607   1.000000
   14        5.097734   1.000002
   15        5.215854   1.000069
   16        5.935653   0.105361
   17        6.251996  -0.005167
   18        6.351712  -0.000645
   19        7.139837  -0.000000
   20        7.200708  -0.000000
   21        7.512337  -0.000000
   22        8.155099  -0.000000
   23       12.568495   0.000000
   24       13.454101   0.000000
   25       14.178316   0.000000
   26       15.080378   0.000000
   27       17.403534   0.000000
   28       18.010820   0.000000
   29       23.399800   0.000000
   30       24.117262   0.000000
   31       24.571457   0.000000
   32       25.058271   0.000000
 
  0.3125000E+00  0.1875000E+00  0.6250000E-01  0.1953125E-02
    1       -0.174173   1.000000
    2        0.142531   1.000000
    3        1.705114   1.000000
    4        2.131143   1.000000
    5        3.012785   1.000000
    6        3.270002   1.000000
    7        3.308213   1.000000
    8        3.756240   1.000000
    9        3.917557   1.000000
   10        4.428655   1.000000
   11        4.623460   1.000000
   12        4.801496   1.000000
   13        4.855608   1.000000
   14        4.978754   1.000000
   15        5.096634   1.000002
   16        5.605623   1.032802
   17        5.863507   0.345633
   18        6.674263  -0.000000
   19        6.862157  -0.000000
   20        6.955410  -0.000000
   21        7.709637  -0.000000
   22        8.068752  -0.000000
   23        9.907055  -0.000000
   24       11.147540  -0.000000
   25       15.182389   0.000000
   26       16.147823   0.000000
   27       18.950324   0.000000
   28       19.616484   0.000000
   29       21.754867   0.000000
   30       22.428598   0.000000
   31       24.046491   0.000000
   32       24.647366   0.000000
 
  0.4375000E+00  0.1875000E+00  0.6250000E-01  0.1953125E-02
    1        0.896697   1.000000
    2        1.484070   1.000000
    3        1.571833   1.000000
    4        2.614244   1.000000
    5        2.671028   1.000000
    6        2.953904   1.000000
    7        3.227890   1.000000
    8        3.384890   1.000000
    9        4.361959   1.000000
   10        4.383333   1.000000
   11        4.463671   1.000000
   12        4.798009   1.000000
   13        4.981884   1.000000
   14        5.181618   1.000025
   15        5.196175   1.000039
   16        5.567450   1.034780
   17        5.705755   0.921283
   18        6.545729  -0.000002
   19        6.640836  -0.000000
   20        7.339421  -0.000000
   21        7.396090  -0.000000
   22        7.773661  -0.000000
   23        8.103590  -0.000000
   24        9.143588  -0.000000
   25       17.026304   0.000000
   26       17.952050   0.000000
   27       19.224193   0.000000
   28       20.046464   0.000000
   29       20.928922   0.000000
   30       21.600268   0.000000
   31       23.151472   0.000000
   32       23.728206   0.000000
 
 -0.4375000E+00  0.1875000E+00  0.6250000E-01  0.1953125E-02
    1        0.896699   1.000000
    2        1.484075   1.000000
    3        1.571831   1.000000
    4        2.614342   1.000000
    5        2.670923   1.000000
    6        2.953903   1.000000
    7        3.227892   1.000000
    8        3.384888   1.000000
    9        4.361947   1.000000
   10        4.383349   1.000000
   11        4.463677   1.000000
   12        4.798009   1.000000
   13        4.981885   1.000000
   14        5.181608   1.000025
   15        5.196171   1.000039
   16        5.567451   1.034780
   17        5.705774   0.921240
   18        6.545706  -0.000002
   19        6.640840  -0.000000
   20        7.339426  -0.000000
   21        7.396093  -0.000000
   22        7.773656  -0.000000
   23        8.103592  -0.000000
   24        9.143584  -0.000000
   25       17.026326   0.000000
   26       17.952049   0.000000
   27       19.224161   0.000000
   28       20.046467   0.000000
   29       20.928921   0.000000
   30       21.600267   0.000000
   31       23.151485   0.000000
   32       23.728208   0.000000
 
 -0.3125000E+00  0.1875000E+00  0.6250000E-01  0.1953125E-02
    1       -0.174172   1.000000
    2        0.142535   1.000000
    3        1.705113   1.000000
    4        2.131144   1.000000
    5        3.012785   1.000000
    6        3.269997   1.000000
    7        3.308210   1.000000
    8        3.756234   1.000000
    9        3.917559   1.000000
   10        4.428656   1.000000
   11        4.623474   1.000000
   12        4.801510   1.000000
   13        4.855565   1.000000
   14        4.978844   1.000000
   15        5.096569   1.000002
   16        5.605620   1.032803
   17        5.863506   0.345635
   18        6.674251  -0.000000
   19        6.862163  -0.000000
   20        6.955416  -0.000000
   21        7.709638  -0.000000
   22        8.068752  -0.000000
   23        9.907050  -0.000000
   24       11.147532  -0.000000
   25       15.182402   0.000000
   26       16.147824   0.000000
   27       18.950333   0.000000
   28       19.616491   0.000000
   29       21.754826   0.000000
   30       22.428604   0.000000
   31       24.046496   0.000000
   32       24.647369   0.000000
 
 -0.1875000E+00  0.1875000E+00  0.6250000E-01  0.1953125E-02
    1       -1.186750   1.000000
    2       -0.948844   1.000000
    3        1.514550   1.000000
    4        1.656326   1.000000
    5        3.143228   1.000000
    6        3.335206   1.000000
    7        3.338217   1.000000
    8        3.430550   1.000000
    9        4.336907   1.000000
   10        4.351178   1.000000
   11        4.579213   1.000000
   12        4.779031   1.000000
   13        5.014616   1.000000
   14        5.097739   1.000002
   15        5.215832   1.000069
   16        5.935655   0.105356
   17        6.251992  -0.005167
   18        6.351716  -0.000645
   19        7.139829  -0.000000
   20        7.200714  -0.000000
   21        7.512338  -0.000000
   22        8.155099  -0.000000
   23       12.568496   0.000000
   24       13.454085   0.000000
   25       14.178314   0.000000
   26       15.080371   0.000000
   27       17.403554   0.000000
   28       18.010839   0.000000
   29       23.399801   0.000000
   30       24.117266   0.000000
   31       24.571412   0.000000
   32       25.058281   0.000000
 
 -0.6250000E-01  0.1875000E+00  0.6250000E-01  0.1953125E-02
    1       -1.767594   1.000000
    2       -1.545912   1.000000
    3        1.347053   1.000000
    4        1.350804   1.000000
    5        3.105043   1.000000
    6        3.226664   1.000000
    7        3.373962   1.000000
    8        3.438308   1.000000
    9        3.925574   1.000000
   10        4.485165   1.000000
   11        4.849034   1.000000
   12        5.003790   1.000000
   13        5.278708   1.000375
   14        5.351089   1.001978
   15        5.402892   1.005377
   16        5.834584   0.465071
   17        5.902546   0.201972
   18        7.009101  -0.000000
   19        7.123677  -0.000000
   20        7.486244  -0.000000
   21        7.591882  -0.000000
   22        8.037525  -0.000000
   23       12.440895   0.000000
   24       13.253908   0.000000
   25       16.357596   0.000000
   26       16.626802   0.000000
   27       16.981955   0.000000
   28       17.185623   0.000000
   29       22.507001   0.000000
   30       23.356351   0.000000
   31       23.974464   0.000000
   32       24.678499   0.000000
 
  0.6250000E-01  0.3125000E+00  0.6250000E-01  0.1953125E-02
    1       -0.635231   1.000000
    2       -0.371865   1.000000
    3        1.650913   1.000000
    4        1.831821   1.000000
    5        3.145108   1.000000
    6        3.392374   1.000000
    7        3.405066   1.000000
    8        3.794482   1.000000
    9        4.091614   1.000000
   10        4.293584   1.000000
   11        4.377230   1.000000
   12        4.773047   1.000000
   13        5.068968   1.000001
   14        5.275312   1.000344
   15        5.313216   1.000860
   16        5.563712   1.034395
   17        6.297155  -0.002167
   18        6.304549  -0.001857
   19        6.556084  -0.000002
   20        6.752942  -0.000000
   21        7.731066  -0.000000
   22        7.820272  -0.000000
   23        9.364943  -0.000000
   24       10.634052  -0.000000
   25       18.118647   0.000000
   26       18.404993   0.000000
   27       18.865598   0.000000
   28       19.060222   0.000000
   29       23.152241   0.000000
   30       23.885057   0.000000
   31       24.528330   0.000000
   32       24.970397   0.000000
 
  0.1875000E+00  0.3125000E+00  0.6250000E-01  0.1953125E-02
    1       -0.174158   1.000000
    2        0.142547   1.000000
    3        1.705193   1.000000
    4        2.131089   1.000000
    5        3.012890   1.000000
    6        3.270190   1.000000
    7        3.308849   1.000000
    8        3.753933   1.000000
    9        3.919025   1.000000
   10        4.426303   1.000000
   11        4.623495   1.000000
   12        4.797037   1.000000
   13        4.861605   1.000000
   14        4.981079   1.000000
   15        5.094960   1.000001
   16        5.605779   1.032765
   17        5.863530   0.345542
   18        6.674232  -0.000000
   19        6.871725  -0.000000
   20        6.944604  -0.000000
   21        7.710738  -0.000000
   22        8.068759  -0.000000
   23        9.906896  -0.000000
   24       11.147769  -0.000000
   25       15.182454   0.000000
   26       16.147593   0.000000
   27       18.950533   0.000000
   28       19.616371   0.000000
   29       21.754836   0.000000
   30       22.428571   0.000000
   31       24.046461   0.000000
   32       24.647325   0.000000
 
  0.3125000E+00  0.3125000E+00  0.6250000E-01  0.1953125E-02
    1        0.481658   1.000000
    2        1.009626   1.000000
    3        1.558843   1.000000
    4        2.731454   1.000000
    5        2.771505   1.000000
    6        3.102833   1.000000
    7        3.203043   1.000000
    8        3.522865   1.000000
    9        4.429833   1.000000
   10        4.496704   1.000000
   11        4.505429   1.000000
   12        4.691146   1.000000
   13        4.857957   1.000000
   14        5.003234   1.000000
   15        5.030829   1.000000
   16        5.429661   1.008435
   17        6.017876  -0.020171
   18        6.690770  -0.000000
   19        7.208928  -0.000000
   20        7.507816  -0.000000
   21        7.627347  -0.000000
   22        8.255785  -0.000000
   23        9.708379  -0.000000
   24       10.890724  -0.000000
   25       13.428100   0.000000
   26       14.667968   0.000000
   27       18.792164   0.000000
   28       19.636436   0.000000
   29       20.171282   0.000000
   30       20.819672   0.000000
   31       24.549116   0.000000
   32       25.027702   0.000000
 
  0.4375000E+00  0.3125000E+00  0.6250000E-01  0.1953125E-02
    1        0.970492   1.000000
    2        1.297249   1.000000
    3        1.910626   1.000000
    4        2.606390   1.000000
    5        2.654566   1.000000
    6        2.811659   1.000000
    7        3.439613   1.000000
    8        3.824742   1.000000
    9        4.410015   1.000000
   10        4.536867   1.000000
   11        4.619090   1.000000
   12        4.727014   1.000000
   13        5.026610   1.000000
   14        5.167006   1.000016
   15        5.287234   1.000463
   16        5.875978   0.296898
   17        6.118182  -0.029422
   18        6.943904  -0.000000
   19        7.143491  -0.000000
   20        7.737253  -0.000000
   21        7.793434  -0.000000
   22        8.127254  -0.000000
   23        8.175769  -0.000000
   24        9.299045  -0.000000
   25       14.318424   0.000000
   26       15.499690   0.000000
   27       16.268839   0.000000
   28       17.284448   0.000000
   29       21.805446   0.000000
   30       22.382098   0.000000
   31       23.645328   0.000000
   32       24.046054   0.000000
 
 -0.4375000E+00  0.3125000E+00  0.6250000E-01  0.1953125E-02
    1        0.970494   1.000000
    2        1.297248   1.000000
    3        1.910628   1.000000
    4        2.606390   1.000000
    5        2.654566   1.000000
    6        2.811658   1.000000
    7        3.439612   1.000000
    8        3.824748   1.000000
    9        4.410001   1.000000
   10        4.536911   1.000000
   11        4.619037   1.000000
   12        4.727021   1.000000
   13        5.026626   1.000000
   14        5.166952   1.000016
   15        5.287289   1.000463
   16        5.875979   0.296894
   17        6.118183  -0.029422
   18        6.943884  -0.000000
   19        7.143495  -0.000000
   20        7.737251  -0.000000
   21        7.793433  -0.000000
   22        8.127261  -0.000000
   23        8.175777  -0.000000
   24        9.299039  -0.000000
   25       14.318435   0.000000
   26       15.499693   0.000000
   27       16.268817   0.000000
   28       17.284448   0.000000
   29       21.805440   0.000000
   30       22.382101   0.000000
   31       23.645354   0.000000
   32       24.046037   0.000000
 
 -0.3125000E+00  0.3125000E+00  0.6250000E-01  0.1953125E-02
    1        0.481660   1.000000
    2        1.009629   1.000000
    3        1.558843   1.000000
    4        2.731454   1.000000
    5        2.771489   1.000000
    6        3.102863   1.000000
    7        3.203037   1.000000
    8        3.522855   1.000000
    9        4.429665   1.000000
   10        4.496874   1.000000
   11        4.505424   1.000000
   12        4.691143   1.000000
   13        4.858056   1.000000
   14        5.003229   1.000000
   15        5.030747   1.000000
   16        5.429653   1.008434
   17        6.017877  -0.020172
   18        6.690755  -0.000000
   19        7.208934  -0.000000
   20        7.507820  -0.000000
   21        7.627351  -0.000000
   22        8.255785  -0.000000
   23        9.708385  -0.000000
   24       10.890719  -0.000000
   25       13.428096   0.000000
   26       14.667967   0.000000
   27       18.792132   0.000000
   28       19.636438   0.000000
   29       20.171289   0.000000
   30       20.819677   0.000000
   31       24.549120   0.000000
   32       25.027716   0.000000
 
 -0.1875000E+00  0.3125000E+00  0.6250000E-01  0.1953125E-02
    1       -0.174157   1.000000
    2        0.142549   1.000000
    3        1.705194   1.000000
    4        2.131086   1.000000
    5        3.012891   1.000000
    6        3.270183   1.000000
    7        3.308860   1.000000
    8        3.753925   1.000000
    9        3.919018   1.000000
   10        4.426315   1.000000
   11        4.623507   1.000000
   12        4.797058   1.000000
   13        4.861558   1.000000
   14        4.981168   1.000000
   15        5.094882   1.000001
   16        5.605780   1.032765
   17        5.863526   0.345555
   18        6.674220  -0.000000
   19        6.871731  -0.000000
   20        6.944604  -0.000000
   21        7.710742  -0.000000
   22        8.068760  -0.000000
   23        9.906903  -0.000000
   24       11.147769  -0.000000
   25       15.182437   0.000000
   26       16.147576   0.000000
   27       18.950553   0.000000
   28       19.616387   0.000000
   29       21.754795   0.000000
   30       22.428574   0.000000
   31       24.046473   0.000000
   32       24.647322   0.000000
 
 -0.6250000E-01  0.3125000E+00  0.6250000E-01  0.1953125E-02
    1       -0.635231   1.000000
    2       -0.371864   1.000000
    3        1.650914   1.000000
    4        1.831821   1.000000
    5        3.145107   1.000000
    6        3.392372   1.000000
    7        3.405066   1.000000
    8        3.794484   1.000000
    9        4.091620   1.000000
   10        4.293581   1.000000
   11        4.377229   1.000000
   12        4.773048   1.000000
   13        5.068978   1.000001
   14        5.275301   1.000344
   15        5.313212   1.000860
   16        5.563716   1.034396
   17        6.297149  -0.002167
   18        6.304551  -0.001857
   19        6.556086  -0.000002
   20        6.752940  -0.000000
   21        7.731066  -0.000000
   22        7.820274  -0.000000
   23        9.364945  -0.000000
   24       10.634053  -0.000000
   25       18.118595   0.000000
   26       18.404935   0.000000
   27       18.865654   0.000000
   28       19.060281   0.000000
   29       23.152244   0.000000
   30       23.885055   0.000000
   31       24.528304   0.000000
   32       24.970404   0.000000
 
  0.6250000E-01  0.4375000E+00  0.6250000E-01  0.1953125E-02
    1        0.683186   1.000000
    2        1.128298   1.000000
    3        1.559069   1.000000
    4        2.456772   1.000000
    5        2.496553   1.000000
    6        3.081395   1.000000
    7        3.592648   1.000000
    8        3.901526   1.000000
    9        3.939307   1.000000
   10        4.233556   1.000000
   11        4.526024   1.000000
   12        4.721128   1.000000
   13        5.156006   1.000011
   14        5.165418   1.000015
   15        5.434135   1.009052
   16        5.587936   1.035284
   17        5.784130   0.674200
   18        6.056288  -0.034502
   19        6.189167  -0.013891
   20        6.792618  -0.000000
   21        6.935721  -0.000000
   22        7.290284  -0.000000
   23        8.137993  -0.000000
   24        8.889531  -0.000000
   25       20.192377   0.000000
   26       20.634103   0.000000
   27       20.982045   0.000000
   28       21.324670   0.000000
   29       22.319274   0.000000
   30       22.987174   0.000000
   31       23.182236   0.000000
   32       23.813178   0.000000
 
  0.1875000E+00  0.4375000E+00  0.6250000E-01  0.1953125E-02
    1        0.896764   1.000000
    2        1.484124   1.000000
    3        1.571937   1.000000
    4        2.614647   1.000000
    5        2.671025   1.000000
    6        2.954598   1.000000
    7        3.227146   1.000000
    8        3.384033   1.000000
    9        4.361037   1.000000
   10        4.385777   1.000000
   11        4.460733   1.000000
   12        4.795531   1.000000
   13        4.985349   1.000000
   14        5.179889   1.000024
   15        5.196759   1.000040
   16        5.567462   1.034781
   17        5.708264   0.915608
   18        6.545764  -0.000002
   19        6.641268  -0.000000
   20        7.342536  -0.000000
   21        7.393394  -0.000000
   22        7.770139  -0.000000
   23        8.104991  -0.000000
   24        9.144268  -0.000000
   25       17.026335   0.000000
   26       17.951901   0.000000
   27       19.224178   0.000000
   28       20.046387   0.000000
   29       20.929041   0.000000
   30       21.600232   0.000000
   31       23.151497   0.000000
   32       23.728241   0.000000
 
  0.3125000E+00  0.4375000E+00  0.6250000E-01  0.1953125E-02
    1        0.970523   1.000000
    2        1.297281   1.000000
    3        1.910657   1.000000
    4        2.606491   1.000000
    5        2.654703   1.000000
    6        2.811957   1.000000
    7        3.438698   1.000000
    8        3.823866   1.000000
    9        4.412236   1.000000
   10        4.542775   1.000000
   11        4.613718   1.000000
   12        4.725318   1.000000
   13        5.025944   1.000000
   14        5.163841   1.000015
   15        5.289595   1.000490
   16        5.876441   0.295134
   17        6.119841  -0.029070
   18        6.943886  -0.000000
   19        7.143890  -0.000000