       N       E                     dE             d eps       ncg     rms          rms(c)
DAV:   1     0.108301391879E+03    0.10830E+03   -0.64387E+03 34328   0.126E+03
DAV:   2    -0.117469347135E+02   -0.12005E+03   -0.10927E+03 32856   0.267E+02
DAV:   3    -0.184888462494E+02   -0.67419E+01   -0.60676E+01 37144   0.867E+01
DAV:   4    -0.185755946115E+02   -0.86748E-01   -0.86561E-01 37120   0.111E+01
DAV:   5    -0.185764355602E+02   -0.84095E-03   -0.84093E-03 38016   0.870E-01    0.161E+01
DAV:   6    -0.166167379450E+02    0.19597E+01   -0.95251E+00 37912   0.652E+01    0.819E+00
DAV:   7    -0.165100929030E+02    0.10665E+00   -0.94997E-01 37352   0.190E+01    0.488E+00
DAV:   8    -0.164998861410E+02    0.10207E-01   -0.29617E-02 35984   0.179E+00    0.203E+00
DAV:   9    -0.164866798141E+02    0.13206E-01   -0.32789E-02 35496   0.168E+00    0.528E-01
DAV:  10    -0.164832740260E+02    0.34058E-02   -0.44898E-02 33080   0.216E+00    0.327E-01
DAV:  11    -0.164850445823E+02   -0.17706E-02   -0.16454E-03 46664   0.112E+00    0.251E-01
DAV:  12    -0.164857708812E+02   -0.72630E-03   -0.15154E-02 33888   0.121E+00    0.120E-01
DAV:  13    -0.164866517687E+02   -0.88089E-03   -0.17682E-02 34704   0.108E+00    0.152E-01
DAV:  14    -0.164857058743E+02    0.94589E-03   -0.10109E-02 34240   0.827E-01    0.625E-02
DAV:  15    -0.164858679902E+02   -0.16212E-03   -0.77321E-03 35312   0.688E-01    0.764E-02
DAV:  16    -0.164857314981E+02    0.13649E-03   -0.55674E-03 34320   0.616E-01    0.485E-02
DAV:  17    -0.164858711208E+02   -0.13962E-03   -0.49235E-03 34232   0.533E-01    0.469E-02
DAV:  18    -0.164858131313E+02    0.57990E-04   -0.28150E-03 34152   0.424E-01    0.218E-02
DAV:  19    -0.164857888662E+02    0.24265E-04   -0.17651E-03 33672   0.328E-01    0.202E-02
DAV:  20    -0.164858584840E+02   -0.69618E-04   -0.91072E-04 34016   0.222E-01    0.152E-02
DAV:  21    -0.164859711964E+02   -0.11271E-03   -0.50904E-04 33968   0.170E-01    0.948E-03
DAV:  22    -0.164860242231E+02   -0.53027E-04   -0.24925E-04 33840   0.120E-01    0.721E-03
DAV:  23    -0.164860238992E+02    0.32390E-06   -0.11449E-04 33864   0.809E-02    0.519E-03
DAV:  24    -0.164860085567E+02    0.15343E-04   -0.90193E-05 33920   0.699E-02    0.438E-03
DAV:  25    -0.164860089613E+02   -0.40465E-06   -0.54234E-05 33760   0.552E-02
   1 F= -.16486009E+02 E0= -.16484814E+02  d E =-.358376E-02  mag=     4.4178    -0.0002     0.0008
