   1   1   0   0
  0.1492893E+02  0.2686686E-09  0.2686686E-09  0.2686686E-09  0.5000000E-15
  1.000000000000000E-004
  CAR 
 unknown system                          
     35.43416434     -6.29372121  301      9.62936537      1.00000000
     -6.294  0.0000E+00  0.0000E+00
     -6.155  0.0000E+00  0.0000E+00
     -6.016  0.0000E+00  0.0000E+00
     -5.876  0.0000E+00  0.0000E+00
     -5.737  0.0000E+00  0.0000E+00
     -5.598  0.0000E+00  0.0000E+00
     -5.459  0.0000E+00  0.0000E+00
     -5.320  0.0000E+00  0.0000E+00
     -5.181  0.0000E+00  0.0000E+00
     -5.042  0.0000E+00  0.0000E+00
     -4.903  0.0000E+00  0.0000E+00
     -4.764  0.0000E+00  0.0000E+00
     -4.625  0.6552E-14  0.9114E-15
     -4.486  0.6642E-06  0.9238E-07
     -4.346  0.9913E-04  0.1388E-04
     -4.207  0.6724E-04  0.2323E-04
     -4.068  0.1221E-02  0.1931E-03
     -3.929  0.1408E-03  0.2127E-03
     -3.790  0.5229E-03  0.2854E-03
     -3.651  0.1258E-02  0.4603E-03
     -3.512  0.1337E-02  0.6463E-03
     -3.373  0.1021E-02  0.7883E-03
     -3.234  0.3029E-03  0.8304E-03
     -3.095  0.2435E-02  0.1169E-02
     -2.955  0.1954E-03  0.1196E-02
     -2.816  0.7928E-03  0.1307E-02
     -2.677  0.1489E-02  0.1514E-02
     -2.538  0.3700E-02  0.2028E-02
     -2.399  0.4025E-03  0.2084E-02
     -2.260  0.2592E-03  0.2120E-02
     -2.121  0.3420E-02  0.2596E-02
     -1.982  0.5396E-03  0.2671E-02
     -1.843  0.2462E-02  0.3013E-02
     -1.704  0.4906E-03  0.3082E-02
     -1.565  0.2147E-02  0.3380E-02
     -1.425  0.1252E-02  0.3555E-02
     -1.286  0.1353E-02  0.3743E-02
     -1.147  0.6275E-02  0.4615E-02
     -1.008  0.1495E-02  0.4823E-02
     -0.869  0.6759E-08  0.4823E-02
     -0.730  0.5881E-03  0.4905E-02
     -0.591  0.4581E-02  0.5542E-02
     -0.452  0.5433E-03  0.5618E-02
     -0.313  0.7727E-03  0.5725E-02
     -0.174  0.3927E-02  0.6272E-02
     -0.035  0.1293E-02  0.6451E-02
      0.105  0.3046E-02  0.6875E-02
      0.244  0.8970E-03  0.7000E-02
      0.383  0.7005E-02  0.7974E-02
      0.522  0.9899E-03  0.8112E-02
      0.661  0.1640E-02  0.8340E-02
      0.800  0.3965E-02  0.8892E-02
      0.939  0.1247E-02  0.9065E-02
      1.078  0.2438E-02  0.9404E-02
      1.217  0.7010E-03  0.9502E-02
      1.356  0.4592E-02  0.1014E-01
      1.495  0.3619E-03  0.1019E-01
      1.635  0.5288E-03  0.1026E-01
      1.774  0.7217E-02  0.1127E-01
      1.913  0.1934E-02  0.1154E-01
      2.052  0.2460E-02  0.1188E-01
      2.191  0.1761E-02  0.1212E-01
      2.330  0.8640E-02  0.1333E-01
      2.469  0.3081E-02  0.1375E-01
      2.608  0.2131E-02  0.1405E-01
      2.747  0.2326E-02  0.1437E-01
      2.886  0.2873E-03  0.1441E-01
      3.026  0.2441E-02  0.1475E-01
      3.165  0.1780E-02  0.1500E-01
      3.304  0.3525E-02  0.1549E-01
      3.443  0.2666E-02  0.1586E-01
      3.582  0.3227E-02  0.1631E-01
      3.721  0.4869E-02  0.1699E-01
      3.860  0.1301E-02  0.1717E-01
      3.999  0.9233E-02  0.1845E-01
      4.138  0.9545E-04  0.1847E-01
      4.277  0.1557E-04  0.1847E-01
      4.416  0.7727E-02  0.1954E-01
      4.556  0.3928E-02  0.2009E-01
      4.695  0.2118E-02  0.2039E-01
      4.834  0.2049E-02  0.2067E-01
      4.973  0.6139E-02  0.2152E-01
      5.112  0.1326E-02  0.2171E-01
      5.251  0.4747E-02  0.2237E-01
      5.390  0.1989E-02  0.2265E-01
      5.529  0.1502E-02  0.2285E-01
      5.668  0.2471E-02  0.2320E-01
      5.807  0.3017E-02  0.2362E-01
      5.946  0.6611E-02  0.2454E-01
      6.086  0.3026E-02  0.2496E-01
      6.225  0.3646E-02  0.2547E-01
      6.364  0.6176E-02  0.2632E-01
      6.503  0.3381E-02  0.2679E-01
      6.642  0.6236E-02  0.2766E-01
      6.781  0.2092E-02  0.2795E-01
      6.920  0.3107E-02  0.2839E-01
      7.059  0.4713E-02  0.2904E-01
      7.198  0.2699E-02  0.2942E-01
      7.337  0.5049E-02  0.3012E-01
      7.476  0.5014E-02  0.3082E-01
      7.616  0.3485E-02  0.3130E-01
      7.755  0.4789E-02  0.3197E-01
      7.894  0.5852E-03  0.3205E-01
      8.033  0.4708E-02  0.3270E-01
      8.172  0.4439E-02  0.3332E-01
      8.311  0.2811E-02  0.3371E-01
      8.450  0.6948E-02  0.3468E-01
      8.589  0.3573E-02  0.3517E-01
      8.728  0.6248E-02  0.3604E-01
      8.867  0.3010E-02  0.3646E-01
      9.007  0.3026E-02  0.3688E-01
      9.146  0.3927E-02  0.3743E-01
      9.285  0.2182E-02  0.3773E-01
      9.424  0.8533E-02  0.3892E-01
      9.563  0.3087E-02  0.3935E-01
      9.702  0.8573E-02  0.4054E-01
      9.841  0.7404E-02  0.4157E-01
      9.980  0.5210E-02  0.4230E-01
     10.119  0.2767E-02  0.4268E-01
     10.258  0.3931E-02  0.4323E-01
     10.397  0.2579E-02  0.4359E-01
     10.537  0.4578E-02  0.4422E-01
     10.676  0.3630E-02  0.4473E-01
     10.815  0.7123E-02  0.4572E-01
     10.954  0.8793E-03  0.4584E-01
     11.093  0.3487E-02  0.4633E-01
     11.232  0.3015E-02  0.4675E-01
     11.371  0.4440E-02  0.4736E-01
     11.510  0.5908E-02  0.4818E-01
     11.649  0.2667E-02  0.4856E-01
     11.788  0.5066E-02  0.4926E-01
     11.927  0.5049E-02  0.4996E-01
     12.067  0.6795E-02  0.5091E-01
     12.206  0.9302E-02  0.5220E-01
     12.345  0.5070E-02  0.5291E-01
     12.484  0.2163E-02  0.5321E-01
     12.623  0.9142E-04  0.5322E-01
     12.762  0.2956E-02  0.5363E-01
     12.901  0.5666E-02  0.5442E-01
     13.040  0.6478E-02  0.5532E-01
     13.179  0.3984E-02  0.5587E-01
     13.318  0.6326E-02  0.5675E-01
     13.457  0.7457E-02  0.5779E-01
     13.597  0.6673E-02  0.5872E-01
     13.736  0.4000E-02  0.5928E-01
     13.875  0.1730E-02  0.5952E-01
     14.014  0.5746E-02  0.6032E-01
     14.153  0.9134E-02  0.6159E-01
     14.292  0.3871E-02  0.6213E-01
     14.431  0.8898E-03  0.6225E-01
     14.570  0.3141E-02  0.6269E-01
     14.709  0.1887E-02  0.6295E-01
     14.848  0.5460E-02  0.6371E-01
     14.988  0.7672E-02  0.6478E-01
     15.127  0.3969E-02  0.6533E-01
     15.266  0.1160E-01  0.6694E-01
     15.405  0.5949E-02  0.6777E-01
     15.544  0.6757E-02  0.6871E-01
     15.683  0.9686E-02  0.7006E-01
     15.822  0.2590E-02  0.7042E-01
     15.961  0.1067E-02  0.7056E-01
     16.100  0.4820E-02  0.7123E-01
     16.239  0.3722E-02  0.7175E-01
     16.378  0.9078E-02  0.7301E-01
     16.518  0.4693E-02  0.7367E-01
     16.657  0.8537E-02  0.7485E-01
     16.796  0.7574E-02  0.7591E-01
     16.935  0.4675E-02  0.7656E-01
     17.074  0.5198E-02  0.7728E-01
     17.213  0.2589E-02  0.7764E-01
     17.352  0.5610E-02  0.7842E-01
     17.491  0.8600E-02  0.7962E-01
     17.630  0.6692E-02  0.8055E-01
     17.769  0.7859E-02  0.8164E-01
     17.908  0.4204E-02  0.8223E-01
     18.048  0.7428E-02  0.8326E-01
     18.187  0.2024E-02  0.8354E-01
     18.326  0.1950E-02  0.8381E-01
     18.465  0.2507E-02  0.8416E-01
     18.604  0.4339E-04  0.8417E-01
     18.743  0.2518E-02  0.8452E-01
     18.882  0.2949E-02  0.8493E-01
     19.021  0.2307E-02  0.8525E-01
     19.160  0.2636E-02  0.8562E-01
     19.299  0.7737E-02  0.8669E-01
     19.438  0.1112E-01  0.8824E-01
     19.578  0.7099E-02  0.8923E-01
     19.717  0.7249E-02  0.9023E-01
     19.856  0.1167E-01  0.9186E-01
     19.995  0.4563E-02  0.9249E-01
     20.134  0.7411E-02  0.9352E-01
     20.273  0.1227E-02  0.9369E-01
     20.412  0.4614E-02  0.9433E-01
     20.551  0.3333E-02  0.9480E-01
     20.690  0.6799E-03  0.9489E-01
     20.829  0.1094E-01  0.9641E-01
     20.968  0.1692E-01  0.9877E-01
     21.108  0.1761E-02  0.9901E-01
     21.247  0.5940E-02  0.9984E-01
     21.386  0.5857E-02  0.1007E+00
     21.525  0.5773E-02  0.1015E+00
     21.664  0.1178E-01  0.1031E+00
     21.803  0.7541E-02  0.1041E+00
     21.942  0.4895E-02  0.1048E+00
     22.081  0.2272E-02  0.1051E+00
     22.220  0.4892E-02  0.1058E+00
     22.359  0.6713E-02  0.1068E+00
     22.499  0.9836E-02  0.1081E+00
     22.638  0.7599E-02  0.1092E+00
     22.777  0.3637E-02  0.1097E+00
     22.916  0.8455E-02  0.1109E+00
     23.055  0.6885E-02  0.1118E+00
     23.194  0.3773E-02  0.1123E+00
     23.333  0.1024E-01  0.1138E+00
     23.472  0.8565E-02  0.1150E+00
     23.611  0.3932E-02  0.1155E+00
     23.750  0.1168E-02  0.1157E+00
     23.889  0.6143E-02  0.1165E+00
     24.029  0.5400E-02  0.1173E+00
     24.168  0.1003E-01  0.1187E+00
     24.307  0.1826E-02  0.1189E+00
     24.446  0.7592E-02  0.1200E+00
     24.585  0.9170E-02  0.1213E+00
     24.724  0.4168E-02  0.1218E+00
     24.863  0.5222E-02  0.1226E+00
     25.002  0.4012E-02  0.1231E+00
     25.141  0.2077E-02  0.1234E+00
     25.280  0.2341E-02  0.1237E+00
     25.419  0.5023E-02  0.1244E+00
     25.559  0.1181E-01  0.1261E+00
     25.698  0.1345E-01  0.1279E+00
     25.837  0.8582E-02  0.1291E+00
     25.976  0.2017E-02  0.1294E+00
     26.115  0.5513E-02  0.1302E+00
     26.254  0.5355E-02  0.1309E+00
     26.393  0.8359E-02  0.1321E+00
     26.532  0.7880E-02  0.1332E+00
     26.671  0.4982E-02  0.1339E+00
     26.810  0.6590E-02  0.1348E+00
     26.949  0.8791E-02  0.1360E+00
     27.089  0.5578E-02  0.1368E+00
     27.228  0.1093E-01  0.1383E+00
     27.367  0.3152E-02  0.1388E+00
     27.506  0.4501E-02  0.1394E+00
     27.645  0.2894E-02  0.1398E+00
     27.784  0.6335E-02  0.1407E+00
     27.923  0.5114E-02  0.1414E+00
     28.062  0.1495E-02  0.1416E+00
     28.201  0.4670E-02  0.1422E+00
     28.340  0.4629E-02  0.1429E+00
     28.480  0.1557E-01  0.1450E+00
     28.619  0.1475E-01  0.1471E+00
     28.758  0.8580E-02  0.1483E+00
     28.897  0.2154E-02  0.1486E+00
     29.036  0.7195E-02  0.1496E+00
     29.175  0.4759E-02  0.1503E+00
     29.314  0.9233E-02  0.1515E+00
     29.453  0.5753E-02  0.1523E+00
     29.592  0.3485E-02  0.1528E+00
     29.731  0.5405E-02  0.1536E+00
     29.870  0.3478E-02  0.1541E+00
     30.010  0.7020E-02  0.1550E+00
     30.149  0.8007E-02  0.1561E+00
     30.288  0.5943E-02  0.1570E+00
     30.427  0.1890E-02  0.1572E+00
     30.566  0.2996E-02  0.1577E+00
     30.705  0.4437E-02  0.1583E+00
     30.844  0.7679E-03  0.1584E+00
     30.983  0.2021E-08  0.1584E+00
     31.122  0.6329E-06  0.1584E+00
     31.261  0.2740E-02  0.1588E+00
     31.400  0.4564E-02  0.1594E+00
     31.540  0.1337E-02  0.1596E+00
     31.679  0.1864E-05  0.1596E+00
     31.818  0.4878E-14  0.1596E+00
     31.957  0.2199E-12  0.1596E+00
     32.096  0.9713E-05  0.1596E+00
     32.235  0.8119E-03  0.1597E+00
     32.374  0.4258E-04  0.1597E+00
     32.513  0.1004E-10  0.1597E+00
     32.652  0.0000E+00  0.1597E+00
     32.791  0.0000E+00  0.1597E+00
     32.930  0.5192E-13  0.1597E+00
     33.070  0.4488E-05  0.1597E+00
     33.209  0.5981E-03  0.1598E+00
     33.348  0.3320E-03  0.1598E+00
     33.487  0.4277E-03  0.1599E+00
     33.626  0.7931E-03  0.1600E+00
     33.765  0.5313E-05  0.1600E+00
     33.904  0.5242E-13  0.1600E+00
     34.043  0.0000E+00  0.1600E+00
     34.182  0.0000E+00  0.1600E+00
     34.321  0.0000E+00  0.1600E+00
     34.461  0.0000E+00  0.1600E+00
     34.600  0.0000E+00  0.1600E+00
     34.739  0.0000E+00  0.1600E+00
     34.878  0.0000E+00  0.1600E+00
     35.017  0.0000E+00  0.1600E+00
     35.156  0.0000E+00  0.1600E+00
     35.295  0.0000E+00  0.1600E+00
     35.434  0.0000E+00  0.1600E+00
