    1    1  100    1
  0.1492893E+02  0.2686686E-09  0.2686686E-09  0.2686686E-09  0.5000000E-15
  1.000000000000000E-004
  CAR 
 unknown system                          
      4     56      8
 
  0.0000000E+00  0.0000000E+00  0.0000000E+00  0.7513148E-03
    1       -4.396999   1.000000
    2       20.761128   0.000000
    3       20.761128   0.000000
    4       20.761128   0.000000
    5       22.100417   0.000000
    6       22.100418   0.000000
    7       22.100418   0.000000
    8       25.745695   0.000000
 
  0.9090909E-01  0.0000000E+00  0.0000000E+00  0.9015778E-02
    1       -4.147576   1.000000
    2       18.367467   0.000000
    3       19.213597   0.000000
    4       20.431977   0.000000
    5       21.343188   0.000000
    6       22.888483   0.000000
    7       24.073402   0.000000
    8       24.614231   0.000000
 
  0.1818182E+00  0.0000000E+00  0.0000000E+00  0.9015778E-02
    1       -3.401094   1.000000
    2       14.675344   0.000000
    3       17.560654   0.000000
    4       19.619266   0.000000
    5       19.940834   0.000000
    6       21.873353   0.000000
    7       25.340119   0.000000
    8       25.665748   0.000000
 
  0.2727273E+00  0.0000000E+00  0.0000000E+00  0.9015778E-02
    1       -2.163090   1.000000
    2       10.941601   0.000000
    3       16.303928   0.000000
    4       18.670441   0.000000
    5       18.721001   0.000000
    6       20.690524   0.000000
    7       26.455696   0.000000
    8       26.754916   0.000000
 
  0.3636364E+00  0.0000000E+00  0.0000000E+00  0.9015778E-02
    1       -0.443435   1.000000
    2        7.487188   1.000000
    3       15.464695   0.000000
    4       17.770081   0.000000
    5       18.024540   0.000000
    6       19.852171   0.000000
    7       27.756539   0.000000
    8       28.410775   0.000000
 
  0.4545455E+00  0.0000000E+00  0.0000000E+00  0.9015778E-02
    1        1.735539   1.000000
    2        4.426689   1.000000
    3       15.044977   0.000000
    4       17.308826   0.000000
    5       17.654744   0.000000
    6       19.420906   0.000000
    7       29.288610   0.000000
    8       29.961689   0.000000
 
  0.9090909E-01  0.9090909E-01  0.0000000E+00  0.1803156E-01
    1       -3.649609   1.000000
    2       16.390554   0.000000
    3       16.984262   0.000000
    4       18.922510   0.000000
    5       21.609485   0.000000
    6       22.988025   0.000000
    7       24.164469   0.000000
    8       25.349125   0.000000
 
  0.1818182E+00  0.9090909E-01  0.0000000E+00  0.3606311E-01
    1       -2.657332   1.000000
    2       12.931150   0.000000
    3       15.235136   0.000000
    4       17.648689   0.000000
    5       20.948567   0.000000
    6       22.434135   0.000000
    7       24.733137   0.000000
    8       27.147797   0.000000
 
  0.2727273E+00  0.9090909E-01 -0.2081668E-16  0.3606311E-01
    1       -1.178256   1.000000
    2        9.339923   1.000000
    3       14.129599   0.000000
    4       16.644506   0.000000
    5       20.060823   0.000000
    6       21.933968   0.000000
    7       25.606053   0.000000
    8       28.975967   0.000000
 
  0.3636364E+00  0.9090909E-01  0.6938894E-17  0.3606311E-01
    1        0.774445   1.000000
    2        6.078188   1.000000
    3       13.465651   0.000000
    4       16.015229   0.000000
    5       19.455505   0.000000
    6       21.511286   0.000000
    7       27.096647   0.000000
    8       30.044143   0.000000
 
  0.4545455E+00  0.9090909E-01 -0.4857226E-16  0.1803156E-01
    1        2.966057   1.000000
    2        3.445408   1.000000
    3       13.244077   0.000000
    4       15.802004   0.000000
    5       19.245402   0.000000
    6       21.352049   0.000000
    7       28.785690   0.000000
    8       29.053282   0.000000
 
  0.1818182E+00  0.1818182E+00  0.0000000E+00  0.1803156E-01
    1       -1.423833   1.000000
    2       11.390731   0.000000
    3       11.838362   0.000000
    4       16.453689   0.000000
    5       21.511311   0.000000
    6       22.485880   0.000000
    7       26.300855   0.000000
    8       27.447361   0.000000
 
  0.2727273E+00  0.1818182E+00  0.5551115E-16  0.3606311E-01
    1        0.289652   1.000000
    2        8.174738   1.000000
    3       10.720630   0.000000
    4       15.628842   0.000000
    5       21.187224   0.000000
    6       23.238963   0.000000
    7       26.524439   0.000000
    8       29.191569   0.000000
 
  0.3636364E+00  0.1818182E+00  0.1387779E-16  0.3606311E-01
    1        2.460986   1.000000
    2        5.136708   1.000000
    3       10.254940   0.000000
    4       15.206136   0.000000
    5       20.834373   0.000000
    6       24.073261   0.000000
    7       26.901620   0.000000
    8       28.674572   0.000000
 
  0.2727273E+00  0.2727273E+00 -0.2775558E-16  0.1803156E-01
    1        2.226724   1.000000
    2        7.300688   1.000000
    3        7.682199   1.000000
    4       15.009477   0.000000
    5       22.401760   0.000000
    6       23.388471   0.000000
    7       27.195525   0.000000
    8       29.452353   0.000000
 
  0.3636364E+00  0.2727273E+00  0.2775558E-16  0.1803156E-01
    1        4.402076   1.000000
    2        4.862736   1.000000
    3        7.277121   1.000000
    4       14.799123   0.000000
    5       22.559030   0.000000
    6       24.575165   0.000000
    7       25.633839   0.000000
    8       30.291607   0.000000
 
  0.9090909E-01  0.9090909E-01  0.9090909E-01  0.6010518E-02
    1       -2.904973   1.000000
    2       14.535073   0.000000
    3       15.495870   0.000000
    4       15.495870   0.000000
    5       23.468997   0.000000
    6       23.468997   0.000000
    7       25.580964   0.000000
    8       25.580964   0.000000
 
  0.1818182E+00  0.9090909E-01  0.9090909E-01  0.1803156E-01
    1       -1.669973   1.000000
    2       11.370423   0.000000
    3       13.607442   0.000000
    4       14.221415   0.000000
    5       23.303854   0.000000
    6       23.756384   0.000000
    7       26.692363   0.000000
    8       26.865721   0.000000
 
  0.2727273E+00  0.9090909E-01  0.9090909E-01  0.1803156E-01
    1        0.045643   1.000000
    2        7.951800   1.000000
    3       12.687581   0.000000
    4       13.334814   0.000000
    5       22.925151   0.000000
    6       23.200118   0.000000
    7       28.173283   0.000000
    8       28.566121   0.000000
 
  0.3636364E+00  0.9090909E-01  0.9090909E-01  0.1803156E-01
    1        2.219842   1.000000
    2        4.902223   1.000000
    3       12.236484   0.000000
    4       12.884341   0.000000
    5       22.661918   0.000000
    6       22.858397   0.000000
    7       29.595977   0.000000
    8       30.174133   0.000000
 
 -0.9090909E-01  0.9090909E-01  0.9090909E-01  0.4507889E-02
    1       -3.898415   1.000000
    2       17.885669   0.000000
    3       17.885669   0.000000
    4       19.076222   0.000000
    5       22.143733   0.000000
    6       22.594861   0.000000
    7       23.813988   0.000000
    8       23.813988   0.000000
 
  0.1818182E+00  0.1818182E+00  0.9090909E-01  0.1803156E-01
    1       -0.198122   1.000000
    2       10.032553   0.000000
    3       10.504518   0.000000
    4       12.843592   0.000000
    5       24.336560   0.000000
    6       25.254963   0.000000
    7       27.381789   0.000000
    8       28.249274   0.000000
 
  0.2727273E+00  0.1818182E+00  0.9090909E-01  0.3606311E-01
    1        1.745125   1.000000
    2        7.012105   1.000000
    3        9.596125   0.826437
    4       12.161512   0.000000
    5       24.452037   0.000000
    6       25.805976   0.000000
    7       28.449869   0.000000
    8       29.881300   0.000000
 
  0.3636364E+00  0.1818182E+00  0.9090909E-01  0.1803156E-01
    1        3.930181   1.000000
    2        4.395383   1.000000
    3        9.358596   1.000000
    4       11.935141   0.000000
    5       24.376241   0.000000
    6       25.996924   0.000000
    7       29.350410   0.000000
    8       30.065809   0.000000
 
 -0.1818182E+00  0.1818182E+00  0.9090909E-01  0.1803156E-01
    1       -3.152783   1.000000
    2       14.801260   0.000000
    3       16.238727   0.000000
    4       18.328137   0.000000
    5       20.853710   0.000000
    6       21.667273   0.000000
    7       24.079305   0.000000
    8       26.258130   0.000000
 
  0.2727273E+00  0.2727273E+00  0.9090909E-01  0.1803156E-01
    1        3.893540   1.000000
    2        6.375862   1.000000
    3        6.758329   1.000000
    4       11.702414   0.000000
    5       25.640427   0.000000
    6       26.979727   0.000000
    7       28.618690   0.000000
    8       30.672883   0.000000
 
 -0.2727273E+00  0.2727273E+00  0.9090909E-01  0.1803156E-01
    1       -1.916236   1.000000
    2       11.148430   0.000000
    3       14.952062   0.000000
    4       17.412144   0.000000
    5       20.464008   0.000000
    6       20.848873   0.000000
    7       23.906680   0.000000
    8       29.430116   0.000000
 
 -0.1818182E+00  0.2727273E+00  0.9090909E-01  0.1803156E-01
    1       -2.162818   1.000000
    2       13.112324   0.000000
    3       13.467763   0.000000
    4       17.839945   0.000000
    5       19.731623   0.000000
    6       21.291649   0.000000
    7       25.699235   0.000000
    8       26.674062   0.000000
 
 -0.3636364E+00  0.3636364E+00  0.9090909E-01  0.1803156E-01
    1       -0.198598   1.000000
    2        7.714910   1.000000
    3       14.083647   0.000000
    4       16.626322   0.000000
    5       19.601105   0.000000
    6       20.911052   0.000000
    7       24.512705   0.000000
    8       29.737040   0.000000
 
 -0.2727273E+00  0.3636364E+00  0.9090909E-01  0.3606311E-01
    1       -0.687272   1.000000
    2        9.770977   0.000031
    3       12.190078   0.000000
    4       17.318677   0.000000
    5       19.748614   0.000000
    6       20.835070   0.000000
    7       25.463488   0.000000
    8       28.581927   0.000000
 
 -0.4545455E+00  0.4545455E+00  0.9090909E-01  0.1803156E-01
    1        1.977782   1.000000
    2        4.662529   1.000000
    3       13.648058   0.000000
    4       16.207967   0.000000
    5       19.160436   0.000000
    6       20.815354   0.000000
    7       26.022273   0.000000
    8       28.067505   0.000000
 
 -0.3636364E+00  0.4545455E+00  0.9090909E-01  0.3606311E-01
    1        1.260467   1.000000
    2        6.541113   1.000000
    3       11.507023   0.000000
    4       16.787144   0.000000
    5       19.418197   0.000000
    6       21.760584   0.000000
    7       24.985725   0.000000
    8       27.696736   0.000000
 
 -0.2727273E+00  0.4545455E+00  0.9090909E-01  0.1803156E-01
    1        1.019448   1.000000
    2        8.681884   1.000000
    3        9.040651   1.000000
    4       17.575322   0.000000
    5       19.905636   0.000000
    6       20.325037   0.000000
    7       26.124051   0.000000
    8       28.477567   0.000000
 
 -0.4545455E+00 -0.4545455E+00  0.9090909E-01  0.1803156E-01
    1        3.452637   1.000000
    2        3.913611   1.000000
    3       11.279704   0.000000
    4       16.593069   0.000000
    5       19.238201   0.000000
    6       22.514173   0.000000
    7       24.831950   0.000000
    8       26.695427   0.000000
 
 -0.3636364E+00 -0.4545455E+00  0.9090909E-01  0.3606311E-01
    1        3.181129   1.000000
    2        5.834076   1.000000
    3        8.411072   1.000000
    4       17.433119   0.000000
    5       19.769209   0.000000
    6       21.597806   0.000000
    7       23.888793   0.000000
    8       29.209356   0.000000
 
 -0.3636364E+00 -0.3636364E+00  0.9090909E-01  0.6010518E-02
    1        5.190476   1.000000
    2        5.791781   1.000000
    3        5.791781   1.000000
    4       17.517601   0.000000
    5       21.155929   0.000000
    6       21.683376   0.000000
    7       21.683376   0.000000
    8       32.176621   0.000000
 
  0.1818182E+00  0.1818182E+00  0.1818182E+00  0.6010518E-02
    1        1.504554   1.000000
    2        8.949083   1.000000
    3        9.591360   0.858802
    4        9.591360   0.858802
    5       26.938113   0.000000
    6       26.938113   0.000000
    7       28.996092   0.000000
    8       28.996092   0.000000
 
  0.2727273E+00  0.1818182E+00  0.1818182E+00  0.1803156E-01
    1        3.660740   1.000000
    2        6.309940   1.000000
    3        8.737957   1.000000
    4        9.130495   1.000000
    5       27.545361   0.000000
    6       27.866825   0.000000
    7       30.241927   0.000000
    8       30.485258   0.000000
 
 -0.1818182E+00  0.1818182E+00  0.1818182E+00  0.4507889E-02
    1       -2.409743   1.000000
    2       14.570001   0.000000
    3       14.570001   0.000000
    4       16.298386   0.000000
    5       18.228519   0.000000
    6       24.049145   0.000000
    7       25.500787   0.000000
    8       25.500788   0.000000
 
  0.2727273E+00  0.2727273E+00  0.1818182E+00  0.6010518E-02
    1        5.631118   1.000000
    2        6.293043   1.000000
    3        6.293043   1.000000
    4        8.721487   1.000000
    5       28.648400   0.000000
    6       29.948536   0.000000
    7       29.948537   0.000000
    8       31.438626   0.000000
 
 -0.2727273E+00  0.2727273E+00  0.1818182E+00  0.1803156E-01
    1       -1.177586   1.000000
    2       11.714345   0.000000
    3       13.262022   0.000000
    4       15.612133   0.000000
    5       17.680098   0.000000
    6       23.451722   0.000000
    7       25.480385   0.000000
    8       28.213140   0.000000
 
 -0.3636364E+00  0.3636364E+00  0.1818182E+00  0.1803156E-01
    1        0.533685   1.000000
    2        8.386751   1.000000
    3       12.379111   0.000000
    4       14.878020   0.000000
    5       18.782855   0.000000
    6       22.644953   0.000000
    7       24.465584   0.000000
    8       27.242587   0.000000
 
 -0.2727273E+00  0.3636364E+00  0.1818182E+00  0.1803156E-01
    1        0.290631   1.000000
    2       10.449892   0.000000
    3       10.731670   0.000000
    4       15.644167   0.000000
    5       16.886028   0.000000
    6       23.216603   0.000000
    7       25.493161   0.000000
    8       27.873327   0.000000
 
 -0.4545455E+00  0.4545455E+00  0.1818182E+00  0.1803156E-01
    1        2.701740   1.000000
    2        5.366007   1.000000
    3       11.935887   0.000000
    4       14.447689   0.000000
    5       20.285966   0.000000
    6       22.220460   0.000000
    7       23.057480   0.000000
    8       26.327956   0.000000
 
 -0.3636364E+00  0.4545455E+00  0.1818182E+00  0.3606311E-01
    1        2.227703   1.000000
    2        7.450376   1.000000
    3        9.917593   0.000000
    4       15.427118   0.000000
    5       17.981183   0.000000
    6       22.223307   0.000000
    7       23.468469   0.000000
    8       28.441096   0.000000
 
 -0.4545455E+00 -0.4545455E+00  0.1818182E+00  0.1803156E-01
    1        4.416881   1.000000
    2        4.844892   1.000000
    3        9.685714   0.055492
    4       15.245556   0.000000
    5       19.393768   0.000000
    6       20.786242   0.000000
    7       22.909379   0.000000
    8       28.417250   0.000000
 
 -0.3636364E+00 -0.4545455E+00  0.1818182E+00  0.1803156E-01
    1        4.367627   1.000000
    2        6.835046   1.000000
    3        7.162353   1.000000
    4       16.681761   0.000000
    5       18.053057   0.000000
    6       20.046538   0.000000
    7       22.854035   0.000000
    8       31.246064   0.000000
 
 -0.2727273E+00  0.2727273E+00  0.2727273E+00  0.4507889E-02
    1        0.047068   1.000000
    2       11.941276   0.000000
    3       11.941277   0.000000
    4       13.833755   0.000000
    5       15.226656   0.000000
    6       25.128911   0.000000
    7       26.434891   0.000000
    8       27.670803   0.000000
 
 -0.3636364E+00  0.3636364E+00  0.2727273E+00  0.1803156E-01
    1        1.746751   1.000000
    2        9.437704   1.000000
    3       11.052014   0.000000
    4       13.414301   0.000000
    5       15.326110   0.000000
    6       22.260044   0.000000
    7       26.159701   0.000000
    8       28.458336   0.000000
 
 -0.4545455E+00  0.4545455E+00  0.2727273E+00  0.1803156E-01
    1        3.897989   1.000000
    2        6.520160   1.000000
    3       10.605565   0.000000
    4       13.039689   0.000000
    5       17.035754   0.000000
    6       19.603798   0.000000
    7       25.766547   0.000000
    8       28.571512   0.000000
 
 -0.3636364E+00  0.4545455E+00  0.2727273E+00  0.1803156E-01
    1        3.664561   1.000000
    2        8.625996   1.000000
    3        8.884686   1.000000
    4       13.951889   0.000000
    5       14.949757   0.000000
    6       19.341143   0.000000
    7       26.484963   0.000000
    8       30.662450   0.000000
 
 -0.4545455E+00 -0.4545455E+00  0.2727273E+00  0.1803156E-01
    1        5.834936   1.000000
    2        6.220590   1.000000
    3        8.538328   1.000000
    4       14.068156   0.000000
    5       16.347665   0.000000
    6       17.110525   0.000000
    7       26.367100   0.000000
    8       31.271368   0.000000
 
 -0.3636364E+00  0.3636364E+00  0.3636364E+00  0.4507889E-02
    1        3.427370   1.000000
    2       10.158606   0.000000
    3       10.158606   0.000000
    4       12.054433   0.000000
    5       13.210572   0.000000
    6       19.111072   0.000000
    7       29.658182   0.000000
    8       30.463160   0.000000
 
 -0.4545455E+00  0.4545455E+00  0.3636364E+00  0.1803156E-01
    1        5.544663   1.000000
    2        8.057174   1.000000
    3        9.710707   0.010705
    4       12.006550   0.000000
    5       13.881362   0.000000
    6       16.291170   0.000000
    7       29.632368   0.000000
    8       31.374287   0.000000
 
 -0.4545455E+00 -0.4545455E+00  0.3636364E+00  0.6010518E-02
    1        7.542875   1.000000
    2        7.956859   1.000000
    3        7.956859   1.000000
    4       12.758232   0.000000
    5       13.973985   0.000000
    6       13.973985   0.000000
    7       30.147105   0.000000
    8       33.537442   0.000000
 
 -0.4545455E+00  0.4545455E+00  0.4545455E+00  0.4507889E-02
    1        7.568768   1.000000
    2        9.262147   1.000000
    3        9.262147   1.000000
    4       11.040694   0.000000
    5       12.200667   0.000000
    6       13.495279   0.000000
    7       33.156600   0.000000
    8       33.352944   0.000000
