unknown system                          
           1
     1.551159    1.551159    1.551159
     1.551159   -1.551159   -1.551159
    -1.551159    1.551159   -1.551159
   Si
     1
Direct configuration=     1
   0.00000000  0.00000000  0.00000000
