unknown system                          
   1.00000000000000     
     2.835434    0.000000    0.000000
     0.000000    2.835434    0.000000
    -0.000000    0.000000    2.835434
   Fe
     2
Direct
  0.000000  0.000000  0.000000
  0.500000  0.500000  0.500000
 
   48   48   48
  192.51      189.85      182.07      169.78      153.89      135.53      115.90      96.191      77.419      60.405    
  45.716      33.657      24.291      17.469      12.866      10.033      8.4484      7.5691      6.9359      6.4419    
  6.0804      5.8321      5.6743      5.5879      5.5605      5.5879      5.6743      5.8321      6.0804      6.4419    
  6.9359      7.5691      8.4484      10.033      12.866      17.469      24.291      33.657      45.716      60.405    
  77.419      96.191      115.90      135.53      153.89      169.78      182.07      189.85      189.85      187.23    
  179.57      167.47      151.82      133.73      114.39      94.949      76.431      59.643      45.147      33.248    
  24.012      17.291      12.762      9.9803      8.4259      7.5588      6.9286      6.4373      6.0781      5.8313    
  5.6745      5.5886      5.5614      5.5886      5.6745      5.8313      6.0781      6.4373      6.9286      7.5588    
  8.4259      9.9803      12.762      17.291      24.012      33.248      45.147      59.643      76.431      94.949    
  114.39      133.73      151.82      167.47      179.57      187.23      182.07      179.57      172.27      160.72    
  145.76      128.46      109.94      91.302      73.529      57.403      43.475      32.050      23.195      16.770    
  12.461      9.8284      8.3612      7.5279      6.9067      6.4238      6.0713      5.8291      5.6751      5.5907    
  5.5639      5.5907      5.6751      5.8291      6.0713      6.4238      6.9067      7.5279      8.3612      9.8284    
  12.461      16.770      23.195      32.050      43.475      57.403      73.529      91.302      109.94      128.46    
  145.76      160.72      172.27      179.57      169.78      167.47      160.72      150.02      136.16      120.09    
  102.86      85.490      68.896      53.824      40.805      30.139      21.897      15.949      11.990      9.5944    
  8.2617      7.4761      6.8703      6.4016      6.0601      5.8255      5.6762      5.5942      5.5681      5.5942    
  5.6762      5.8255      6.0601      6.4016      6.8703      7.4761      8.2617      9.5944      11.990      15.949    
  21.897      30.139      40.805      53.824      68.896      85.490      102.86      120.09      136.16      150.02    
  160.72      167.47      153.89      151.82      145.76      136.16      123.69      109.20      93.628      77.889    
  62.827      49.133      37.309      27.644      20.215      14.896      11.397      9.3045      8.1370      7.4031    
  6.8199      6.3713      6.0451      5.8208      5.6777      5.5990      5.5739      5.5990      5.6777      5.8208    
  6.0451      6.3713      6.8199      7.4031      8.1370      9.3045      11.397      14.896      20.215      27.644    
  37.309      49.133      62.827      77.889      93.628      109.20      123.69      136.16      145.76      151.82    
  135.53      133.73      128.46      120.09      109.20      96.518      82.842      68.988      55.707      43.628    
  33.216      24.741      18.276      13.702      10.738      8.9892      7.9955      7.3095      6.7565      6.3336    
  6.0265      5.8151      5.6797      5.6049      5.5811      5.6049      5.6797      5.8151      6.0265      6.3336    
  6.7565      7.3095      7.9955      8.9892      10.738      13.702      18.276      24.741      33.216      43.628    
  55.707      68.988      82.842      96.518      109.20      120.09      128.46      133.73      115.90      114.39    
  109.94      102.86      93.628      82.842      71.183      59.346      47.989      37.669      28.804      21.639    
  16.233      12.469      10.076      8.6764      7.8392      7.1970      6.6818      6.2897      6.0051      5.8086    
  5.6820      5.6117      5.5892      5.6117      5.6820      5.8086      6.0051      6.2897      6.6818      7.1970    
  7.8392      8.6764      10.076      12.469      16.233      21.639      28.804      37.669      47.989      59.346    
  71.183      82.842      93.628      102.86      109.94      114.39      96.191      94.949      91.302      85.490    
  77.889      68.988      59.346      49.547      40.150      31.637      24.371      18.560      14.244      11.300    
  9.4649      8.3837      7.6614      7.0690      6.5982      6.2410      5.9814      5.8012      5.6843      5.6189    
  5.5979      5.6189      5.6843      5.8012      5.9814      6.2410      6.5982      7.0690      7.6614      8.3837    
  9.4649      11.300      14.244      18.560      24.371      31.637      40.150      49.547      59.346      68.988    
  77.889      85.490      91.302      94.949      77.419      76.431      73.529      68.896      62.827      55.707    
  47.989      40.150      32.655      25.908      20.207      15.718      12.452      10.278      8.9404      8.1089    
  7.4640      6.9299      6.5084      6.1891      5.9560      5.7929      5.6862      5.6259      5.6065      5.6259    
  5.6862      5.7929      5.9560      6.1891      6.5084      6.9299      7.4640      8.1089      8.9404      10.278    
  12.452      15.718      20.207      25.908      32.655      40.150      47.989      55.707      62.827      68.896    
  73.529      76.431      60.405      59.643      57.403      53.824      49.133      43.628      37.669      31.637    
  25.908      20.803      16.556      13.282      10.962      9.4506      8.5055      7.8288      7.2550      6.7850    
  6.4157      6.1354      5.9293      5.7836      5.6871      5.6320      5.6142      5.6320      5.6871      5.7836    
  5.9293      6.1354      6.4157      6.7850      7.2550      7.8288      8.5055      9.4506      10.962      13.282    
  16.556      20.803      25.908      31.637      37.669      43.628      49.133      53.824      57.403      59.643    
  45.716      45.147      43.475      40.805      37.309      33.216      28.804      24.371      20.207      16.556    
  13.585      11.355      9.8164      8.8162      8.1244      7.5394      7.0431      6.6397      6.3230      6.0812    
  5.9017      5.7729      5.6865      5.6366      5.6203      5.6366      5.6865      5.7729      5.9017      6.0812    
  6.3230      6.6397      7.0431      7.5394      8.1244      8.8162      9.8164      11.355      13.585      16.556    
  20.207      24.371      28.804      33.216      37.309      40.805      43.475      45.147      33.657      33.248    
  32.050      30.139      27.644      24.741      21.639      18.560      15.718      13.282      11.355      9.9500    
  8.9899      8.3172      7.7507      7.2539      6.8369      6.4990      6.2328      6.0277      5.8732      5.7607    
  5.6838      5.6390      5.6242      5.6390      5.6838      5.7607      5.8732      6.0277      6.2328      6.4990    
  6.8369      7.2539      7.7507      8.3172      8.9899      9.9500      11.355      13.282      15.718      18.560    
  21.639      24.741      27.644      30.139      32.050      33.248      24.291      24.012      23.195      21.897    
  20.215      18.276      16.233      14.244      12.452      10.962      9.8164      8.9899      8.3844      7.8634    
  7.3920      6.9838      6.6430      6.3665      6.1470      5.9755      5.8441      5.7466      5.6789      5.6389    
  5.6256      5.6389      5.6789      5.7466      5.8441      5.9755      6.1470      6.3665      6.6430      6.9838    
  7.3920      7.8634      8.3844      8.9899      9.8164      10.962      12.452      14.244      16.233      18.276    
  20.215      21.897      23.195      24.012      17.469      17.291      16.770      15.949      14.896      13.702    
  12.469      11.300      10.278      9.4506      8.8162      8.3172      7.8634      7.4401      7.0622      6.7374    
  6.4662      6.2448      6.0667      5.9251      5.8143      5.7305      5.6714      5.6360      5.6242      5.6360    
  5.6714      5.7305      5.8143      5.9251      6.0667      6.2448      6.4662      6.7374      7.0622      7.4401    
  7.8634      8.3172      8.8162      9.4506      10.278      11.300      12.469      13.702      14.896      15.949    
  16.770      17.291      12.866      12.762      12.461      11.990      11.397      10.738      10.076      9.4649    
  8.9404      8.5055      8.1244      7.7507      7.3920      7.0622      6.7702      6.5194      6.3088      6.1347    
  5.9922      5.8765      5.7840      5.7126      5.6615      5.6306      5.6203      5.6306      5.6615      5.7126    
  5.7840      5.8765      5.9922      6.1347      6.3088      6.5194      6.7702      7.0622      7.3920      7.7507    
  8.1244      8.5055      8.9404      9.4649      10.076      10.738      11.397      11.990      12.461      12.762    
  10.033      9.9803      9.8284      9.5944      9.3045      8.9892      8.6764      8.3837      8.1089      7.8288    
  7.5394      7.2539      6.9838      6.7374      6.5194      6.3311      6.1711      6.0364      5.9236      5.8299    
  5.7534      5.6933      5.6497      5.6231      5.6142      5.6231      5.6497      5.6933      5.7534      5.8299    
  5.9236      6.0364      6.1711      6.3311      6.5194      6.7374      6.9838      7.2539      7.5394      7.8288    
  8.1089      8.3837      8.6764      8.9892      9.3045      9.5944      9.8284      9.9803      8.4484      8.4259    
  8.3612      8.2617      8.1370      7.9955      7.8392      7.6614      7.4640      7.2550      7.0431      6.8369    
  6.6430      6.4662      6.3088      6.1711      6.0517      5.9489      5.8606      5.7855      5.7229      5.6730    
  5.6364      5.6140      5.6065      5.6140      5.6364      5.6730      5.7229      5.7855      5.8606      5.9489    
  6.0517      6.1711      6.3088      6.4662      6.6430      6.8369      7.0431      7.2550      7.4640      7.6614    
  7.8392      7.9955      8.1370      8.2617      8.3612      8.4259      7.5691      7.5588      7.5279      7.4761    
  7.4031      7.3095      7.1970      7.0690      6.9299      6.7850      6.6397      6.4990      6.3665      6.2448    
  6.1347      6.0364      5.9489      5.8714      5.8030      5.7436      5.6932      5.6526      5.6226      5.6042    
  5.5979      5.6042      5.6226      5.6526      5.6932      5.7436      5.8030      5.8714      5.9489      6.0364    
  6.1347      6.2448      6.3665      6.4990      6.6397      6.7850      6.9299      7.0690      7.1970      7.3095    
  7.4031      7.4761      7.5279      7.5588      6.9359      6.9286      6.9067      6.8703      6.8199      6.7565    
  6.6818      6.5982      6.5084      6.4157      6.3230      6.2328      6.1470      6.0667      5.9922      5.9236    
  5.8606      5.8030      5.7510      5.7048      5.6651      5.6328      5.6089      5.5942      5.5892      5.5942    
  5.6089      5.6328      5.6651      5.7048      5.7510      5.8030      5.8606      5.9236      5.9922      6.0667    
  6.1470      6.2328      6.3230      6.4157      6.5084      6.5982      6.6818      6.7565      6.8199      6.8703    
  6.9067      6.9286      6.4419      6.4373      6.4238      6.4016      6.3713      6.3336      6.2897      6.2410    
  6.1891      6.1354      6.0812      6.0277      5.9755      5.9251      5.8765      5.8299      5.7855      5.7436    
  5.7048      5.6697      5.6394      5.6146      5.5962      5.5849      5.5811      5.5849      5.5962      5.6146    
  5.6394      5.6697      5.7048      5.7436      5.7855      5.8299      5.8765      5.9251      5.9755      6.0277    
  6.0812      6.1354      6.1891      6.2410      6.2897      6.3336      6.3713      6.4016      6.4238      6.4373    
  6.0804      6.0781      6.0713      6.0601      6.0451      6.0265      6.0051      5.9814      5.9560      5.9293    
  5.9017      5.8732      5.8441      5.8143      5.7840      5.7534      5.7229      5.6932      5.6651      5.6394    
  5.6169      5.5986      5.5851      5.5767      5.5739      5.5767      5.5851      5.5986      5.6169      5.6394    
  5.6651      5.6932      5.7229      5.7534      5.7840      5.8143      5.8441      5.8732      5.9017      5.9293    
  5.9560      5.9814      6.0051      6.0265      6.0451      6.0601      6.0713      6.0781      5.8321      5.8313    
  5.8291      5.8255      5.8208      5.8151      5.8086      5.8012      5.7929      5.7836      5.7729      5.7607    
  5.7466      5.7305      5.7126      5.6933      5.6730      5.6526      5.6328      5.6146      5.5986      5.5856    
  5.5760      5.5701      5.5681      5.5701      5.5760      5.5856      5.5986      5.6146      5.6328      5.6526    
  5.6730      5.6933      5.7126      5.7305      5.7466      5.7607      5.7729      5.7836      5.7929      5.8012    
  5.8086      5.8151      5.8208      5.8255      5.8291      5.8313      5.6743      5.6745      5.6751      5.6762    
  5.6777      5.6797      5.6820      5.6843      5.6862      5.6871      5.6865      5.6838      5.6789      5.6714    
  5.6615      5.6497      5.6364      5.6226      5.6089      5.5962      5.5851      5.5760      5.5693      5.5653    
  5.5639      5.5653      5.5693      5.5760      5.5851      5.5962      5.6089      5.6226      5.6364      5.6497    
  5.6615      5.6714      5.6789      5.6838      5.6865      5.6871      5.6862      5.6843      5.6820      5.6797    
  5.6777      5.6762      5.6751      5.6745      5.5879      5.5886      5.5907      5.5942      5.5990      5.6049    
  5.6117      5.6189      5.6259      5.6320      5.6366      5.6390      5.6389      5.6360      5.6306      5.6231    
  5.6140      5.6042      5.5942      5.5849      5.5767      5.5701      5.5653      5.5623      5.5614      5.5623    
  5.5653      5.5701      5.5767      5.5849      5.5942      5.6042      5.6140      5.6231      5.6306      5.6360    
  5.6389      5.6390      5.6366      5.6320      5.6259      5.6189      5.6117      5.6049      5.5990      5.5942    
  5.5907      5.5886      5.5605      5.5614      5.5639      5.5681      5.5739      5.5811      5.5892      5.5979    
  5.6065      5.6142      5.6203      5.6242      5.6256      5.6242      5.6203      5.6142      5.6065      5.5979    
  5.5892      5.5811      5.5739      5.5681      5.5639      5.5614      5.5605      5.5614      5.5639      5.5681    
  5.5739      5.5811      5.5892      5.5979      5.6065      5.6142      5.6203      5.6242      5.6256      5.6242    
  5.6203      5.6142      5.6065      5.5979      5.5892      5.5811      5.5739      5.5681      5.5639      5.5614    
  5.5879      5.5886      5.5907      5.5942      5.5990      5.6049      5.6117      5.6189      5.6259      5.6320    
  5.6366      5.6390      5.6389      5.6360      5.6306      5.6231      5.6140      5.6042      5.5942      5.5849    
  5.5767      5.5701      5.5653      5.5623      5.5614      5.5623      5.5653      5.5701      5.5767      5.5849    
  5.5942      5.6042      5.6140      5.6231      5.6306      5.6360      5.6389      5.6390      5.6366      5.6320    
  5.6259      5.6189      5.6117      5.6049      5.5990      5.5942      5.5907      5.5886      5.6743      5.6745    
  5.6751      5.6762      5.6777      5.6797      5.6820      5.6843      5.6862      5.6871      5.6865      5.6838    
  5.6789      5.6714      5.6615      5.6497      5.6364      5.6226      5.6089      5.5962      5.5851      5.5760    
  5.5693      5.5653      5.5639      5.5653      5.5693      5.5760      5.5851      5.5962      5.6089      5.6226    
  5.6364      5.6497      5.6615      5.6714      5.6789      5.6838      5.6865      5.6871      5.6862      5.6843    
  5.6820      5.6797      5.6777      5.6762      5.6751      5.6745      5.8321      5.8313      5.8291      5.8255    
  5.8208      5.8151      5.8086      5.8012      5.7929      5.7836      5.7729      5.7607      5.7466      5.7305    
  5.7126      5.6933      5.6730      5.6526      5.6328      5.6146      5.5986      5.5856      5.5760      5.5701    
  5.5681      5.5701      5.5760      5.5856      5.5986      5.6146      5.6328      5.6526      5.6730      5.6933    
  5.7126      5.7305      5.7466      5.7607      5.7729      5.7836      5.7929      5.8012      5.8086      5.8151    
  5.8208      5.8255      5.8291      5.8313      6.0804      6.0781      6.0713      6.0601      6.0451      6.0265    
  6.0051      5.9814      5.9560      5.9293      5.9017      5.8732      5.8441      5.8143      5.7840      5.7534    
  5.7229      5.6932      5.6651      5.6394      5.6169      5.5986      5.5851      5.5767      5.5739      5.5767    
  5.5851      5.5986      5.6169      5.6394      5.6651      5.6932      5.7229      5.7534      5.7840      5.8143    
  5.8441      5.8732      5.9017      5.9293      5.9560      5.9814      6.0051      6.0265      6.0451      6.0601    
  6.0713      6.0781      6.4419      6.4373      6.4238      6.4016      6.3713      6.3336      6.2897      6.2410    
  6.1891      6.1354      6.0812      6.0277      5.9755      5.9251      5.8765      5.8299      5.7855      5.7436    
  5.7048      5.6697      5.6394      5.6146      5.5962      5.5849      5.5811      5.5849      5.5962      5.6146    
  5.6394      5.6697      5.7048      5.7436      5.7855      5.8299      5.8765      5.9251      5.9755      6.0277    
  6.0812      6.1354      6.1891      6.2410      6.2897      6.3336      6.3713      6.4016      6.4238      6.4373    
  6.9359      6.9286      6.9067      6.8703      6.8199      6.7565      6.6818      6.5982      6.5084      6.4157    
  6.3230      6.2328      6.1470      6.0667      5.9922      5.9236      5.8606      5.8030      5.7510      5.7048    
  5.6651      5.6328      5.6089      5.5942      5.5892      5.5942      5.6089      5.6328      5.6651      5.7048    
  5.7510      5.8030      5.8606      5.9236      5.9922      6.0667      6.1470      6.2328      6.3230      6.4157    
  6.5084      6.5982      6.6818      6.7565      6.8199      6.8703      6.9067      6.9286      7.5691      7.5588    
  7.5279      7.4761      7.4031      7.3095      7.1970      7.0690      6.9299      6.7850      6.6397      6.4990    
  6.3665      6.2448      6.1347      6.0364      5.9489      5.8714      5.8030      5.7436      5.6932      5.6526    
  5.6226      5.6042      5.5979      5.6042      5.6226      5.6526      5.6932      5.7436      5.8030      5.8714    
  5.9489      6.0364      6.1347      6.2448      6.3665      6.4990      6.6397      6.7850      6.9299      7.0690    
  7.1970      7.3095      7.4031      7.4761      7.5279      7.5588      8.4484      8.4259      8.3612      8.2617    
  8.1370      7.9955      7.8392      7.6614      7.4640      7.2550      7.0431      6.8369      6.6430      6.4662    
  6.3088      6.1711      6.0517      5.9489      5.8606      5.7855      5.7229      5.6730      5.6364      5.6140    
  5.6065      5.6140      5.6364      5.6730      5.7229      5.7855      5.8606      5.9489      6.0517      6.1711    
  6.3088      6.4662      6.6430      6.8369      7.0431      7.2550      7.4640      7.6614      7.8392      7.9955    
  8.1370      8.2617      8.3612      8.4259      10.033      9.9803      9.8284      9.5944      9.3045      8.9892    
  8.6764      8.3837      8.1089      7.8288      7.5394      7.2539      6.9838      6.7374      6.5194      6.3311    
  6.1711      6.0364      5.9236      5.8299      5.7534      5.6933      5.6497      5.6231      5.6142      5.6231    
  5.6497      5.6933      5.7534      5.8299      5.9236      6.0364      6.1711      6.3311      6.5194      6.7374    
  6.9838      7.2539      7.5394      7.8288      8.1089      8.3837      8.6764      8.9892      9.3045      9.5944    
  9.8284      9.9803      12.866      12.762      12.461      11.990      11.397      10.738      10.076      9.4649    
  8.9404      8.5055      8.1244      7.7507      7.3920      7.0622      6.7702      6.5194      6.3088      6.1347    
  5.9922      5.8765      5.7840      5.7126      5.6615      5.6306      5.6203      5.6306      5.6615      5.7126    
  5.7840      5.8765      5.9922      6.1347      6.3088      6.5194      6.7702      7.0622      7.3920      7.7507    
  8.1244      8.5055      8.9404      9.4649      10.076      10.738      11.397      11.990      12.461      12.762    
  17.469      17.291      16.770      15.949      14.896      13.702      12.469      11.300      10.278      9.4506    
  8.8162      8.3172      7.8634      7.4401      7.0622      6.7374      6.4662      6.2448      6.0667      5.9251    
  5.8143      5.7305      5.6714      5.6360      5.6242      5.6360      5.6714      5.7305      5.8143      5.9251    
  6.0667      6.2448      6.4662      6.7374      7.0622      7.4401      7.8634      8.3172      8.8162      9.4506    
  10.278      11.300      12.469      13.702      14.896      15.949      16.770      17.291      24.291      24.012    
  23.195      21.897      20.215      18.276      16.233      14.244      12.452      10.962      9.8164      8.9899    
  8.3844      7.8634      7.3920      6.9838      6.6430      6.3665      6.1470      5.9755      5.8441      5.7466    
  5.6789      5.6389      5.6256      5.6389      5.6789      5.7466      5.8441      5.9755      6.1470      6.3665    
  6.6430      6.9838      7.3920      7.8634      8.3844      8.9899      9.8164      10.962      12.452      14.244    
  16.233      18.276      20.215      21.897      23.195      24.012      33.657      33.248      32.050      30.139    
  27.644      24.741      21.639      18.560      15.718      13.282      11.355      9.9500      8.9899      8.3172    
  7.7507      7.2539      6.8369      6.4990      6.2328      6.0277      5.8732      5.7607      5.6838      5.6390    
  5.6242      5.6390      5.6838      5.7607      5.8732      6.0277      6.2328      6.4990      6.8369      7.2539    
  7.7507      8.3172      8.9899      9.9500      11.355      13.282      15.718      18.560      21.639      24.741    
  27.644      30.139      32.050      33.248      45.716      45.147      43.475      40.805      37.309      33.216    
  28.804      24.371      20.207      16.556      13.585      11.355      9.8164      8.8162      8.1244      7.5394    
  7.0431      6.6397      6.3230      6.0812      5.9017      5.7729      5.6865      5.6366      5.6203      5.6366    
  5.6865      5.7729      5.9017      6.0812      6.3230      6.6397      7.0431      7.5394      8.1244      8.8162    
  9.8164      11.355      13.585      16.556      20.207      24.371      28.804      33.216      37.309      40.805    
  43.475      45.147      60.405      59.643      57.403      53.824      49.133      43.628      37.669      31.637    
  25.908      20.803      16.556      13.282      10.962      9.4506      8.5055      7.8288      7.2550      6.7850    
  6.4157      6.1354      5.9293      5.7836      5.6871      5.6320      5.6142      5.6320      5.6871      5.7836    
  5.9293      6.1354      6.4157      6.7850      7.2550      7.8288      8.5055      9.4506      10.962      13.282    
  16.556      20.803      25.908      31.637      37.669      43.628      49.133      53.824      57.403      59.643    
  77.419      76.431      73.529      68.896      62.827      55.707      47.989      40.150      32.655      25.908    
  20.207      15.718      12.452      10.278      8.9404      8.1089      7.4640      6.9299      6.5084      6.1891    
  5.9560      5.7929      5.6862      5.6259      5.6065      5.6259      5.6862      5.7929      5.9560      6.1891    
  6.5084      6.9299      7.4640      8.1089      8.9404      10.278      12.452      15.718      20.207      25.908    
  32.655      40.150      47.989      55.707      62.827      68.896      73.529      76.431      96.191      94.949    
  91.302      85.490      77.889      68.988      59.346      49.547      40.150      31.637      24.371      18.560    
  14.244      11.300      9.4649      8.3837      7.6614      7.0690      6.5982      6.2410      5.9814      5.8012    
  5.6843      5.6189      5.5979      5.6189      5.6843      5.8012      5.9814      6.2410      6.5982      7.0690    
  7.6614      8.3837      9.4649      11.300      14.244      18.560      24.371      31.637      40.150      49.547    
  59.346      68.988      77.889      85.490      91.302      94.949      115.90      114.39      109.94      102.86    
  93.628      82.842      71.183      59.346      47.989      37.669      28.804      21.639      16.233      12.469    
  10.076      8.6764      7.8392      7.1970      6.6818      6.2897      6.0051      5.8086      5.6820      5.6117    
  5.5892      5.6117      5.6820      5.8086      6.0051      6.2897      6.6818      7.1970      7.8392      8.6764    
  10.076      12.469      16.233      21.639      28.804      37.669      47.989      59.346      71.183      82.842    
  93.628      102.86      109.94      114.39      135.53      133.73      128.46      120.09      109.20      96.518    
  82.842      68.988      55.707      43.628      33.216      24.741      18.276      13.702      10.738      8.9892    
  7.9955      7.3095      6.7565      6.3336      6.0265      5.8151      5.6797      5.6049      5.5811      5.6049    
  5.6797      5.8151      6.0265      6.3336      6.7565      7.3095      7.9955      8.9892      10.738      13.702    
  18.276      24.741      33.216      43.628      55.707      68.988      82.842      96.518      109.20      120.09    
  128.46      133.73      153.89      151.82      145.76      136.16      123.69      109.20      93.628      77.889    
  62.827      49.133      37.309      27.644      20.215      14.896      11.397      9.3045      8.1370      7.4031    
  6.8199      6.3713      6.0451      5.8208      5.6777      5.5990      5.5739      5.5990      5.6777      5.8208    
  6.0451      6.3713      6.8199      7.4031      8.1370      9.3045      11.397      14.896      20.215      27.644    
  37.309      49.133      62.827      77.889      93.628      109.20      123.69      136.16      145.76      151.82    
  169.78      167.47      160.72      150.02      136.16      120.09      102.86      85.490      68.896      53.824    
  40.805      30.139      21.897      15.949      11.990      9.5944      8.2617      7.4761      6.8703      6.4016    
  6.0601      5.8255      5.6762      5.5942      5.5681      5.5942      5.6762      5.8255      6.0601      6.4016    
  6.8703      7.4761      8.2617      9.5944      11.990      15.949      21.897      30.139      40.805      53.824    
  68.896      85.490      102.86      120.09      136.16      150.02      160.72      167.47      182.07      179.57    
  172.27      160.72      145.76      128.46      109.94      91.302      73.529      57.403      43.475      32.050    
  23.195      16.770      12.461      9.8284      8.3612      7.5279      6.9067      6.4238      6.0713      5.8291    
  5.6751      5.5907      5.5639      5.5907      5.6751      5.8291      6.0713      6.4238      6.9067      7.5279    
  8.3612      9.8284      12.461      16.770      23.195      32.050      43.475      57.403      73.529      91.302    
  109.94      128.46      145.76      160.72      172.27      179.57      189.85      187.23      179.57      167.47    
  151.82      133.73      114.39      94.949      76.431      59.643      45.147      33.248      24.012      17.291    
  12.762      9.9803      8.4259      7.5588      6.9286      6.4373      6.0781      5.8313      5.6745      5.5886    
  5.5614      5.5886      5.6745      5.8313      6.0781      6.4373      6.9286      7.5588      8.4259      9.9803    
  12.762      17.291      24.012      33.248      45.147      59.643      76.431      94.949      114.39      133.73    
  151.82      167.47      179.57      187.23      189.85      187.23      179.57      167.47      151.82      133.73    
  114.39      94.949      76.431      59.643      45.147      33.248      24.012      17.291      12.762      9.9803    
  8.4259      7.5588      6.9286      6.4373      6.0781      5.8313      5.6745      5.5886      5.5614      5.5886    
  5.6745      5.8313      6.0781      6.4373      6.9286      7.5588      8.4259      9.9803      12.762      17.291    
  24.012      33.248      45.147      59.643      76.431      94.949      114.39      133.73      151.82      167.47    
  179.57      187.23      187.23      184.65      177.11      165.20      149.78      131.96      112.89      93.722    
  75.455      58.890      44.585      32.845      23.737      17.115      12.660      9.9288      8.4041      7.5487    
  6.9214      6.4330      6.0760      5.8307      5.6748      5.5894      5.5623      5.5894      5.6748      5.8307    
  6.0760      6.4330      6.9214      7.5487      8.4041      9.9288      12.660      17.115      23.737      32.845    
  44.585      58.890      75.455      93.722      112.89      131.96      149.78      165.20      177.11      184.65    
  179.57      177.11      169.92      158.54      143.81      126.76      108.50      90.124      72.590      56.678    
  42.934      31.661      22.931      16.602      12.364      9.7804      8.3412      7.5182      6.8999      6.4199    
  6.0696      5.8289      5.6758      5.5919      5.5653      5.5919      5.6758      5.8289      6.0696      6.4199    
  6.8999      7.5182      8.3412      9.7804      12.364      16.602      22.931      31.661      42.934      56.678    
  72.590      90.124      108.50      126.76      143.81      158.54      169.92      177.11      167.47      165.20    