   2   2   1   0
  0.1136129E+02  0.2832386E-09  0.2832386E-09  0.2832386E-09  0.5000000E-15
  1.000000000000000E-004
  CAR 
 unknown system                          
     27.04143403     -4.38140931  301      5.81889707      1.00000000
     -4.381  0.0000E+00  0.0000E+00  0.0000E+00  0.0000E+00
     -4.277  0.0000E+00  0.0000E+00  0.0000E+00  0.0000E+00
     -4.172  0.0000E+00  0.0000E+00  0.0000E+00  0.0000E+00
     -4.067 -0.1652E-33  0.0000E+00 -0.1730E-34  0.0000E+00
     -3.962 -0.8038E-30  0.0000E+00 -0.8421E-31  0.0000E+00
     -3.858 -0.2250E-26 -0.6396E-33 -0.2358E-27 -0.6699E-34
     -3.753 -0.3620E-23 -0.2856E-29 -0.3795E-24 -0.2992E-30
     -3.648 -0.3346E-20 -0.7337E-26 -0.3508E-21 -0.7688E-27
     -3.543 -0.1718E-17 -0.1083E-22 -0.1803E-18 -0.1135E-23
     -3.439 -0.5195E-15 -0.9184E-20 -0.5459E-16 -0.9631E-21
     -3.334 -0.8938E-13 -0.4327E-17 -0.9417E-14 -0.4542E-18
     -3.229 -0.8733E-11 -0.1198E-14 -0.9241E-12 -0.1259E-15
     -3.124 -0.4812E-09 -0.1889E-12 -0.5133E-10 -0.1991E-13
     -3.020 -0.1478E-07 -0.1689E-10 -0.1600E-08 -0.1789E-11
     -2.915 -0.2479E-06 -0.8511E-09 -0.2756E-07 -0.9093E-10
     -2.810 -0.2163E-05 -0.2384E-07 -0.2542E-06 -0.2588E-08
     -2.706 -0.8571E-05 -0.3627E-06 -0.1152E-05 -0.4058E-07
     -2.601 -0.5153E-05 -0.2838E-05 -0.1692E-05 -0.3379E-06
     -2.496  0.6209E-04 -0.9638E-05  0.4812E-05 -0.1347E-05
     -2.391  0.1819E-03 -0.3983E-06  0.2386E-04 -0.1389E-05
     -2.287  0.1968E-03  0.8009E-04  0.4447E-04  0.6999E-05
     -2.182  0.7704E-04  0.1951E-03  0.5254E-04  0.2744E-04
     -2.077 -0.2599E-04  0.1840E-03  0.4982E-04  0.4671E-04
     -1.972 -0.2105E-04  0.5759E-04  0.4761E-04  0.5274E-04
     -1.868  0.2011E-03 -0.3286E-04  0.6868E-04  0.4930E-04
     -1.763  0.5597E-03 -0.1184E-04  0.1273E-03  0.4806E-04
     -1.658  0.5787E-03  0.2318E-03  0.1879E-03  0.7234E-04
     -1.553  0.2187E-03  0.5812E-03  0.2108E-03  0.1332E-03
     -1.449 -0.3559E-04  0.5576E-03  0.2071E-03  0.1916E-03
     -1.344  0.2506E-04  0.1901E-03  0.2097E-03  0.2115E-03
     -1.239  0.3661E-03 -0.4371E-04  0.2481E-03  0.2070E-03
     -1.134  0.6319E-03  0.1306E-04  0.3143E-03  0.2083E-03
     -1.030  0.4261E-03  0.3398E-03  0.3589E-03  0.2439E-03
     -0.925  0.5218E-04  0.6283E-03  0.3644E-03  0.3097E-03
     -0.820 -0.2101E-04  0.4571E-03  0.3622E-03  0.3576E-03
     -0.715  0.3346E-03  0.7865E-04  0.3972E-03  0.3659E-03
     -0.611  0.7861E-03 -0.5537E-04  0.4796E-03  0.3601E-03
     -0.506  0.6688E-03  0.1984E-03  0.5496E-03  0.3808E-03
     -0.401  0.1841E-03  0.6945E-03  0.5689E-03  0.4536E-03
     -0.296  0.2539E-03  0.7946E-03  0.5955E-03  0.5368E-03
     -0.192  0.9634E-03  0.3187E-03  0.6964E-03  0.5702E-03
     -0.087  0.1221E-02 -0.1330E-04  0.8243E-03  0.5688E-03
      0.018  0.5854E-03  0.3426E-03  0.8856E-03  0.6047E-03
      0.123  0.2705E-04  0.1086E-02  0.8885E-03  0.7185E-03
      0.227  0.1389E-03  0.1170E-02  0.9030E-03  0.8410E-03
      0.332  0.6171E-03  0.4664E-03  0.9676E-03  0.8899E-03
      0.437  0.9267E-03 -0.1129E-04  0.1065E-02  0.8887E-03
      0.542  0.8656E-03  0.1367E-03  0.1155E-02  0.9030E-03
      0.646  0.6533E-03  0.5166E-03  0.1224E-02  0.9571E-03
      0.751  0.7329E-03  0.5363E-03  0.1301E-02  0.1013E-02
      0.856  0.1839E-02  0.3110E-03  0.1493E-02  0.1046E-02
      0.960  0.3639E-02  0.5258E-03  0.1874E-02  0.1101E-02
      1.065  0.3893E-02  0.9914E-03  0.2282E-02  0.1205E-02
      1.170  0.2677E-02  0.9054E-03  0.2562E-02  0.1300E-02
      1.275  0.2908E-02  0.4248E-03  0.2867E-02  0.1344E-02
      1.379  0.4633E-02  0.6513E-03  0.3352E-02  0.1412E-02
      1.484  0.5741E-02  0.1576E-02  0.3954E-02  0.1577E-02
      1.589  0.6235E-02  0.1612E-02  0.4607E-02  0.1746E-02
      1.694  0.6186E-02  0.7172E-03  0.5255E-02  0.1821E-02
      1.798  0.5004E-02  0.7252E-03  0.5779E-02  0.1897E-02
      1.903  0.4060E-02  0.1633E-02  0.6204E-02  0.2068E-02
      2.008  0.4446E-02  0.1649E-02  0.6670E-02  0.2241E-02
      2.113  0.4551E-02  0.8721E-03  0.7147E-02  0.2332E-02
      2.217  0.3166E-02  0.7433E-03  0.7478E-02  0.2410E-02
      2.322  0.2797E-02  0.1559E-02  0.7771E-02  0.2573E-02
      2.427  0.5838E-02  0.2555E-02  0.8383E-02  0.2841E-02
      2.532  0.9565E-02  0.3150E-02  0.9384E-02  0.3171E-02
      2.636  0.1047E-01  0.3501E-02  0.1048E-01  0.3538E-02
      2.741  0.8996E-02  0.2975E-02  0.1142E-01  0.3849E-02
      2.846  0.7245E-02  0.1999E-02  0.1218E-01  0.4059E-02
      2.951  0.6433E-02  0.2389E-02  0.1286E-01  0.4309E-02
      3.055  0.6464E-02  0.3674E-02  0.1353E-01  0.4694E-02
      3.160  0.7631E-02  0.4048E-02  0.1433E-01  0.5118E-02
      3.265  0.1004E-01  0.3935E-02  0.1538E-01  0.5530E-02
      3.370  0.1112E-01  0.4385E-02  0.1655E-01  0.5989E-02
      3.474  0.8659E-02  0.4180E-02  0.1746E-01  0.6427E-02
      3.579  0.4525E-02  0.2740E-02  0.1793E-01  0.6714E-02
      3.684  0.2346E-02  0.1630E-02  0.1818E-01  0.6885E-02
      3.789  0.2932E-02  0.1870E-02  0.1848E-01  0.7081E-02
      3.893  0.4106E-02  0.3251E-02  0.1891E-01  0.7421E-02
      3.998  0.3784E-02  0.4796E-02  0.1931E-01  0.7924E-02
      4.103  0.2312E-02  0.6020E-02  0.1955E-01  0.8554E-02
      4.208  0.2167E-02  0.7251E-02  0.1978E-01  0.9314E-02
      4.312  0.4849E-02  0.8206E-02  0.2029E-01  0.1017E-01
      4.417  0.7832E-02  0.9084E-02  0.2111E-01  0.1112E-01
      4.522  0.8497E-02  0.9443E-02  0.2200E-01  0.1211E-01
      4.626  0.9408E-02  0.8125E-02  0.2298E-01  0.1296E-01
      4.731  0.1295E-01  0.6790E-02  0.2434E-01  0.1368E-01
      4.836  0.1651E-01  0.6700E-02  0.2607E-01  0.1438E-01
      4.941  0.1692E-01  0.7318E-02  0.2784E-01  0.1514E-01
      5.045  0.1414E-01  0.8320E-02  0.2932E-01  0.1602E-01
      5.150  0.9989E-02  0.8775E-02  0.3037E-01  0.1693E-01
      5.255  0.6663E-02  0.7831E-02  0.3107E-01  0.1776E-01
      5.360  0.5387E-02  0.5474E-02  0.3163E-01  0.1833E-01
      5.464  0.5799E-02  0.2993E-02  0.3224E-01  0.1864E-01
      5.569  0.6026E-02  0.1783E-02  0.3287E-01  0.1883E-01
      5.674  0.4915E-02  0.1665E-02  0.3338E-01  0.1900E-01
      5.779  0.4355E-02  0.1956E-02  0.3384E-01  0.1921E-01
      5.883  0.5056E-02  0.2292E-02  0.3437E-01  0.1945E-01
      5.988  0.4513E-02  0.2018E-02  0.3484E-01  0.1966E-01
      6.093  0.2821E-02  0.1510E-02  0.3514E-01  0.1982E-01
      6.198  0.1743E-02  0.1887E-02  0.3532E-01  0.2001E-01
      6.302  0.1238E-02  0.2594E-02  0.3545E-01  0.2029E-01
      6.407  0.9246E-03  0.2431E-02  0.3555E-01  0.2054E-01
      6.512  0.6967E-03  0.2533E-02  0.3562E-01  0.2081E-01
      6.617  0.6152E-03  0.3950E-02  0.3568E-01  0.2122E-01
      6.721  0.5954E-03  0.5142E-02  0.3575E-01  0.2176E-01
      6.826  0.5186E-03  0.5584E-02  0.3580E-01  0.2234E-01
      6.931  0.5338E-03  0.5994E-02  0.3586E-01  0.2297E-01
      7.036  0.4068E-03  0.6520E-02  0.3590E-01  0.2365E-01
      7.140  0.4568E-03  0.7812E-02  0.3595E-01  0.2447E-01
      7.245  0.1596E-02  0.8819E-02  0.3611E-01  0.2540E-01
      7.350  0.2838E-02  0.8649E-02  0.3641E-01  0.2630E-01
      7.455  0.2391E-02  0.8732E-02  0.3666E-01  0.2722E-01
      7.559  0.1065E-02  0.1001E-01  0.3677E-01  0.2827E-01
      7.664  0.7266E-03  0.1380E-01  0.3685E-01  0.2971E-01
      7.769  0.1124E-02  0.1693E-01  0.3697E-01  0.3148E-01
      7.873  0.8994E-03  0.1268E-01  0.3706E-01  0.3281E-01
      7.978  0.3925E-03  0.6103E-02  0.3710E-01  0.3345E-01
      8.083  0.5575E-03  0.5863E-02  0.3716E-01  0.3407E-01
      8.188  0.9644E-03  0.7447E-02  0.3726E-01  0.3485E-01
      8.292  0.8657E-03  0.5097E-02  0.3735E-01  0.3538E-01
      8.397  0.4770E-03  0.1934E-02  0.3740E-01  0.3558E-01
      8.502  0.4411E-03  0.9027E-03  0.3745E-01  0.3568E-01
      8.607  0.5484E-03  0.6714E-03  0.3751E-01  0.3575E-01
      8.711  0.3204E-03  0.2811E-03  0.3754E-01  0.3578E-01
      8.816  0.3135E-03  0.3966E-03  0.3757E-01  0.3582E-01
      8.921  0.9705E-03  0.1193E-02  0.3767E-01  0.3594E-01
      9.026  0.1460E-02  0.2213E-02  0.3783E-01  0.3618E-01
      9.130  0.1184E-02  0.3043E-02  0.3795E-01  0.3649E-01
      9.235  0.7204E-03  0.2963E-02  0.3803E-01  0.3680E-01
      9.340  0.5995E-03  0.1940E-02  0.3809E-01  0.3701E-01
      9.445  0.5370E-03  0.7257E-03  0.3814E-01  0.3708E-01
      9.549  0.2889E-03  0.3964E-04  0.3817E-01  0.3709E-01
      9.654  0.3097E-03  0.3055E-03  0.3821E-01  0.3712E-01
      9.759  0.8276E-03  0.1061E-02  0.3829E-01  0.3723E-01
      9.864  0.1640E-02  0.1132E-02  0.3847E-01  0.3735E-01
      9.968  0.1973E-02  0.4681E-03  0.3867E-01  0.3740E-01
     10.073  0.1150E-02  0.1815E-03  0.3879E-01  0.3742E-01
     10.178  0.2184E-03  0.4585E-03  0.3882E-01  0.3747E-01
     10.283  0.1964E-03  0.9391E-03  0.3884E-01  0.3756E-01
     10.387  0.5342E-03  0.1670E-02  0.3889E-01  0.3774E-01
     10.492  0.5237E-03  0.1951E-02  0.3895E-01  0.3794E-01
     10.597  0.4685E-03  0.1337E-02  0.3900E-01  0.3808E-01
     10.702  0.6563E-03  0.6964E-03  0.3907E-01  0.3816E-01
     10.806  0.7780E-03  0.4992E-03  0.3915E-01  0.3821E-01
     10.911  0.7205E-03  0.5615E-03  0.3922E-01  0.3827E-01
     11.016  0.6160E-03  0.7356E-03  0.3929E-01  0.3834E-01
     11.121  0.6360E-03  0.1209E-02  0.3935E-01  0.3847E-01
     11.225  0.5417E-03  0.1559E-02  0.3941E-01  0.3863E-01
     11.330  0.2025E-03  0.1162E-02  0.3943E-01  0.3876E-01
     11.435 -0.1840E-04  0.4319E-03  0.3943E-01  0.3880E-01
     11.539  0.4018E-05  0.1238E-03  0.3943E-01  0.3881E-01
     11.644  0.1409E-03  0.3726E-03  0.3944E-01  0.3885E-01
     11.749  0.2102E-03  0.6550E-03  0.3947E-01  0.3892E-01
     11.854  0.1219E-03  0.7604E-03  0.3948E-01  0.3900E-01
     11.958  0.1417E-04  0.9188E-03  0.3948E-01  0.3910E-01
     12.063 -0.2615E-04  0.9714E-03  0.3948E-01  0.3920E-01
     12.168 -0.5075E-04  0.8370E-03  0.3947E-01  0.3929E-01
     12.273 -0.4440E-05  0.7285E-03  0.3947E-01  0.3936E-01
     12.377  0.3487E-03  0.5080E-03  0.3951E-01  0.3942E-01
     12.482  0.1014E-02  0.1522E-03  0.3961E-01  0.3943E-01
     12.587  0.1415E-02 -0.3277E-04  0.3976E-01  0.3943E-01
     12.692  0.1040E-02 -0.8065E-05  0.3987E-01  0.3943E-01
     12.796  0.3101E-03  0.1153E-03  0.3990E-01  0.3944E-01
     12.901 -0.7760E-04  0.1891E-03  0.3990E-01  0.3946E-01
     13.006 -0.7985E-04  0.1131E-03  0.3989E-01  0.3947E-01
     13.111  0.2360E-03  0.1332E-03  0.3991E-01  0.3949E-01
     13.215  0.8688E-03  0.4510E-03  0.4000E-01  0.3953E-01
     13.320  0.1577E-02  0.7620E-03  0.4017E-01  0.3961E-01
     13.425  0.2189E-02  0.8154E-03  0.4040E-01  0.3970E-01
     13.530  0.2415E-02  0.6612E-03  0.4065E-01  0.3977E-01
     13.634  0.1748E-02  0.4747E-03  0.4083E-01  0.3982E-01
     13.739  0.5878E-03  0.4198E-03  0.4090E-01  0.3986E-01
     13.844 -0.7514E-04  0.2921E-03  0.4089E-01  0.3989E-01
     13.949 -0.1820E-04  0.7104E-04  0.4089E-01  0.3990E-01
     14.053  0.5302E-03 -0.4099E-04  0.4094E-01  0.3989E-01
     14.158  0.1328E-02 -0.5883E-04  0.4108E-01  0.3989E-01
     14.263  0.2067E-02  0.2113E-04  0.4130E-01  0.3989E-01
     14.368  0.2205E-02  0.3522E-03  0.4153E-01  0.3993E-01
     14.472  0.1742E-02  0.1149E-02  0.4171E-01  0.4005E-01
     14.577  0.1608E-02  0.2398E-02  0.4188E-01  0.4030E-01
     14.682  0.1517E-02  0.3056E-02  0.4204E-01  0.4062E-01
     14.787  0.9180E-03  0.2094E-02  0.4213E-01  0.4084E-01
     14.891  0.5252E-03  0.6285E-03  0.4219E-01  0.4090E-01
     14.996  0.7065E-03  0.2095E-03  0.4226E-01  0.4093E-01
     15.101  0.1391E-02  0.4658E-03  0.4241E-01  0.4098E-01
     15.205  0.2149E-02  0.5341E-03  0.4263E-01  0.4103E-01
     15.310  0.2018E-02  0.7455E-03  0.4285E-01  0.4111E-01
     15.415  0.1173E-02  0.1551E-02  0.4297E-01  0.4127E-01
     15.520  0.4677E-03  0.2464E-02  0.4302E-01  0.4153E-01
     15.624  0.1841E-03  0.2852E-02  0.4304E-01  0.4183E-01
     15.729  0.2648E-03  0.2477E-02  0.4306E-01  0.4209E-01
     15.834  0.4318E-03  0.1518E-02  0.4311E-01  0.4225E-01
     15.939  0.4526E-03  0.9283E-03  0.4316E-01  0.4234E-01
     16.043  0.5357E-03  0.1437E-02  0.4321E-01  0.4249E-01
     16.148  0.1105E-02  0.2369E-02  0.4333E-01  0.4274E-01
     16.253  0.2059E-02  0.2173E-02  0.4354E-01  0.4297E-01
     16.358  0.2319E-02  0.9561E-03  0.4379E-01  0.4307E-01
     16.462  0.1637E-02  0.1029E-03  0.4396E-01  0.4308E-01
     16.567  0.1473E-02 -0.2376E-04  0.4411E-01  0.4308E-01
     16.672  0.1661E-02  0.1955E-03  0.4429E-01  0.4310E-01
     16.777  0.1230E-02  0.4636E-03  0.4442E-01  0.4315E-01
     16.881  0.1487E-02  0.9162E-03  0.4457E-01  0.4324E-01
     16.986  0.2870E-02  0.1531E-02  0.4487E-01  0.4340E-01
     17.091  0.3133E-02  0.1834E-02  0.4520E-01  0.4360E-01
     17.196  0.1586E-02  0.1908E-02  0.4537E-01  0.4380E-01
     17.300  0.3957E-03  0.1770E-02  0.4541E-01  0.4398E-01
     17.405  0.4187E-03  0.1317E-02  0.4545E-01  0.4412E-01
     17.510  0.4741E-03  0.1253E-02  0.4550E-01  0.4425E-01
     17.615  0.1349E-03  0.1611E-02  0.4552E-01  0.4442E-01
     17.719  0.6666E-04  0.1757E-02  0.4552E-01  0.4460E-01
     17.824  0.6494E-03  0.2010E-02  0.4559E-01  0.4481E-01
     17.929  0.1255E-02  0.2744E-02  0.4572E-01  0.4510E-01
     18.034  0.1140E-02  0.2731E-02  0.4584E-01  0.4539E-01
     18.138  0.7003E-03  0.1338E-02  0.4591E-01  0.4553E-01
     18.243  0.5213E-03  0.1093E-03  0.4597E-01  0.4554E-01
     18.348  0.1123E-02 -0.1975E-03  0.4609E-01  0.4552E-01
     18.453  0.2187E-02 -0.4173E-04  0.4632E-01  0.4551E-01
     18.557  0.2053E-02  0.5197E-03  0.4653E-01  0.4557E-01
     18.662  0.9054E-03  0.1223E-02  0.4663E-01  0.4570E-01
     18.767  0.5249E-03  0.1297E-02  0.4668E-01  0.4583E-01
     18.871  0.1057E-02  0.8962E-03  0.4679E-01  0.4593E-01
     18.976  0.1484E-02  0.8746E-03  0.4695E-01  0.4602E-01
     19.081  0.1653E-02  0.1613E-02  0.4712E-01  0.4619E-01
     19.186  0.2173E-02  0.2210E-02  0.4735E-01  0.4642E-01
     19.290  0.2270E-02  0.1506E-02  0.4759E-01  0.4658E-01
     19.395  0.1175E-02  0.3911E-03  0.4771E-01  0.4662E-01
     19.500  0.2315E-03  0.5094E-03  0.4773E-01  0.4667E-01
     19.605  0.2330E-03  0.1539E-02  0.4776E-01  0.4683E-01
     19.709  0.5195E-03  0.1656E-02  0.4781E-01  0.4701E-01
     19.814  0.6501E-03  0.9259E-03  0.4788E-01  0.4710E-01
     19.919  0.6015E-03  0.1167E-02  0.4794E-01  0.4722E-01
     20.024  0.7596E-03  0.2095E-02  0.4802E-01  0.4744E-01
     20.128  0.1369E-02  0.1938E-02  0.4817E-01  0.4765E-01
     20.233  0.1559E-02  0.9855E-03  0.4833E-01  0.4775E-01
     20.338  0.1045E-02  0.6698E-03  0.4844E-01  0.4782E-01
     20.443  0.9878E-03  0.7464E-03  0.4854E-01  0.4790E-01
     20.547  0.1413E-02  0.4955E-03  0.4869E-01  0.4795E-01
     20.652  0.1259E-02  0.3889E-03  0.4882E-01  0.4799E-01
     20.757  0.7468E-03  0.9084E-03  0.4890E-01  0.4809E-01
     20.862  0.8203E-03  0.1369E-02  0.4899E-01  0.4823E-01
     20.966  0.1192E-02  0.1423E-02  0.4911E-01  0.4838E-01
     21.071  0.8765E-03  0.1537E-02  0.4920E-01  0.4854E-01
     21.176  0.3823E-03  0.1497E-02  0.4924E-01  0.4870E-01
     21.281  0.4601E-03  0.1056E-02  0.4929E-01  0.4881E-01
     21.385  0.4905E-03  0.6480E-03  0.4934E-01  0.4887E-01
     21.490  0.1345E-03  0.7082E-03  0.4936E-01  0.4895E-01
     21.595  0.3112E-03  0.1224E-02  0.4939E-01  0.4908E-01
     21.700  0.1703E-02  0.1427E-02  0.4957E-01  0.4923E-01
     21.804  0.2951E-02  0.1006E-02  0.4988E-01  0.4933E-01
     21.909  0.2227E-02  0.4054E-03  0.5011E-01  0.4937E-01
     22.014  0.5913E-03 -0.3831E-04  0.5017E-01  0.4937E-01
     22.119 -0.1558E-04 -0.1563E-03  0.5017E-01  0.4935E-01
     22.223  0.4439E-03  0.4722E-03  0.5022E-01  0.4940E-01
     22.328  0.1161E-02  0.2063E-02  0.5034E-01  0.4962E-01
     22.433  0.1578E-02  0.3014E-02  0.5050E-01  0.4994E-01
     22.537  0.1536E-02  0.1921E-02  0.5066E-01  0.5014E-01
     22.642  0.1171E-02  0.3394E-03  0.5079E-01  0.5017E-01
     22.747  0.6899E-03 -0.1115E-03  0.5086E-01  0.5016E-01
     22.852  0.3721E-03  0.4016E-03  0.5090E-01  0.5020E-01
     22.956  0.5663E-03  0.1102E-02  0.5096E-01  0.5032E-01
     23.061  0.1439E-02  0.1282E-02  0.5111E-01  0.5045E-01
     23.166  0.2477E-02  0.1274E-02  0.5137E-01  0.5059E-01
     23.271  0.2305E-02  0.1675E-02  0.5161E-01  0.5076E-01
     23.375  0.1189E-02  0.1704E-02  0.5173E-01  0.5094E-01
     23.480  0.6362E-03  0.8339E-03  0.5180E-01  0.5103E-01
     23.585  0.8869E-03  0.3422E-03  0.5189E-01  0.5106E-01
     23.690  0.1326E-02  0.1080E-02  0.5203E-01  0.5118E-01
     23.794  0.1322E-02  0.2003E-02  0.5217E-01  0.5139E-01
     23.899  0.1283E-02  0.2305E-02  0.5230E-01  0.5163E-01
     24.004  0.1716E-02  0.2571E-02  0.5248E-01  0.5190E-01
     24.109  0.1745E-02  0.2455E-02  0.5267E-01  0.5215E-01
     24.213  0.8122E-03  0.1284E-02  0.5275E-01  0.5229E-01
     24.318  0.6893E-04  0.1134E-03  0.5276E-01  0.5230E-01
     24.423  0.5744E-03 -0.1486E-03  0.5282E-01  0.5228E-01
     24.528  0.1837E-02  0.5197E-03  0.5301E-01  0.5234E-01
     24.632  0.2119E-02  0.1575E-02  0.5323E-01  0.5250E-01
     24.737  0.1021E-02  0.1693E-02  0.5334E-01  0.5268E-01
     24.842  0.7706E-04  0.1155E-02  0.5335E-01  0.5280E-01
     24.947 -0.1044E-03  0.1526E-02  0.5334E-01  0.5296E-01
     25.051 -0.3904E-04  0.2058E-02  0.5333E-01  0.5318E-01
     25.156 -0.5963E-05  0.1358E-02  0.5333E-01  0.5332E-01
     25.261 -0.4654E-06  0.2929E-03  0.5333E-01  0.5335E-01
     25.366 -0.1977E-07 -0.8981E-04  0.5333E-01  0.5334E-01
     25.470 -0.4692E-09 -0.5938E-04  0.5333E-01  0.5333E-01
     25.575 -0.6305E-11 -0.1227E-04  0.5333E-01  0.5333E-01
     25.680 -0.4832E-13 -0.1242E-05  0.5333E-01  0.5333E-01
     25.785 -0.2122E-15 -0.6763E-07  0.5333E-01  0.5333E-01
     25.889 -0.3312E-18 -0.2049E-08  0.5333E-01  0.5333E-01
     25.994  0.0000E+00 -0.3508E-10  0.5333E-01  0.5333E-01
     26.099  0.0000E+00 -0.3423E-12  0.5333E-01  0.5333E-01
     26.203  0.0000E+00 -0.1913E-14  0.5333E-01  0.5333E-01
     26.308  0.0000E+00 -0.6293E-17  0.5333E-01  0.5333E-01
     26.413  0.0000E+00  0.0000E+00  0.5333E-01  0.5333E-01
     26.518  0.0000E+00  0.0000E+00  0.5333E-01  0.5333E-01
     26.622  0.0000E+00  0.0000E+00  0.5333E-01  0.5333E-01
     26.727  0.0000E+00  0.0000E+00  0.5333E-01  0.5333E-01
     26.832  0.0000E+00  0.0000E+00  0.5333E-01  0.5333E-01
     26.937  0.0000E+00  0.0000E+00  0.5333E-01  0.5333E-01
     27.041  0.0000E+00  0.0000E+00  0.5333E-01  0.5333E-01
     27.04143403     -4.38140931  301      5.81889707      1.00000000
     -4.381  0.0000E+00  0.0000E+00  0.0000E+00  0.0000E+00  0.0000E+00  0.0000E+00  0.0000E+00  0.0000E+00  0.0000E+00  0.0000E+00  0.0000E+00  0.0000E+00  0.0000E+00  0.0000E+00  0.0000E+00  0.0000E+00  0.0000E+00  0.0000E+00
     -4.277  0.0000E+00  0.0000E+00  0.0000E+00  0.0000E+00  0.0000E+00  0.0000E+00  0.0000E+00  0.0000E+00  0.0000E+00  0.0000E+00  0.0000E+00  0.0000E+00  0.0000E+00  0.0000E+00  0.0000E+00  0.0000E+00  0.0000E+00  0.0000E+00
     -4.172  0.0000E+00  0.0000E+00  0.0000E+00  0.0000E+00  0.0000E+00  0.0000E+00  0.0000E+00  0.0000E+00  0.0000E+00  0.0000E+00  0.0000E+00  0.0000E+00  0.0000E+00  0.0000E+00  0.0000E+00  0.0000E+00  0.0000E+00  0.0000E+00
     -4.067 -0.1768E-31  0.0000E+00 -0.1408E-33  0.0000E+00 -0.1408E-33  0.0000E+00 -0.1408E-33  0.0000E+00 -0.3662E-35  0.0000E+00 -0.3662E-35  0.0000E+00 -0.5749E-60  0.0000E+00 -0.3662E-35  0.0000E+00 -0.3483E-61  0.0000E+00
     -3.962 -0.8605E-28  0.0000E+00 -0.6852E-30  0.0000E+00 -0.6852E-30  0.0000E+00 -0.6852E-30  0.0000E+00 -0.1782E-31  0.0000E+00 -0.1782E-31  0.0000E+00 -0.2798E-56  0.0000E+00 -0.1782E-31  0.0000E+00 -0.1695E-57  0.0000E+00
     -3.858 -0.2409E-24 -0.6843E-31 -0.1918E-26 -0.5482E-33 -0.1918E-26 -0.5482E-33 -0.1918E-26 -0.5482E-33 -0.4988E-28 -0.1019E-34 -0.4988E-28 -0.1019E-34 -0.7831E-53 -0.3982E-60 -0.4988E-28 -0.1019E-34 -0.4744E-54 -0.1766E-61
     -3.753 -0.3876E-21 -0.3056E-27 -0.3086E-23 -0.2448E-29 -0.3086E-23 -0.2448E-29 -0.3086E-23 -0.2448E-29 -0.8026E-25 -0.4549E-31 -0.8026E-25 -0.4549E-31 -0.1260E-49 -0.1778E-56 -0.8026E-25 -0.4549E-31 -0.7633E-51 -0.7886E-58
     -3.648 -0.3581E-18 -0.7850E-24 -0.2852E-20 -0.6289E-26 -0.2852E-20 -0.6289E-26 -0.2852E-20 -0.6289E-26 -0.7417E-22 -0.1169E-27 -0.7417E-22 -0.1169E-27 -0.1164E-46 -0.4568E-53 -0.7417E-22 -0.1169E-27 -0.7053E-48 -0.2026E-54
     -3.543 -0.1839E-15 -0.1159E-20 -0.1465E-17 -0.9286E-23 -0.1465E-17 -0.9286E-23 -0.1465E-17 -0.9286E-23 -0.3809E-19 -0.1725E-24 -0.3809E-19 -0.1725E-24 -0.5980E-44 -0.6744E-50 -0.3809E-19 -0.1725E-24 -0.3622E-45 -0.2991E-51
     -3.439 -0.5561E-13 -0.9826E-18 -0.4428E-15 -0.7873E-20 -0.4428E-15 -0.7873E-20 -0.4428E-15 -0.7873E-20 -0.1152E-16 -0.1463E-21 -0.1152E-16 -0.1463E-21 -0.8118E-34 -0.5718E-47 -0.1152E-16 -0.1463E-21 -0.2435E-33 -0.2536E-48
     -3.334 -0.9568E-11 -0.4630E-15 -0.7619E-13 -0.3710E-17 -0.7619E-13 -0.3710E-17 -0.7619E-13 -0.3710E-17 -0.1982E-14 -0.6892E-19 -0.1982E-14 -0.6892E-19 -0.3837E-30 -0.2694E-44 -0.1982E-14 -0.6892E-19 -0.1151E-29 -0.1195E-45
     -3.229 -0.9349E-09 -0.1282E-12 -0.7444E-11 -0.1027E-14 -0.7444E-11 -0.1027E-14 -0.7444E-11 -0.1027E-14 -0.1936E-12 -0.1908E-16 -0.1936E-12 -0.1908E-16 -0.1043E-26 -0.1140E-33 -0.1936E-12 -0.1908E-16 -0.3129E-26 -0.3419E-33
     -3.124 -0.5152E-07 -0.2021E-10 -0.4102E-09 -0.1619E-12 -0.4102E-09 -0.1619E-12 -0.4102E-09 -0.1619E-12 -0.1067E-10 -0.3008E-14 -0.1067E-10 -0.3008E-14 -0.1630E-23 -0.5138E-30 -0.1067E-10 -0.3008E-14 -0.4891E-23 -0.1541E-29
     -3.020 -0.1583E-05 -0.1808E-08 -0.1260E-07 -0.1448E-10 -0.1260E-07 -0.1448E-10 -0.1260E-07 -0.1448E-10 -0.3278E-09 -0.2691E-12 -0.3278E-09 -0.2691E-12 -0.1463E-20 -0.1332E-26 -0.3278E-09 -0.2691E-12 -0.4389E-20 -0.3997E-26
     -2.915 -0.2653E-04 -0.9106E-07 -0.2113E-06 -0.7295E-09 -0.2113E-06 -0.7295E-09 -0.2113E-06 -0.7295E-09 -0.5495E-08 -0.1355E-10 -0.5495E-08 -0.1355E-10 -0.7274E-18 -0.1986E-23 -0.5495E-08 -0.1355E-10 -0.2182E-17 -0.5957E-23
     -2.810 -0.2316E-03 -0.2551E-05 -0.1844E-05 -0.2044E-07 -0.1844E-05 -0.2044E-07 -0.1844E-05 -0.2044E-07 -0.4796E-07 -0.3797E-09 -0.4796E-07 -0.3797E-09 -0.2141E-15 -0.1699E-20 -0.4796E-07 -0.3797E-09 -0.6424E-15 -0.5098E-20
     -2.706 -0.9175E-03 -0.3881E-04 -0.7306E-05 -0.3109E-06 -0.7306E-05 -0.3109E-06 -0.7306E-05 -0.3109E-06 -0.1900E-06 -0.5777E-08 -0.1900E-06 -0.5777E-08 -0.3577E-13 -0.8113E-18 -0.1900E-06 -0.5777E-08 -0.1073E-12 -0.2434E-17
     -2.601 -0.5516E-03 -0.3037E-03 -0.4392E-05 -0.2433E-05 -0.4392E-05 -0.2433E-05 -0.4392E-05 -0.2433E-05 -0.1142E-06 -0.4520E-07 -0.1142E-06 -0.4520E-07 -0.3391E-11 -0.2260E-15 -0.1142E-06 -0.4520E-07 -0.1017E-10 -0.6779E-15
     -2.496  0.6647E-02 -0.1031E-02  0.5293E-04 -0.8262E-05  0.5293E-04 -0.8262E-05  0.5292E-04 -0.8262E-05  0.1376E-05 -0.1535E-06  0.1377E-05 -0.1535E-06 -0.1813E-09 -0.3597E-13  0.1376E-05 -0.1535E-06 -0.5438E-09 -0.1079E-12
     -2.391  0.1947E-01 -0.4262E-04  0.1550E-03 -0.3415E-06  0.1550E-03 -0.3415E-06  0.1547E-03 -0.3418E-06  0.4021E-05 -0.6351E-08  0.4032E-05 -0.6344E-08 -0.5398E-08 -0.3248E-11  0.4021E-05 -0.6351E-08 -0.1619E-07 -0.9745E-11
     -2.287  0.2107E-01  0.8569E-02  0.1678E-03  0.6865E-04  0.1678E-03  0.6865E-04  0.1622E-03  0.6863E-04  0.4186E-05  0.1275E-05  0.4367E-05  0.1276E-05 -0.8757E-07 -0.1653E-09  0.4186E-05  0.1275E-05 -0.2627E-06 -0.4958E-09
     -2.182  0.8297E-02  0.2088E-01  0.6610E-04  0.1673E-03  0.6610E-04  0.1673E-03  0.1915E-04  0.1668E-03  0.2223E-06  0.3098E-05  0.1746E-05  0.3108E-05 -0.7367E-06 -0.4677E-08  0.2223E-06  0.3098E-05 -0.2210E-05 -0.1403E-07
     -2.077 -0.2594E-02  0.1969E-01 -0.2052E-04  0.1578E-03 -0.2052E-04  0.1578E-03 -0.1973E-03  0.1509E-03 -0.6171E-05  0.2783E-05 -0.4327E-06  0.2934E-05 -0.2775E-05 -0.7191E-07 -0.6171E-05  0.2783E-05 -0.8324E-05 -0.2157E-06
     -1.972 -0.2175E-02  0.6219E-02 -0.1726E-04  0.4980E-04 -0.1726E-04  0.4980E-04 -0.9105E-04 -0.5061E-05 -0.2802E-05 -0.2522E-06 -0.4068E-06  0.9433E-06 -0.1158E-05 -0.5696E-06 -0.2801E-05 -0.2522E-06 -0.3473E-05 -0.1709E-05
     -1.868  0.2010E-01 -0.3319E-02  0.1589E-03 -0.2668E-04  0.1590E-03 -0.2668E-04  0.1503E-02 -0.2163E-03  0.4695E-04 -0.4565E-05  0.3367E-05 -0.4330E-06  0.2108E-04 -0.1969E-05  0.4697E-04 -0.4565E-05  0.6325E-04 -0.5906E-05
     -1.763  0.5601E-01 -0.1246E-02  0.4418E-03 -0.9991E-05  0.4430E-03 -0.9990E-05  0.4131E-02 -0.3003E-04  0.1286E-03 -0.6160E-06  0.9386E-05 -0.1790E-06  0.5776E-04 -0.2081E-06  0.1291E-03 -0.6157E-06  0.1736E-03 -0.6242E-06
     -1.658  0.5793E-01  0.2319E-01  0.4437E-03  0.1865E-03  0.4582E-03  0.1865E-03  0.4270E-02  0.1739E-02  0.1280E-03  0.3678E-04  0.9351E-05  0.2951E-05  0.5859E-04  0.1612E-04  0.1335E-03  0.3679E-04  0.1801E-03  0.4836E-04
     -1.553  0.2199E-01  0.5817E-01  0.8627E-04  0.4669E-03  0.1735E-03  0.4679E-03  0.1623E-02  0.4324E-02  0.1776E-04  0.9122E-04  0.1341E-05  0.7400E-05  0.1539E-04  0.3999E-04  0.5121E-04  0.9146E-04  0.7233E-04  0.1201E-03
     -1.449 -0.3330E-02  0.5582E-01 -0.2193E-03  0.4362E-03 -0.2725E-04  0.4490E-03 -0.2406E-03  0.4148E-02 -0.8005E-04  0.8474E-04 -0.5748E-05  0.6880E-05 -0.1952E-04  0.3780E-04 -0.6440E-05  0.8777E-04 -0.1004E-05  0.1156E-03
     -1.344  0.2125E-02  0.1912E-01  0.3367E-03  0.7215E-04  0.1831E-04  0.1534E-03  0.1486E-03  0.1421E-02  0.1249E-03  0.1106E-04  0.8955E-05  0.9084E-06  0.2885E-04  0.9306E-05  0.2852E-05  0.3030E-04 -0.8861E-05  0.4201E-04
     -1.239  0.3396E-01 -0.4155E-02  0.2503E-02 -0.2320E-03  0.2790E-03 -0.3431E-04  0.2447E-02 -0.3075E-03  0.9161E-03 -0.5272E-04  0.6573E-04 -0.4252E-05  0.2212E-03 -0.1221E-04  0.6389E-04 -0.5898E-05 -0.2872E-05 -0.2352E-05
     -1.134  0.5873E-01  0.1037E-02  0.4249E-02  0.2533E-03  0.4804E-03  0.9435E-05  0.4218E-02  0.7551E-04  0.1554E-02  0.5862E-04  0.1110E-03  0.4725E-05  0.3749E-03  0.1225E-04  0.1096E-03  0.8490E-06 -0.4883E-05 -0.5541E-05
     -1.030  0.3970E-01  0.3166E-01  0.2917E-02  0.2386E-02  0.3104E-03  0.2641E-03  0.2740E-02  0.2338E-02  0.1062E-02  0.5456E-03  0.7171E-04  0.4398E-04  0.2493E-03  0.1222E-03  0.6334E-04  0.4294E-04 -0.3347E-04 -0.1542E-05
     -0.925  0.5160E-02  0.5861E-01  0.5372E-03  0.4340E-02 -0.1076E-04  0.4876E-03 -0.7082E-05  0.4323E-02  0.1818E-03  0.9920E-03 -0.2498E-05  0.7976E-04  0.2039E-04  0.2223E-03 -0.2823E-04  0.7932E-04 -0.1031E-03 -0.1466E-05
     -0.820 -0.2028E-02  0.4270E-01 -0.1990E-03  0.3187E-02 -0.1860E-04  0.3450E-03 -0.2732E-04  0.3083E-02 -0.6719E-04  0.7269E-03 -0.5765E-05  0.5654E-04 -0.7318E-05  0.1604E-03  0.2350E-05  0.5359E-04  0.3255E-04 -0.1185E-04
     -0.715  0.2836E-01  0.7567E-02  0.5615E-03  0.6943E-03  0.6749E-03  0.1639E-04  0.5439E-02  0.2529E-03  0.3331E-03  0.1516E-03  0.1531E-03  0.3488E-05  0.2941E-03  0.2251E-04  0.3836E-03 -0.8959E-05  0.9241E-03 -0.5006E-04
     -0.611  0.6701E-01 -0.4973E-02  0.1563E-02 -0.2541E-03  0.1625E-02 -0.8006E-04  0.1226E-01 -0.6243E-03  0.7901E-03 -0.6406E-04  0.3780E-03 -0.1238E-04  0.6457E-03 -0.2406E-04  0.8827E-03 -0.2281E-04  0.2031E-02 -0.4198E-04
     -0.506  0.5735E-01  0.1695E-01  0.1297E-02  0.3364E-03  0.1487E-02  0.4591E-03  0.1027E-01  0.3327E-02  0.3907E-03  0.1244E-03  0.3556E-03  0.6953E-04  0.4434E-03  0.1058E-03  0.7765E-03  0.1538E-03  0.1727E-02  0.3391E-03
     -0.401  0.1611E-01  0.5981E-01  0.2835E-03  0.1481E-02  0.4917E-03  0.1513E-02  0.2755E-02  0.1106E-01 -0.1882E-03  0.4861E-03  0.1241E-03  0.2296E-03  0.2012E-04  0.3586E-03  0.2370E-03  0.4997E-03  0.4982E-03  0.1087E-02
     -0.296  0.1925E-01  0.6853E-01  0.1322E-02  0.1672E-02  0.1468E-03  0.1739E-02  0.3968E-02  0.1261E-01  0.2553E-02  0.5054E-03  0.5395E-05  0.2642E-03  0.9341E-03  0.3952E-03  0.1524E-03  0.5721E-03  0.3303E-03  0.1246E-02
     -0.192  0.7352E-01  0.2781E-01  0.4817E-02  0.5098E-03  0.5963E-03  0.7640E-03  0.1512E-01  0.5010E-02  0.9217E-02 -0.1533E-04  0.3258E-04  0.1180E-03  0.3406E-02  0.9936E-04  0.5930E-03  0.2428E-03  0.1338E-02  0.5310E-03
     -0.087  0.9354E-01 -0.9502E-03  0.6008E-02 -0.1266E-03  0.7730E-03  0.1186E-04  0.1917E-01 -0.2412E-03  0.1141E-01 -0.1420E-03  0.5336E-04  0.3027E-05  0.4246E-02 -0.4286E-04  0.7189E-03 -0.1372E-05  0.1727E-02 -0.1678E-05
      0.018  0.4508E-01  0.2687E-01  0.2852E-02  0.2051E-02  0.2607E-03  0.1829E-03  0.9244E-02  0.5865E-02  0.5421E-02  0.2031E-02  0.1487E-04  0.1053E-04  0.2068E-02  0.6641E-03  0.1733E-03  0.1335E-03  0.8143E-03  0.2797E-03
      0.123  0.2429E-02  0.8601E-01  0.7319E-04  0.6109E-02  0.8247E-05  0.7457E-03  0.5443E-03  0.1847E-01 -0.1198E-03  0.5902E-02 -0.1576E-05  0.6382E-04 -0.5401E-04  0.1960E-02  0.1006E-04  0.4544E-03  0.5574E-04  0.9635E-03
      0.227  0.9765E-02  0.9275E-01  0.6776E-03  0.6535E-02  0.1191E-02  0.7905E-03  0.2028E-02  0.1989E-01  0.2246E-03  0.6302E-02  0.1170E-03  0.6853E-04 -0.4549E-03  0.2103E-02  0.1768E-02  0.4680E-03  0.3836E-03  0.1044E-02
      0.332  0.4224E-01  0.3713E-01  0.3612E-02  0.2598E-02  0.3123E-02  0.1950E-03  0.8085E-02  0.7954E-02  0.6593E-02  0.2529E-02  0.3195E-03  0.1363E-04  0.1180E-02  0.8706E-03  0.4438E-02  0.8861E-04  0.9597E-03  0.4098E-03
      0.437  0.5987E-01 -0.8107E-03  0.6413E-02 -0.6789E-04  0.3221E-02 -0.7102E-04  0.1040E-01 -0.1763E-03  0.1694E-01 -0.5526E-04  0.3613E-03 -0.7968E-05  0.5193E-02 -0.4499E-05  0.4268E-02 -0.5584E-04  0.6645E-03 -0.1351E-04
      0.542  0.5270E-01  0.9628E-02  0.6382E-02  0.7826E-03  0.1490E-02  0.1110E-02  0.9968E-02  0.2116E-02  0.1961E-01  0.5210E-03  0.2035E-03  0.1240E-03  0.7278E-02 -0.4958E-04  0.1782E-02  0.8811E-03  0.1710E-02  0.1816E-03
      0.646  0.4078E-01  0.3772E-01  0.3140E-02  0.2894E-02  0.1953E-03  0.3196E-02  0.1373E-01  0.8209E-02  0.6138E-02  0.2074E-02  0.2465E-04  0.3537E-03  0.3199E-02  0.6247E-04  0.7935E-03  0.2518E-02  0.6816E-02  0.6153E-03
      0.751  0.4368E-01  0.3946E-01  0.6326E-03  0.3019E-02 -0.1215E-04  0.3355E-02  0.2090E-01  0.8367E-02  0.2345E-02  0.2085E-02 -0.6206E-04  0.3706E-03  0.3518E-02 -0.2583E-05  0.1334E-02  0.2632E-02  0.1129E-01  0.5267E-03
      0.856  0.8128E-01  0.2211E-01  0.2725E-02  0.2605E-02  0.1205E-02  0.1443E-02  0.3052E-01  0.4028E-02  0.5869E-01  0.2982E-02  0.1622E-03  0.1746E-03  0.3400E-01  0.6153E-03  0.1993E-02  0.1066E-02  0.1206E-01 -0.3070E-04