    2    2  300    2
  0.1136129E+02  0.2832386E-09  0.2832386E-09  0.2832386E-09  0.5000000E-15
  1.000000000000000E-004
  CAR 
 unknown system                          
     16     20     16
 
  0.6250000E-01  0.6250000E-01  0.6250000E-01  0.1562500E-01
    1       -2.381409     -2.188177   1.000000   1.000000
    2        1.091682      2.918457   1.000000   1.000000
    3        1.091682      2.918457   1.000000   1.000000
    4        3.457641      5.387731   1.000000   1.004680
    5        3.457641      5.387731   1.000000   1.004680
    6        3.657586      5.613191   1.000000   1.027840
    7        4.725663      7.444882   1.000000  -0.000000
    8        4.725663      7.444882   1.000000  -0.000000
    9        5.563914      7.697166   1.035096  -0.000000
   10        5.860280      8.068668   0.328982  -0.000000
   11        5.860280      8.068668   0.328982  -0.000000
   12       15.306643     15.756863   0.000000   0.000000
   13       15.306643     15.756863   0.000000   0.000000
   14       15.691669     16.096920   0.000000   0.000000
   15       22.231932     23.114016   0.000000   0.000000
   16       22.231932     23.114016   0.000000   0.000000
 
  0.1875000E+00  0.6250000E-01  0.6250000E-01  0.4687500E-01
    1       -1.758470     -1.557939   1.000000   1.000000
    2        1.347973      3.101001   1.000000   1.000000
    3        1.350635      3.224137   1.000000   1.000000
    4        3.372543      5.275172   1.000000   1.000413
    5        3.435265      5.346690   1.000000   1.002106
    6        3.920864      5.898731   1.000000   0.190186
    7        4.483006      7.007344   1.000000  -0.000000
    8        4.844535      7.121307   1.000000  -0.000000
    9        4.999233      7.483962   1.000000  -0.000000
   10        5.396858      7.589458   1.005510  -0.000000
   11        5.826207      8.034939   0.469093  -0.000000
   12       12.444409     13.245382   0.000000   0.000000
   13       16.365955     16.952826   0.000000   0.000000
   14       16.644483     17.167674   0.000000   0.000000
   15       22.515793     23.336386   0.000000   0.000000
   16       23.980269     24.659761   0.000000   0.000000
 
  0.3125000E+00  0.6250000E-01  0.6250000E-01  0.4687500E-01
    1       -0.626459     -0.383961   1.000000   1.000000
    2        1.652563      3.138881   1.000000   1.000000
    3        1.831396      3.793654   1.000000   1.000000
    4        3.390607      5.269762   1.000000   1.000361
    5        3.402751      5.305330   1.000000   1.000851
    6        4.088128      6.295125   1.000000  -0.001937
    7        4.289950      6.301731   1.000000  -0.001685
    8        4.372847      6.552884   1.000000  -0.000001
    9        4.767383      6.750501   1.000000  -0.000000
   10        5.069435      7.729221   1.000001  -0.000000
   11        5.555878      7.818090   1.034349  -0.000000
   12        9.364922     10.626253  -0.000000  -0.000000
   13       18.126175     18.842860   0.000000   0.000000
   14       18.416448     19.044370   0.000000   0.000000
   15       23.160675     23.865310   0.000000   0.000000
   16       24.537826     24.978193   0.000000   0.000000
 
  0.4375000E+00  0.6250000E-01  0.6250000E-01  0.4687500E-01
    1        0.690576      1.116634   1.000000   1.000000
    2        1.563332      2.486700   1.000000   1.000000
    3        2.455855      4.525981   1.000000   1.000000
    4        3.079888      5.150820   1.000000   1.000012
    5        3.590974      5.437135   1.000000   1.010613
    6        3.899787      5.782506   1.000000   0.651194
    7        3.934880      6.051736   1.000000  -0.034845
    8        4.229494      6.187876   1.000000  -0.012766
    9        4.721531      6.790256   1.000000  -0.000000
   10        5.155569      7.287441   1.000014  -0.000000
   11        5.574858      8.135345   1.035455  -0.000000
   12        6.931371      8.884748  -0.000000  -0.000000
   13       20.199436     20.958586   0.000000   0.000000
   14       20.644750     21.310393   0.000000   0.000000
   15       22.327258     22.981720   0.000000   0.000000
   16       23.172651     23.800006   0.000000   0.000000
 
  0.1875000E+00  0.1875000E+00  0.6250000E-01  0.4687500E-01
    1       -1.177829     -0.960885   1.000000   1.000000
    2        1.514658      3.335039   1.000000   1.000000
    3        1.656890      3.427124   1.000000   1.000000
    4        3.140690      5.007727   1.000000   1.000000
    5        3.332858      5.207046   1.000000   1.000067
    6        4.336905      6.247471   1.000000  -0.004905
    7        4.347076      6.350093   1.000000  -0.000561
    8        4.572686      7.136779   1.000000  -0.000000
    9        4.780537      7.197622   1.000000  -0.000000
   10        5.090850      7.510242   1.000002  -0.000000
   11        5.930774      8.153390   0.099044  -0.000000
   12       12.572945     13.446046   0.000000   0.000000
   13       14.177216     15.071312   0.000000   0.000000
   14       17.402983     17.998955   0.000000   0.000000
   15       23.407203     24.098176   0.000000   0.000000
   16       24.578637     25.041434   0.000000   0.000000
 
  0.3125000E+00  0.1875000E+00  0.6250000E-01  0.9375000E-01
    1       -0.166046      0.130714   1.000000   1.000000
    2        1.705709      3.303715   1.000000   1.000000
    3        2.131659      3.913947   1.000000   1.000000
    4        3.010287      4.842935   1.000000   1.000000
    5        3.268725      5.072263   1.000000   1.000001
    6        3.753256      5.607616   1.000000   1.030034
    7        4.426078      6.671494   1.000000  -0.000000
    8        4.616763      6.871704   1.000000  -0.000000
    9        4.818488      6.940766   1.000000  -0.000000
   10        4.979591      7.708059   1.000000  -0.000000
   11        5.851902      8.067412   0.362430  -0.000000
   12        9.908055     11.139463  -0.000000  -0.000000
   13       15.183601     16.138300   0.000000   0.000000
   14       18.950500     19.604677   0.000000   0.000000
   15       21.760082     22.414110   0.000000   0.000000
   16       24.053353     24.628923   0.000000   0.000000
 
  0.4375000E+00  0.1875000E+00  0.6250000E-01  0.9375000E-01
    1        0.902490      1.473391   1.000000   1.000000
    2        1.574444      2.661410   1.000000   1.000000
    3        2.615944      4.452547   1.000000   1.000000
    4        2.952968      4.796784   1.000000   1.000000
    5        3.225895      4.988648   1.000000   1.000000
    6        3.381958      5.196701   1.000000   1.000050
    7        4.358650      6.544315   1.000000  -0.000002
    8        4.386616      6.638007   1.000000  -0.000000
    9        5.165278      7.392795   1.000019  -0.000000
   10        5.557113      7.769039   1.034487  -0.000000
   11        5.699641      8.101293   0.918339  -0.000000
   12        7.339229      9.138622  -0.000000  -0.000000
   13       17.028456     17.941326   0.000000   0.000000
   14       19.227692     20.034052   0.000000   0.000000
   15       20.929951     21.587403   0.000000   0.000000
   16       23.154504     23.713352   0.000000   0.000000
 
  0.3125000E+00  0.3125000E+00  0.6250000E-01  0.4687500E-01
    1        0.487575      0.998925   1.000000   1.000000
    2        1.559303      3.098473   1.000000   1.000000
    3        2.728793      4.439498   1.000000   1.000000
    4        2.773014      4.516033   1.000000   1.000000
    5        3.199501      5.000652   1.000000   1.000000
    6        3.524236      5.016138   1.000000   1.000000
    7        4.476855      6.688381   1.000000  -0.000000
    8        4.676099      7.208433   1.000000  -0.000000
    9        4.863753      7.507965   1.000000  -0.000000
   10        5.418743      7.621702   1.007975  -0.000000
   11        6.009259      8.254469  -0.019377  -0.000000
   12        9.711890     10.882015  -0.000000  -0.000000
   13       13.425942     14.659714   0.000000   0.000000
   14       18.795234     19.623968   0.000000   0.000000
   15       20.172388     20.807663   0.000000   0.000000
   16       24.555239     25.010174   0.000000   0.000000
 
  0.4375000E+00  0.3125000E+00  0.6250000E-01  0.9375000E-01
    1        0.973374      1.902646   1.000000   1.000000
    2        1.298373      2.601566   1.000000   1.000000
    3        2.652100      4.415758   1.000000   1.000000
    4        2.809531      4.573601   1.000000   1.000000
    5        3.438509      5.018626   1.000000   1.000000
    6        3.825775      5.167786   1.000000   1.000021
    7        4.576751      6.942419   1.000000  -0.000000
    8        4.715491      7.141698   1.000000  -0.000000
    9        5.274413      7.791559   1.000405  -0.000000
   10        5.868301      8.123293   0.297860  -0.000000
   11        6.113171      8.172235  -0.028907  -0.000000
   12        7.740320      9.293146  -0.000000  -0.000000
   13       14.317491     15.490581   0.000000   0.000000
   14       16.269930     17.273747   0.000000   0.000000
   15       21.808267     22.368474   0.000000   0.000000
   16       23.651951     24.029543   0.000000   0.000000
 
  0.4375000E+00  0.4375000E+00  0.6250000E-01  0.4687500E-01
    1        0.950150      2.162319   1.000000   1.000000
    2        1.045029      2.369693   1.000000   1.000000
    3        2.455408      4.192493   1.000000   1.000000
    4        2.513211      4.251137   1.000000   1.000000
    5        4.337447      5.825876   1.000000   0.470487
    6        4.742716      5.907429   1.000000   0.163001
    7        4.763504      7.242566   1.000000  -0.000000
    8        4.934459      7.343039   1.000000  -0.000000
    9        5.217930      7.722796   1.000091  -0.000000
   10        5.851848      8.058938   0.362651  -0.000000
   11        6.652370      8.534381  -0.000000  -0.000000
   12        7.449330      8.930626  -0.000000  -0.000000
   13       13.191544     14.566567   0.000000   0.000000
   14       14.079626     15.321822   0.000000   0.000000
   15       22.947854     23.313072   0.000000   0.000000
   16       23.825310     24.004871   0.000000   0.000000
 
  0.1875000E+00  0.1875000E+00  0.1875000E+00  0.1562500E-01
    1       -0.617476     -0.384342   1.000000   1.000000
    2        1.818167      3.604676   1.000000   1.000000
    3        1.818167      3.604676   1.000000   1.000000
    4        3.035434      4.875828   1.000000   1.000000
    5        3.035434      4.875828   1.000000   1.000000
    6        3.648310      5.411533   1.000000   1.007085
    7        4.700544      6.864119   1.000000  -0.000000
    8        4.700544      7.378996   1.000000  -0.000000
    9        4.842415      7.378996   1.000000  -0.000000
   10        5.479679      7.633633   1.018718  -0.000000
   11        5.479679      7.633633   1.018718  -0.000000
   12       13.543872     14.497845   0.000000   0.000000
   13       13.543872     14.497845   0.000000   0.000000
   14       15.432059     16.229045   0.000000   0.000000
   15       24.475904     24.902552   0.000000   0.000000
   16       24.475904     24.902552   0.000000   0.000000
 
  0.3125000E+00  0.1875000E+00  0.1875000E+00  0.4687500E-01
    1        0.326519      0.652075   1.000000   1.000000
    2        2.095215      3.645479   1.000000   1.000000
    3        2.109256      3.899338   1.000000   1.000000
    4        2.868819      4.675158   1.000000   1.000000
    5        2.927406      4.686673   1.000000   1.000000
    6        3.173836      4.935461   1.000000   1.000000
    7        4.568466      7.092240   1.000000  -0.000000
    8        4.897561      7.143217   1.000000  -0.000000
    9        4.937202      7.469049   1.000000  -0.000000
   10        5.483965      7.665836   1.019664  -0.000000
   11        5.566487      7.790057   1.035254  -0.000000
   12       10.661337     11.903339  -0.000000   0.000000
   13       15.124162     16.103817   0.000000   0.000000
   14       16.268771     17.073249   0.000000   0.000000
   15       21.700530     22.313898   0.000000   0.000000
   16       22.664728     23.243253   0.000000   0.000000
 
  0.4375000E+00  0.1875000E+00  0.1875000E+00  0.4687500E-01
    1        1.240332      1.882307   1.000000   1.000000
    2        1.843719      2.956118   1.000000   1.000000
    3        2.404492      4.207030   1.000000   1.000000
    4        2.665828      4.457929   1.000000   1.000000
    5        3.128216      4.768151   1.000000   1.000000
    6        3.225658      4.932583   1.000000   1.000000
    7        4.476970      6.832439   1.000000  -0.000000
    8        4.573647      6.900201   1.000000  -0.000000
    9        5.113672      7.691048   1.000004  -0.000000
   10        5.384570      7.742966   1.004417  -0.000000
   11        6.410733      8.428577  -0.000117  -0.000000
   12        8.097873      9.771462  -0.000000  -0.000000
   13       17.050793     17.969033   0.000000   0.000000
   14       17.893695     18.648662   0.000000   0.000000
   15       19.237200     20.022771   0.000000   0.000000
   16       20.072975     20.757328   0.000000   0.000000
 
  0.3125000E+00  0.3125000E+00  0.1875000E+00  0.4687500E-01
    1        1.014731      1.522128   1.000000   1.000000
    2        1.941870      3.490637   1.000000   1.000000
    3        2.634088      4.351369   1.000000   1.000000
    4        2.733753      4.377422   1.000000   1.000000
    5        2.756403      4.479000   1.000000   1.000000
    6        2.948812      4.553162   1.000000   1.000000
    7        4.733195      7.123209   1.000000  -0.000000
    8        4.829853      7.344143   1.000000  -0.000000
    9        4.864700      7.607528   1.000000  -0.000000
   10        5.508684      7.798899   1.025329  -0.000000
   11        6.258831      8.227322  -0.003981  -0.000000
   12       10.866805     12.047683  -0.000000   0.000000
   13       13.500110     14.670106   0.000000   0.000000
   14       16.894281     17.687033   0.000000   0.000000
   15       19.143906     19.911145   0.000000   0.000000
   16       22.430904     22.910880   0.000000   0.000000
 
  0.4375000E+00  0.3125000E+00  0.1875000E+00  0.9375000E-01
    1        1.422122      2.381116   1.000000   1.000000
    2        1.672471      3.004534   1.000000   1.000000
    3        2.538255      4.246128   1.000000   1.000000
    4        2.573868      4.264808   1.000000   1.000000
    5        3.287230      4.684002   1.000000   1.000000
    6        3.333679      4.770860   1.000000   1.000000
    7        4.726225      7.161767   1.000000  -0.000000
    8        4.729204      7.266835   1.000000  -0.000000
    9        5.034404      7.734257   1.000000  -0.000000
   10        5.346409      7.796045   1.002094  -0.000000
   11        7.277502      9.082727  -0.000000  -0.000000
   12        8.945887     10.412838  -0.000000  -0.000000
   13       14.562766     15.652130   0.000000   0.000000
   14       16.600498     17.528437   0.000000   0.000000
   15       18.431770     19.145691   0.000000   0.000000
   16       20.489478     21.103603   0.000000   0.000000
 
  0.4375000E+00  0.4375000E+00  0.1875000E+00  0.4687500E-01
    1        1.378750      2.627156   1.000000   1.000000
    2        1.440103      2.795549   1.000000   1.000000
    3        2.402202      4.085268   1.000000   1.000000
    4        2.439355      4.118074   1.000000   1.000000
    5        3.924969      5.136520   1.000000   1.000008
    6        4.045896      5.206625   1.000000   1.000066
    7        4.828109      7.384268   1.000000  -0.000000
    8        4.850492      7.443589   1.000000  -0.000000
    9        4.944960      7.734582   1.000000  -0.000000
   10        5.183856      7.787614   1.000034  -0.000000
   11        8.235794      9.759180  -0.000000  -0.000000
   12        9.117904     10.408227  -0.000000  -0.000000
   13       13.300084     14.593685   0.000000   0.000000
   14       14.311953     15.459822   0.000000   0.000000
   15       19.820681     20.423785   0.000000   0.000000
   16       21.295246     21.765277   0.000000   0.000000
 
  0.3125000E+00  0.3125000E+00  0.3125000E+00  0.1562500E-01
    1        1.819121      2.375006   1.000000   1.000000
    2        2.225884      3.790027   1.000000   1.000000
    3        2.518183      4.191650   1.000000   1.000000
    4        2.518183      4.191650   1.000000   1.000000
    5        2.638134      4.202225   1.000000   1.000000
    6        2.638134      4.202225   1.000000   1.000000
    7        4.854800      7.502361   1.000000  -0.000000
    8        4.854800      7.502361   1.000000  -0.000000
    9        5.077593      7.563102   1.000001  -0.000000
   10        5.077593      7.563102   1.000001  -0.000000
   11        7.287386      9.131313  -0.000000  -0.000000
   12       12.601107     13.710203   0.000000   0.000000
   13       12.601107     13.710203   0.000000   0.000000
   14       15.258316     16.191748   0.000000   0.000000
   15       19.613467     20.287631   0.000000   0.000000
   16       19.613467     20.287631   0.000000   0.000000
 
  0.4375000E+00  0.3125000E+00  0.3125000E+00  0.4687500E-01
    1        1.981303      3.074996   1.000000   1.000000
    2        2.003872      3.432294   1.000000   1.000000
    3        2.467544      4.070556   1.000000   1.000000
    4        2.521016      4.079279   1.000000   1.000000
    5        2.899577      4.264558   1.000000   1.000000
    6        3.055810      4.462481   1.000000   1.000000
    7        4.842289      7.436613   1.000000  -0.000000
    8        4.881812      7.490289   1.000000  -0.000000
    9        4.976996      7.701709   1.000000  -0.000000
   10        5.093247      7.722935   1.000002  -0.000000
   11        8.551104     10.168295  -0.000000  -0.000000
   12       10.362027     11.680196  -0.000000   0.000000
   13       14.672334     15.661504   0.000000   0.000000
   14       16.083687     16.937039   0.000000   0.000000
   15       17.015578     17.857189   0.000000   0.000000
   16       17.888404     18.639240   0.000000   0.000000
 
  0.4375000E+00  0.4375000E+00  0.3125000E+00  0.4687500E-01
    1        1.987209      3.365170   1.000000   1.000000
    2        2.043253      3.413605   1.000000   1.000000
    3        2.366019      3.959155   1.000000   1.000000
    4        2.448372      3.999785   1.000000   1.000000
    5        3.200306      4.427978   1.000000   1.000000
    6        3.256076      4.555646   1.000000   1.000000
    7        4.921283      7.588434   1.000000  -0.000000
    8        4.928375      7.614327   1.000000  -0.000000
    9        4.958662      7.740673   1.000000  -0.000000
   10        5.007847      7.748367   1.000000  -0.000000
   11        9.929903     11.287069  -0.000000   0.000000
   12       11.123117     12.262244  -0.000000   0.000000
   13       13.570540     14.707457   0.000000   0.000000
   14       14.922472     15.908374   0.000000   0.000000
   15       16.937427     17.710558   0.000000   0.000000
   16       18.511481     19.197931   0.000000   0.000000
 
  0.4375000E+00  0.4375000E+00  0.4375000E+00  0.1562500E-01
    1        2.250521      3.738702   1.000000   1.000000
    2        2.447505      3.936939   1.000000   1.000000
    3        2.447505      3.936939   1.000000   1.000000
    4        2.732473      4.022120   1.000000   1.000000
    5        2.732473      4.119888   1.000000   1.000000
    6        2.785668      4.119888   1.000000   1.000000
    7        4.968264      7.745823   1.000000  -0.000000
    8        4.968264      7.745823   1.000000  -0.000000
    9        4.975832      7.753047   1.000000  -0.000000
   10        4.975832      7.753047   1.000000  -0.000000
   11       11.685465     12.856522   0.000000   0.000000
   12       13.377527     14.379677   0.000000   0.000000
   13       13.377527     14.379677   0.000000   0.000000
   14       15.408471     16.306528   0.000000   0.000000
   15       15.849910     16.706757   0.000000   0.000000
   16       15.849910     16.706757   0.000000   0.000000
