PROCAR lm decomposed
# of k-points:   20         # of bands:   16         # of ions:    2

 k-point     1 :    0.06250000 0.06250000 0.06250000     weight = 0.01562500

band     1 # energy   -2.38140931 # occ.  1.00000000
 
ion      s     py     pz     px    dxy    dyz    dz2    dxz  x2-y2    tot
    1  0.357  0.003  0.003  0.003  0.000  0.000  0.000  0.000  0.000  0.366
    2  0.357  0.003  0.003  0.003  0.000  0.000  0.000  0.000  0.000  0.366
tot    0.714  0.006  0.006  0.006  0.000  0.000  0.000  0.000  0.000  0.731
 
band     2 # energy    1.09168196 # occ.  1.00000000
 
ion      s     py     pz     px    dxy    dyz    dz2    dxz  x2-y2    tot
    1  0.000  0.001  0.002  0.001  0.000  0.000  0.435  0.000  0.000  0.438
    2  0.000  0.001  0.002  0.001  0.000  0.000  0.435  0.000  0.000  0.438
tot    0.000  0.001  0.004  0.001  0.000  0.000  0.870  0.000  0.000  0.876
 
band     3 # energy    1.09168196 # occ.  1.00000000
 
ion      s     py     pz     px    dxy    dyz    dz2    dxz  x2-y2    tot
    1  0.000  0.002  0.000  0.002  0.000  0.000  0.000  0.000  0.435  0.438
    2  0.000  0.002  0.000  0.002  0.000  0.000  0.000  0.000  0.435  0.438
tot    0.000  0.003  0.000  0.003  0.000  0.000  0.000  0.000  0.870  0.876
 
band     4 # energy    3.45764094 # occ.  1.00000000
 
ion      s     py     pz     px    dxy    dyz    dz2    dxz  x2-y2    tot
    1  0.000  0.000  0.000  0.000  0.324  0.072  0.001  0.090  0.000  0.488
    2  0.000  0.000  0.000  0.000  0.324  0.072  0.001  0.090  0.000  0.488
tot    0.000  0.000  0.000  0.000  0.648  0.144  0.002  0.181  0.000  0.976
 
band     5 # energy    3.45764094 # occ.  1.00000000
 
ion      s     py     pz     px    dxy    dyz    dz2    dxz  x2-y2    tot
    1  0.000  0.000  0.000  0.000  0.000  0.252  0.000  0.234  0.001  0.488
    2  0.000  0.000  0.000  0.000  0.000  0.252  0.000  0.234  0.001  0.488
tot    0.000  0.000  0.000  0.000  0.001  0.505  0.000  0.468  0.002  0.976
 
band     6 # energy    3.65758553 # occ.  1.00000000
 
ion      s     py     pz     px    dxy    dyz    dz2    dxz  x2-y2    tot
    1  0.000  0.000  0.000  0.000  0.163  0.163  0.000  0.163  0.000  0.489
    2  0.000  0.000  0.000  0.000  0.163  0.163  0.000  0.163  0.000  0.489
tot    0.000  0.001  0.001  0.001  0.325  0.325  0.000  0.325  0.000  0.978
 
band     7 # energy    4.72566285 # occ.  1.00000000
 
ion      s     py     pz     px    dxy    dyz    dz2    dxz  x2-y2    tot
    1  0.000  0.000  0.000  0.000  0.001  0.000  0.484  0.000  0.000  0.485
    2  0.000  0.000  0.000  0.000  0.001  0.000  0.484  0.000  0.000  0.485
tot    0.000  0.000  0.000  0.000  0.002  0.000  0.967  0.000  0.000  0.970
 
band     8 # energy    4.72566285 # occ.  1.00000000
 
ion      s     py     pz     px    dxy    dyz    dz2    dxz  x2-y2    tot
    1  0.000  0.000  0.000  0.000  0.000  0.001  0.000  0.001  0.484  0.485
    2  0.000  0.000  0.000  0.000  0.000  0.001  0.000  0.001  0.484  0.485
tot    0.000  0.000  0.000  0.000  0.000  0.001  0.000  0.001  0.967  0.970
 
band     9 # energy    5.56391399 # occ.  1.03509581
 
ion      s     py     pz     px    dxy    dyz    dz2    dxz  x2-y2    tot
    1  0.001  0.002  0.002  0.002  0.161  0.161  0.000  0.161  0.000  0.489
    2  0.001  0.002  0.002  0.002  0.161  0.161  0.000  0.161  0.000  0.489
tot    0.001  0.004  0.004  0.004  0.321  0.321  0.000  0.321  0.000  0.978
 
band    10 # energy    5.86028018 # occ.  0.32898173
 
ion      s     py     pz     px    dxy    dyz    dz2    dxz  x2-y2    tot
    1  0.000  0.000  0.001  0.000  0.327  0.074  0.000  0.090  0.000  0.493
    2  0.000  0.000  0.001  0.000  0.327  0.074  0.000  0.090  0.000  0.493
tot    0.000  0.001  0.003  0.001  0.654  0.148  0.001  0.179  0.000  0.986
 
band    11 # energy    5.86028018 # occ.  0.32898173
 
ion      s     py     pz     px    dxy    dyz    dz2    dxz  x2-y2    tot
    1  0.000  0.001  0.000  0.001  0.000  0.253  0.000  0.238  0.000  0.493
    2  0.000  0.001  0.000  0.001  0.000  0.253  0.000  0.238  0.000  0.493
tot    0.000  0.002  0.000  0.002  0.000  0.506  0.000  0.475  0.001  0.986
 
band    12 # energy   15.30664327 # occ.  0.00000000
 
ion      s     py     pz     px    dxy    dyz    dz2    dxz  x2-y2    tot
    1  0.000  0.080  0.227  0.037  0.004  0.001  0.040  0.001  0.000  0.390
    2  0.000  0.080  0.227  0.037  0.004  0.001  0.040  0.001  0.000  0.390
tot    0.000  0.161  0.454  0.074  0.008  0.001  0.079  0.003  0.001  0.781
 
band    13 # energy   15.30664327 # occ.  0.00000000
 
ion      s     py     pz     px    dxy    dyz    dz2    dxz  x2-y2    tot
    1  0.000  0.149  0.003  0.192  0.000  0.003  0.000  0.003  0.040  0.390
    2  0.000  0.149  0.003  0.192  0.000  0.003  0.000  0.003  0.040  0.390
tot    0.000  0.298  0.006  0.385  0.000  0.007  0.001  0.005  0.079  0.781
 
band    14 # energy   15.69166899 # occ.  0.00000000
 
ion      s     py     pz     px    dxy    dyz    dz2    dxz  x2-y2    tot
    1  0.045  0.105  0.105  0.105  0.007  0.007  0.000  0.007  0.000  0.383
    2  0.045  0.105  0.105  0.105  0.007  0.007  0.000  0.007  0.000  0.383
tot    0.091  0.210  0.210  0.210  0.015  0.015  0.000  0.015  0.000  0.765
 
band    15 # energy   22.23193160 # occ.  0.00000000
 
ion      s     py     pz     px    dxy    dyz    dz2    dxz  x2-y2    tot
    1  0.000  0.004  0.016  0.004  0.000  0.000  0.428  0.000  0.000  0.453
    2  0.000  0.004  0.016  0.004  0.000  0.000  0.428  0.000  0.000  0.453
tot    0.000  0.007  0.032  0.009  0.001  0.000  0.856  0.000  0.001  0.905
 
band    16 # energy   22.23193160 # occ.  0.00000000
 
ion      s     py     pz     px    dxy    dyz    dz2    dxz  x2-y2    tot
    1  0.000  0.012  0.000  0.012  0.000  0.000  0.000  0.000  0.428  0.453
    2  0.000  0.012  0.000  0.012  0.000  0.000  0.000  0.000  0.428  0.453
tot    0.000  0.025  0.000  0.023  0.000  0.000  0.001  0.000  0.856  0.905
 

 k-point     2 :    0.18750000 0.06250000 0.06250000     weight = 0.04687500

band     1 # energy   -1.75846966 # occ.  1.00000000
 
ion      s     py     pz     px    dxy    dyz    dz2    dxz  x2-y2    tot
    1  0.334  0.003  0.003  0.025  0.001  0.000  0.000  0.001  0.001  0.366
    2  0.334  0.003  0.003  0.025  0.001  0.000  0.000  0.001  0.001  0.366
tot    0.667  0.005  0.005  0.049  0.002  0.000  0.001  0.002  0.002  0.733
 
band     2 # energy    1.34797306 # occ.  1.00000000
 
ion      s     py     pz     px    dxy    dyz    dz2    dxz  x2-y2    tot
    1  0.002  0.000  0.000  0.019  0.000  0.000  0.104  0.000  0.311  0.437
    2  0.002  0.000  0.000  0.019  0.000  0.000  0.104  0.000  0.311  0.437
tot    0.004  0.001  0.001  0.038  0.001  0.000  0.207  0.001  0.621  0.873
 
band     3 # energy    1.35063509 # occ.  1.00000000
 
ion      s     py     pz     px    dxy    dyz    dz2    dxz  x2-y2    tot
    1  0.000  0.002  0.002  0.000  0.001  0.000  0.326  0.001  0.109  0.440
    2  0.000  0.002  0.002  0.000  0.001  0.000  0.326  0.001  0.109  0.440
tot    0.000  0.003  0.003  0.000  0.002  0.000  0.652  0.002  0.217  0.879
 
band     4 # energy    3.37254324 # occ.  1.00000000
 
ion      s     py     pz     px    dxy    dyz    dz2    dxz  x2-y2    tot
    1  0.000  0.000  0.000  0.001  0.142  0.199  0.000  0.142  0.001  0.486
    2  0.000  0.000  0.000  0.001  0.142  0.199  0.000  0.142  0.001  0.486
tot    0.000  0.001  0.001  0.001  0.283  0.399  0.001  0.283  0.003  0.972
 
band     5 # energy    3.43526527 # occ.  1.00000000
 
ion      s     py     pz     px    dxy    dyz    dz2    dxz  x2-y2    tot
    1  0.000  0.001  0.001  0.000  0.234  0.000  0.011  0.234  0.004  0.485
    2  0.000  0.001  0.001  0.000  0.234  0.000  0.011  0.234  0.004  0.485
tot    0.000  0.003  0.003  0.000  0.468  0.000  0.021  0.468  0.007  0.970
 
band     6 # energy    3.92086423 # occ.  1.00000000
 
ion      s     py     pz     px    dxy    dyz    dz2    dxz  x2-y2    tot
    1  0.000  0.001  0.001  0.000  0.099  0.288  0.000  0.099  0.000  0.488
    2  0.000  0.001  0.001  0.000  0.099  0.288  0.000  0.099  0.000  0.488
tot    0.001  0.002  0.002  0.001  0.197  0.575  0.000  0.197  0.000  0.976
 
band     7 # energy    4.48300581 # occ.  1.00000000
 
ion      s     py     pz     px    dxy    dyz    dz2    dxz  x2-y2    tot
    1  0.000  0.000  0.000  0.000  0.008  0.000  0.349  0.008  0.116  0.480
    2  0.000  0.000  0.000  0.000  0.008  0.000  0.349  0.008  0.116  0.480
tot    0.000  0.000  0.000  0.000  0.015  0.000  0.698  0.015  0.233  0.961
 
band     8 # energy    4.84453489 # occ.  1.00000000
 
ion      s     py     pz     px    dxy    dyz    dz2    dxz  x2-y2    tot
    1  0.001  0.000  0.000  0.000  0.001  0.000  0.121  0.001  0.363  0.487
    2  0.001  0.000  0.000  0.000  0.001  0.000  0.121  0.001  0.363  0.487
tot    0.002  0.000  0.000  0.000  0.002  0.001  0.242  0.002  0.726  0.974
 
band     9 # energy    4.99923310 # occ.  1.00000006
 
ion      s     py     pz     px    dxy    dyz    dz2    dxz  x2-y2    tot
    1  0.002  0.006  0.006  0.001  0.169  0.129  0.000  0.169  0.001  0.483
    2  0.002  0.006  0.006  0.001  0.169  0.129  0.000  0.169  0.001  0.483
tot    0.005  0.011  0.011  0.003  0.338  0.258  0.000  0.338  0.001  0.966
 
band    10 # energy    5.39685823 # occ.  1.00551039
 
ion      s     py     pz     px    dxy    dyz    dz2    dxz  x2-y2    tot
    1  0.000  0.006  0.006  0.000  0.236  0.000  0.002  0.236  0.001  0.487
    2  0.000  0.006  0.006  0.000  0.236  0.000  0.002  0.236  0.001  0.487
tot    0.000  0.011  0.011  0.000  0.472  0.000  0.004  0.472  0.001  0.974
 
band    11 # energy    5.82620663 # occ.  0.46909308
 
ion      s     py     pz     px    dxy    dyz    dz2    dxz  x2-y2    tot
    1  0.000  0.000  0.000  0.001  0.065  0.359  0.000  0.065  0.001  0.493
    2  0.000  0.000  0.000  0.001  0.065  0.359  0.000  0.065  0.001  0.493
tot    0.001  0.000  0.000  0.002  0.131  0.719  0.001  0.131  0.002  0.985
 
band    12 # energy   12.44440867 # occ.  0.00000000
 
ion      s     py     pz     px    dxy    dyz    dz2    dxz  x2-y2    tot
    1  0.059  0.004  0.004  0.243  0.004  0.000  0.023  0.004  0.068  0.409
    2  0.059  0.004  0.004  0.243  0.004  0.000  0.023  0.004  0.068  0.409
tot    0.119  0.008  0.008  0.485  0.007  0.001  0.045  0.007  0.136  0.817
 
band    13 # energy   16.36595490 # occ.  0.00000000
 
ion      s     py     pz     px    dxy    dyz    dz2    dxz  x2-y2    tot
    1  0.000  0.158  0.158  0.000  0.022  0.000  0.036  0.022  0.012  0.406
    2  0.000  0.158  0.158  0.000  0.022  0.000  0.036  0.022  0.012  0.406
tot    0.000  0.315  0.315  0.000  0.043  0.000  0.072  0.043  0.024  0.813
 
band    14 # energy   16.64448298 # occ.  0.00000000
 
ion      s     py     pz     px    dxy    dyz    dz2    dxz  x2-y2    tot
    1  0.044  0.147  0.147  0.000  0.023  0.008  0.001  0.023  0.004  0.397
    2  0.044  0.147  0.147  0.000  0.023  0.008  0.001  0.023  0.004  0.397
tot    0.089  0.293  0.293  0.000  0.045  0.016  0.003  0.045  0.009  0.794
 
band    15 # energy   22.51579270 # occ.  0.00000000
 
ion      s     py     pz     px    dxy    dyz    dz2    dxz  x2-y2    tot
    1  0.000  0.015  0.015  0.000  0.002  0.000  0.304  0.002  0.101  0.439
    2  0.000  0.015  0.015  0.000  0.002  0.000  0.304  0.002  0.101  0.439
tot    0.000  0.030  0.030  0.000  0.005  0.000  0.608  0.005  0.203  0.879
 
band    16 # energy   23.98026918 # occ.  0.00000000
 
ion      s     py     pz     px    dxy    dyz    dz2    dxz  x2-y2    tot
    1  0.061  0.013  0.013  0.003  0.000  0.000  0.076  0.000  0.229  0.396
    2  0.061  0.013  0.013  0.003  0.000  0.000  0.076  0.000  0.229  0.396
tot    0.123  0.026  0.026  0.007  0.000  0.001  0.153  0.000  0.458  0.792
 

 k-point     3 :    0.31250000 0.06250000 0.06250000     weight = 0.04687500

band     1 # energy   -0.62645930 # occ.  1.00000000
 
ion      s     py     pz     px    dxy    dyz    dz2    dxz  x2-y2    tot
    1  0.283  0.002  0.002  0.062  0.003  0.000  0.004  0.003  0.011  0.370
    2  0.283  0.002  0.002  0.062  0.003  0.000  0.004  0.003  0.011  0.370
tot    0.566  0.004  0.004  0.123  0.006  0.000  0.008  0.006  0.023  0.739
 
band     2 # energy    1.65256339 # occ.  1.00000000
 
ion      s     py     pz     px    dxy    dyz    dz2    dxz  x2-y2    tot
    1  0.018  0.000  0.000  0.050  0.003  0.000  0.089  0.003  0.267  0.429
    2  0.018  0.000  0.000  0.050  0.003  0.000  0.089  0.003  0.267  0.429
tot    0.037  0.001  0.001  0.099  0.005  0.000  0.178  0.005  0.533  0.859
 
band     3 # energy    1.83139595 # occ.  1.00000000
 
ion      s     py     pz     px    dxy    dyz    dz2    dxz  x2-y2    tot
    1  0.000  0.002  0.002  0.000  0.003  0.000  0.325  0.003  0.108  0.443
    2  0.000  0.002  0.002  0.000  0.003  0.000  0.325  0.003  0.108  0.443
tot    0.000  0.003  0.003  0.000  0.006  0.000  0.650  0.006  0.217  0.886
 
band     4 # energy    3.39060683 # occ.  1.00000000
 
ion      s     py     pz     px    dxy    dyz    dz2    dxz  x2-y2    tot
    1  0.000  0.003  0.003  0.000  0.187  0.000  0.072  0.187  0.024  0.477
    2  0.000  0.003  0.003  0.000  0.187  0.000  0.072  0.187  0.024  0.477
tot    0.000  0.007  0.007  0.000  0.375  0.000  0.143  0.375  0.048  0.953
 
band     5 # energy    3.40275115 # occ.  1.00000000
 
ion      s     py     pz     px    dxy    dyz    dz2    dxz  x2-y2    tot
    1  0.001  0.002  0.002  0.002  0.162  0.152  0.000  0.162  0.000  0.482
    2  0.001  0.002  0.002  0.002  0.162  0.152  0.000  0.162  0.000  0.482
tot    0.002  0.004  0.004  0.004  0.324  0.303  0.000  0.324  0.000  0.965
 
band     6 # energy    4.08812838 # occ.  1.00000000
 
ion      s     py     pz     px    dxy    dyz    dz2    dxz  x2-y2    tot
    1  0.000  0.000  0.000  0.000  0.050  0.000  0.281  0.050  0.094  0.476
    2  0.000  0.000  0.000  0.000  0.050  0.000  0.281  0.050  0.094  0.476
tot    0.000  0.001  0.001  0.000  0.101  0.000  0.561  0.101  0.187  0.952
 
band     7 # energy    4.28994962 # occ.  1.00000000
 
ion      s     py     pz     px    dxy    dyz    dz2    dxz  x2-y2    tot
    1  0.000  0.002  0.002  0.001  0.074  0.335  0.000  0.074  0.000  0.487
    2  0.000  0.002  0.002  0.001  0.074  0.335  0.000  0.074  0.000  0.487
tot    0.001  0.003  0.003  0.001  0.147  0.670  0.000  0.147  0.001  0.974
 
band     8 # energy    4.37284673 # occ.  1.00000000
 
ion      s     py     pz     px    dxy    dyz    dz2    dxz  x2-y2    tot
    1  0.003  0.007  0.007  0.000  0.174  0.106  0.002  0.174  0.005  0.479
    2  0.003  0.007  0.007  0.000  0.174  0.106  0.002  0.174  0.005  0.479
tot    0.006  0.014  0.014  0.000  0.348  0.213  0.003  0.348  0.010  0.958
 
band     9 # energy    4.76738293 # occ.  1.00000000
 
ion      s     py     pz     px    dxy    dyz    dz2    dxz  x2-y2    tot
    1  0.000  0.009  0.009  0.000  0.228  0.000  0.007  0.228  0.002  0.482
    2  0.000  0.009  0.009  0.000  0.228  0.000  0.007  0.228  0.002  0.482
tot    0.000  0.017  0.017  0.000  0.456  0.000  0.013  0.456  0.004  0.963
 
band    10 # energy    5.06943457 # occ.  1.00000078
 
ion      s     py     pz     px    dxy    dyz    dz2    dxz  x2-y2    tot
    1  0.009  0.000  0.000  0.002  0.000  0.001  0.119  0.000  0.357  0.489
    2  0.009  0.000  0.000  0.002  0.000  0.001  0.119  0.000  0.357  0.489
tot    0.019  0.000  0.000  0.004  0.000  0.001  0.238  0.000  0.715  0.978
 
band    11 # energy    5.55587782 # occ.  1.03434862
 
ion      s     py     pz     px    dxy    dyz    dz2    dxz  x2-y2    tot
    1  0.001  0.001  0.001  0.001  0.051  0.382  0.001  0.051  0.003  0.490
    2  0.001  0.001  0.001  0.001  0.051  0.382  0.001  0.051  0.003  0.490
tot    0.002  0.001  0.001  0.001  0.102  0.763  0.002  0.102  0.005  0.981
 
band    12 # energy    9.36492240 # occ. -0.00000000
 
ion      s     py     pz     px    dxy    dyz    dz2    dxz  x2-y2    tot
    1  0.100  0.003  0.003  0.166  0.005  0.001  0.035  0.005  0.106  0.425
    2  0.100  0.003  0.003  0.166  0.005  0.001  0.035  0.005  0.106  0.425
tot    0.200  0.007  0.007  0.331  0.010  0.001  0.071  0.010  0.213  0.849
 
band    13 # energy   18.12617515 # occ.  0.00000000
 
ion      s     py     pz     px    dxy    dyz    dz2    dxz  x2-y2    tot
    1  0.000  0.133  0.133  0.000  0.045  0.000  0.053  0.045  0.018  0.427
    2  0.000  0.133  0.133  0.000  0.045  0.000  0.053  0.045  0.018  0.427
tot    0.000  0.267  0.267  0.000  0.090  0.000  0.105  0.090  0.035  0.853
 
band    14 # energy   18.41644781 # occ.  0.00000000
 
ion      s     py     pz     px    dxy    dyz    dz2    dxz  x2-y2    tot
    1  0.049  0.127  0.127  0.004  0.047  0.005  0.002  0.047  0.005  0.413
    2  0.049  0.127  0.127  0.004  0.047  0.005  0.002  0.047  0.005  0.413
tot    0.097  0.255  0.255  0.008  0.095  0.010  0.003  0.095  0.010  0.827
 
band    15 # energy   23.16067456 # occ.  0.00000000
 
ion      s     py     pz     px    dxy    dyz    dz2    dxz  x2-y2    tot
    1  0.000  0.022  0.022  0.000  0.009  0.000  0.266  0.009  0.089  0.417
    2  0.000  0.022  0.022  0.000  0.009  0.000  0.266  0.009  0.089  0.417
tot    0.000  0.044  0.044  0.000  0.018  0.000  0.531  0.018  0.177  0.834
 
band    16 # energy   24.53782572 # occ.  0.00000000
 
ion      s     py     pz     px    dxy    dyz    dz2    dxz  x2-y2    tot
    1  0.000  0.034  0.034  0.000  0.051  0.000  0.132  0.051  0.044  0.346
    2  0.000  0.034  0.034  0.000  0.051  0.000  0.132  0.051  0.044  0.346
tot    0.000  0.069  0.069  0.000  0.102  0.000  0.264  0.102  0.088  0.692
 

 k-point     4 :    0.43750000 0.06250000 0.06250000     weight = 0.04687500

band     1 # energy    0.69057649 # occ.  1.00000000
 
ion      s     py     pz     px    dxy    dyz    dz2    dxz  x2-y2    tot
    1  0.193  0.001  0.001  0.094  0.007  0.000  0.019  0.007  0.058  0.382
    2  0.193  0.001  0.001  0.094  0.007  0.000  0.019  0.007  0.058  0.382
tot    0.387  0.002  0.002  0.188  0.015  0.000  0.039  0.015  0.116  0.763
 
band     2 # energy    1.56333240 # occ.  1.00000000
 
ion      s     py     pz     px    dxy    dyz    dz2    dxz  x2-y2    tot
    1  0.082  0.000  0.000  0.086  0.008  0.000  0.056  0.008  0.168  0.408
    2  0.082  0.000  0.000  0.086  0.008  0.000  0.056  0.008  0.168  0.408
tot    0.163  0.001  0.001  0.172  0.016  0.000  0.112  0.016  0.335  0.817
 
band     3 # energy    2.45585452 # occ.  1.00000000
 
ion      s     py     pz     px    dxy    dyz    dz2    dxz  x2-y2    tot
    1  0.000  0.002  0.002  0.000  0.011  0.000  0.318  0.011  0.106  0.450
    2  0.000  0.002  0.002  0.000  0.011  0.000  0.318  0.011  0.106  0.450
tot    0.000  0.004  0.004  0.000  0.022  0.000  0.636  0.022  0.212  0.899
 
band     4 # energy    3.07988829 # occ.  1.00000000
 
ion      s     py     pz     px    dxy    dyz    dz2    dxz  x2-y2    tot
    1  0.000  0.003  0.003  0.000  0.051  0.000  0.264  0.051  0.088  0.460
    2  0.000  0.003  0.003  0.000  0.051  0.000  0.264  0.051  0.088  0.460
tot    0.000  0.005  0.005  0.000  0.103  0.000  0.528  0.103  0.176  0.920
 
band     5 # energy    3.59097386 # occ.  1.00000000
 
ion      s     py     pz     px    dxy    dyz    dz2    dxz  x2-y2    tot
    1  0.001  0.004  0.004  0.004  0.166  0.127  0.001  0.166  0.004  0.479
    2  0.001  0.004  0.004  0.004  0.166  0.127  0.001  0.166  0.004  0.479
tot    0.002  0.009  0.009  0.008  0.333  0.254  0.003  0.333  0.008  0.958
 
band     6 # energy    3.89978676 # occ.  1.00000000
 
ion      s     py     pz     px    dxy    dyz    dz2    dxz  x2-y2    tot
    1  0.000  0.006  0.006  0.001  0.169  0.108  0.005  0.169  0.014  0.478
    2  0.000  0.006  0.006  0.001  0.169  0.108  0.005  0.169  0.014  0.478
tot    0.001  0.013  0.013  0.002  0.338  0.215  0.009  0.338  0.027  0.957
 
band     7 # energy    3.93487953 # occ.  1.00000000
 
ion      s     py     pz     px    dxy    dyz    dz2    dxz  x2-y2    tot
    1  0.000  0.004  0.004  0.000  0.182  0.000  0.080  0.182  0.027  0.480
    2  0.000  0.004  0.004  0.000  0.182  0.000  0.080  0.182  0.027  0.480
tot    0.000  0.008  0.008  0.000  0.364  0.000  0.161  0.364  0.054  0.959
 
band     8 # energy    4.22949376 # occ.  1.00000000
 
ion      s     py     pz     px    dxy    dyz    dz2    dxz  x2-y2    tot
    1  0.000  0.008  0.008  0.000  0.220  0.000  0.019  0.220  0.006  0.480
    2  0.000  0.008  0.008  0.000  0.220  0.000  0.019  0.220  0.006  0.480
tot    0.000  0.015  0.015  0.000  0.439  0.000  0.038  0.439  0.013  0.960
 
band     9 # energy    4.72153109 # occ.  1.00000000
 
ion      s     py     pz     px    dxy    dyz    dz2    dxz  x2-y2    tot
    1  0.000  0.002  0.002  0.000  0.058  0.356  0.003  0.058  0.008  0.487
    2  0.000  0.002  0.002  0.000  0.058  0.356  0.003  0.058  0.008  0.487
tot    0.000  0.003  0.003  0.001  0.117  0.713  0.005  0.117  0.016  0.974
 
band    10 # energy    5.15556948 # occ.  1.00001426
 
ion      s     py     pz     px    dxy    dyz    dz2    dxz  x2-y2    tot
    1  0.001  0.001  0.001  0.000  0.048  0.378  0.003  0.048  0.008  0.488
    2  0.001  0.001  0.001  0.000  0.048  0.378  0.003  0.048  0.008  0.488
tot    0.002  0.002  0.002  0.000  0.096  0.755  0.006  0.096  0.017  0.977
 
band    11 # energy    5.57485761 # occ.  1.03545470
 
ion      s     py     pz     px    dxy    dyz    dz2    dxz  x2-y2    tot
    1  0.045  0.001  0.001  0.020  0.002  0.004  0.101  0.002  0.303  0.480
    2  0.045  0.001  0.001  0.020  0.002  0.004  0.101  0.002  0.303  0.480
tot    0.091  0.002  0.002  0.039  0.005  0.007  0.202  0.005  0.607  0.960
 
band    12 # energy    6.93137078 # occ. -0.00000000
 
ion      s     py     pz     px    dxy    dyz    dz2    dxz  x2-y2    tot
    1  0.098  0.003  0.003  0.082  0.006  0.003  0.063  0.006  0.188  0.451
    2  0.098  0.003  0.003  0.082  0.006  0.003  0.063  0.006  0.188  0.451
tot    0.196  0.005  0.005  0.164  0.013  0.005  0.125  0.013  0.375  0.902
 
band    13 # energy   20.19943566 # occ.  0.00000000
 
ion      s     py     pz     px    dxy    dyz    dz2    dxz  x2-y2    tot
    1  0.000  0.100  0.100  0.000  0.060  0.000  0.086  0.060  0.029  0.434
    2  0.000  0.100  0.100  0.000  0.060  0.000  0.086  0.060  0.029  0.434
tot    0.000  0.200  0.200  0.000  0.121  0.000  0.171  0.121  0.057  0.869
 
band    14 # energy   20.64474982 # occ.  0.00000000
 
ion      s     py     pz     px    dxy    dyz    dz2    dxz  x2-y2    tot
    1  0.054  0.101  0.101  0.018  0.071  0.003  0.001  0.071  0.003  0.422
    2  0.054  0.101  0.101  0.018  0.071  0.003  0.001  0.071  0.003  0.422
tot    0.107  0.201  0.201  0.035  0.142  0.006  0.002  0.142  0.006  0.843
 
band    15 # energy   22.32725752 # occ.  0.00000000
 
ion      s     py     pz     px    dxy    dyz    dz2    dxz  x2-y2    tot
    1  0.000  0.062  0.062  0.000  0.060  0.000  0.123  0.060  0.041  0.407
    2  0.000  0.062  0.062  0.000  0.060  0.000  0.123  0.060  0.041  0.407
tot    0.000  0.124  0.124  0.000  0.119  0.000  0.246  0.119  0.082  0.814
 
band    16 # energy   23.17265059 # occ.  0.00000000
 
ion      s     py     pz     px    dxy    dyz    dz2    dxz  x2-y2    tot
    1  0.051  0.070  0.070  0.044  0.088  0.002  0.000  0.088  0.000  0.413
    2  0.051  0.070  0.070  0.044  0.088  0.002  0.000  0.088  0.000  0.413
tot    0.101  0.140  0.140  0.087  0.177  0.004  0.000  0.177  0.000  0.827
 

 k-point     5 :    0.18750000 0.18750000 0.06250000     weight = 0.04687500

band     1 # energy   -1.17782903 # occ.  1.00000000
 
ion      s     py     pz     px    dxy    dyz    dz2    dxz  x2-y2    tot
    1  0.310  0.022  0.003  0.022  0.008  0.001  0.002  0.001  0.000  0.368
    2  0.310  0.022  0.003  0.022  0.008  0.001  0.002  0.001  0.000  0.368
tot    0.620  0.045  0.005  0.045  0.016  0.001  0.004  0.001  0.000  0.737
 
band     2 # energy    1.51465767 # occ.  1.00000000
 
ion      s     py     pz     px    dxy    dyz    dz2    dxz  x2-y2    tot
    1  0.002  0.005  0.002  0.005  0.014  0.000  0.412  0.000  0.000  0.440
    2  0.002  0.005  0.002  0.005  0.014  0.000  0.412  0.000  0.000  0.440
tot    0.005  0.010  0.004  0.010  0.028  0.000  0.823  0.000  0.000  0.879
 
band     3 # energy    1.65689041 # occ.  1.00000000
 
ion      s     py     pz     px    dxy    dyz    dz2    dxz  x2-y2    tot
    1  0.000  0.013  0.000  0.013  0.000  0.001  0.000  0.001  0.410  0.438
    2  0.000  0.013  0.000  0.013  0.000  0.001  0.000  0.001  0.410  0.438
tot    0.000  0.027  0.000  0.027  0.000  0.002  0.000  0.002  0.819  0.876
 
band     4 # energy    3.14068968 # occ.  1.00000000
 
ion      s     py     pz     px    dxy    dyz    dz2    dxz  x2-y2    tot
    1  0.000  0.000  0.000  0.000  0.000  0.240  0.000  0.240  0.004  0.484
    2  0.000  0.000  0.000  0.000  0.000  0.240  0.000  0.240  0.004  0.484
tot    0.000  0.000  0.000  0.000  0.000  0.480  0.000  0.480  0.008  0.968
 
band     5 # energy    3.33285801 # occ.  1.00000000
 
ion      s     py     pz     px    dxy    dyz    dz2    dxz  x2-y2    tot
    1  0.002  0.004  0.000  0.004  0.370  0.024  0.050  0.024  0.000  0.478
    2  0.002  0.004  0.000  0.004  0.370  0.024  0.050  0.024  0.000  0.478
tot    0.004  0.008  0.001  0.008  0.740  0.047  0.100  0.047  0.000  0.956
 
band     6 # energy    4.33690482 # occ.  1.00000000
 
ion      s     py     pz     px    dxy    dyz    dz2    dxz  x2-y2    tot
    1  0.001  0.001  0.004  0.001  0.042  0.218  0.003  0.218  0.000  0.487
    2  0.001  0.001  0.004  0.001  0.042  0.218  0.003  0.218  0.000  0.487
tot    0.002  0.002  0.007  0.002  0.084  0.435  0.005  0.435  0.000  0.975
 
band     7 # energy    4.34707610 # occ.  1.00000000
 
ion      s     py     pz     px    dxy    dyz    dz2    dxz  x2-y2    tot
    1  0.006  0.002  0.009  0.002  0.105  0.175  0.003  0.175  0.000  0.478
    2  0.006  0.002  0.009  0.002  0.105  0.175  0.003  0.175  0.000  0.478
tot    0.012  0.004  0.017  0.004  0.210  0.351  0.006  0.351  0.000  0.956
 
band     8 # energy    4.57268643 # occ.  1.00000000
 
ion      s     py     pz     px    dxy    dyz    dz2    dxz  x2-y2    tot
    1  0.000  0.000  0.000  0.000  0.059  0.000  0.424  0.000  0.000  0.484
    2  0.000  0.000  0.000  0.000  0.059  0.000  0.424  0.000  0.000  0.484
tot    0.001  0.000  0.000  0.000  0.118  0.001  0.849  0.001  0.000  0.968
 
band     9 # energy    4.78053704 # occ.  1.00000000
 
ion      s     py     pz     px    dxy    dyz    dz2    dxz  x2-y2    tot
    1  0.000  0.000  0.000  0.000  0.000  0.002  0.000  0.002  0.482  0.486
    2  0.000  0.000  0.000  0.000  0.000  0.002  0.000  0.002  0.482  0.486
tot    0.000  0.000  0.000  0.000  0.000  0.004  0.000  0.004  0.964  0.973
 
band    10 # energy    5.09084993 # occ.  1.00000167
 
ion      s     py     pz     px    dxy    dyz    dz2    dxz  x2-y2    tot
    1  0.004  0.004  0.004  0.004  0.331  0.058  0.020  0.058  0.000  0.483
    2  0.004  0.004  0.004  0.004  0.331  0.058  0.020  0.058  0.000  0.483
tot    0.008  0.009  0.009  0.009  0.662  0.115  0.040  0.115  0.000  0.967
 
band    11 # energy    5.93077437 # occ.  0.09904390
 
ion      s     py     pz     px    dxy    dyz    dz2    dxz  x2-y2    tot
    1  0.000  0.001  0.000  0.001  0.000  0.244  0.000  0.244  0.003  0.494
    2  0.000  0.001  0.000  0.001  0.000  0.244  0.000  0.244  0.003  0.494
tot    0.000  0.002  0.000  0.002  0.000  0.488  0.000  0.488  0.007  0.987
 
band    12 # energy   12.57294511 # occ.  0.00000000
 
ion      s     py     pz     px    dxy    dyz    dz2    dxz  x2-y2    tot
    1  0.000  0.147  0.000  0.147  0.000  0.004  0.000  0.004  0.113  0.414
    2  0.000  0.147  0.000  0.147  0.000  0.004  0.000  0.004  0.113  0.414
tot    0.000  0.294  0.000  0.294  0.000  0.007  0.000  0.007  0.226  0.827
 
band    13 # energy   14.17721554 # occ.  0.00000000
 
ion      s     py     pz     px    dxy    dyz    dz2    dxz  x2-y2    tot
    1  0.124  0.078  0.008  0.078  0.077  0.000  0.053  0.000  0.000  0.419
    2  0.124  0.078  0.008  0.078  0.077  0.000  0.053  0.000  0.000  0.419
tot    0.249  0.157  0.015  0.157  0.153  0.000  0.107  0.000  0.000  0.839
 
band    14 # energy   17.40298286 # occ.  0.00000000
 
ion      s     py     pz     px    dxy    dyz    dz2    dxz  x2-y2    tot
    1  0.033  0.000  0.282  0.000  0.001  0.034  0.023  0.034  0.000  0.407
    2  0.033  0.000  0.282  0.000  0.001  0.034  0.023  0.034  0.000  0.407
tot    0.066  0.000  0.564  0.000  0.001  0.068  0.047  0.068  0.000  0.813
 
band    15 # energy   23.40720267 # occ.  0.00000000
 
ion      s     py     pz     px    dxy    dyz    dz2    dxz  x2-y2    tot
    1  0.034  0.000  0.035  0.000  0.003  0.003  0.323  0.003  0.000  0.401
    2  0.034  0.000  0.035  0.000  0.003  0.003  0.323  0.003  0.000  0.401
tot    0.068  0.000  0.070  0.000  0.007  0.005  0.647  0.005  0.000  0.802
 
band    16 # energy   24.57863700 # occ.  0.00000000
 
ion      s     py     pz     px    dxy    dyz    dz2    dxz  x2-y2    tot
    1  0.014  0.045  0.005  0.045  0.150  0.002  0.094  0.002  0.000  0.356
    2  0.014  0.045  0.005  0.045  0.150  0.002  0.094  0.002  0.000  0.356
tot    0.028  0.090  0.009  0.090  0.300  0.004  0.188  0.004  0.000  0.713
 

 k-point     6 :    0.31250000 0.18750000 0.06250000     weight = 0.09375000

band     1 # energy   -0.16604574 # occ.  1.00000000
 
ion      s     py     pz     px    dxy    dyz    dz2    dxz  x2-y2    tot
    1  0.255  0.016  0.002  0.052  0.031  0.000  0.011  0.002  0.005  0.376
    2  0.255  0.016  0.002  0.052  0.031  0.000  0.011  0.002  0.005  0.376
tot    0.511  0.033  0.005  0.105  0.062  0.000  0.023  0.004  0.010  0.751
 
band     2 # energy    1.70570902 # occ.  1.00000000
 
ion      s     py     pz     px    dxy    dyz    dz2    dxz  x2-y2    tot
    1  0.015  0.001  0.002  0.022  0.052  0.000  0.328  0.000  0.016  0.438
    2  0.015  0.001  0.002  0.022  0.052  0.000  0.328  0.000  0.016  0.438
tot    0.031  0.003  0.003  0.044  0.104  0.000  0.656  0.000  0.033  0.875