<?xml version="1.0" encoding="ISO-8859-1"?>
<modeling>
 <generator>
  <i name="program" type="string">vasp </i>
  <i name="version" type="string">5.4.4.18Apr17-6-g9f103f2a35  </i>
  <i name="subversion" type="string">(build Jan 03 2020 21:31:15) complex            parallel </i>
  <i name="platform" type="string">LinuxIFC </i>
  <i name="date" type="string">2024 11 04 </i>
  <i name="time" type="string">04:42:03 </i>
 </generator>
 <incar>
  <i type="int" name="ISTART">     0</i>
  <i type="string" name="PREC">accurate</i>
  <i type="int" name="ISPIN">     2</i>
  <i type="int" name="IBRION">     2</i>
  <i name="EDIFF">      0.00000100</i>
  <i name="EDIFFG">     -0.00100000</i>
  <i type="int" name="NSW">   300</i>
  <i type="int" name="ISIF">     3</i>
  <i name="ENCUT">    500.00000000</i>
  <v name="MAGMOM">      4.00000000      4.00000000</v>
  <i type="int" name="ISMEAR">     1</i>
  <i name="SIGMA">      0.20000000</i>
  <i type="int" name="LORBIT">    11</i>
  <v type="int" name="KPOINT_BSE">    -1     0     0     0</v>
 </incar>
 <structure name="primitive_cell" >
  <crystal>
   <varray name="basis" >
    <v>       1.41619320       1.41619320       1.41619320 </v>
    <v>       1.41619320      -1.41619320      -1.41619320 </v>
    <v>      -1.41619320       1.41619320      -1.41619320 </v>
   </varray>
   <i name="volume">     11.36128623 </i>
   <varray name="rec_basis" >
    <v>       0.35305917       0.35305917       0.00000000 </v>
    <v>       0.35305917      -0.00000000      -0.35305917 </v>
    <v>       0.00000000       0.35305917      -0.35305917 </v>
   </varray>
  </crystal>
  <varray name="positions" >
   <v>       0.00000000       0.00000000       0.00000000 </v>
  </varray>
 </structure>
 <varray name="primitive_index" >
  <v type="int" >        1 </v>
 </varray>
 <kpoints>
  <generation param="Monkhorst-Pack">
   <v type="int" name="divisions">       8        8        8 </v>
   <v name="usershift">      0.00000000       0.00000000       0.00000000 </v>
   <v name="genvec1">      0.12500000       0.00000000       0.00000000 </v>
   <v name="genvec2">      0.00000000       0.12500000       0.00000000 </v>
   <v name="genvec3">     -0.00000000      -0.00000000       0.12500000 </v>
   <v name="shift">      0.50000000       0.50000000       0.50000000 </v>
  </generation>
  <varray name="kpointlist" >
   <v>       0.06250000       0.06250000       0.06250000 </v>
   <v>       0.18750000       0.06250000       0.06250000 </v>
   <v>       0.31250000       0.06250000       0.06250000 </v>
   <v>       0.43750000       0.06250000       0.06250000 </v>
   <v>       0.18750000       0.18750000       0.06250000 </v>
   <v>       0.31250000       0.18750000       0.06250000 </v>
   <v>       0.43750000       0.18750000       0.06250000 </v>
   <v>       0.31250000       0.31250000       0.06250000 </v>
   <v>       0.43750000       0.31250000       0.06250000 </v>
   <v>       0.43750000       0.43750000       0.06250000 </v>
   <v>       0.18750000       0.18750000       0.18750000 </v>
   <v>       0.31250000       0.18750000       0.18750000 </v>
   <v>       0.43750000       0.18750000       0.18750000 </v>
   <v>       0.31250000       0.31250000       0.18750000 </v>
   <v>       0.43750000       0.31250000       0.18750000 </v>
   <v>       0.43750000       0.43750000       0.18750000 </v>
   <v>       0.31250000       0.31250000       0.31250000 </v>
   <v>       0.43750000       0.31250000       0.31250000 </v>
   <v>       0.43750000       0.43750000       0.31250000 </v>
   <v>       0.43750000       0.43750000       0.43750000 </v>
  </varray>
  <varray name="weights" >
   <v>       0.01562500 </v>
   <v>       0.04687500 </v>
   <v>       0.04687500 </v>
   <v>       0.04687500 </v>
   <v>       0.04687500 </v>
   <v>       0.09375000 </v>
   <v>       0.09375000 </v>
   <v>       0.04687500 </v>
   <v>       0.09375000 </v>
   <v>       0.04687500 </v>
   <v>       0.01562500 </v>
   <v>       0.04687500 </v>
   <v>       0.04687500 </v>
   <v>       0.04687500 </v>
   <v>       0.09375000 </v>
   <v>       0.04687500 </v>
   <v>       0.01562500 </v>
   <v>       0.04687500 </v>
   <v>       0.04687500 </v>
   <v>       0.01562500 </v>
  </varray>
 </kpoints>
 <parameters>
  <separator name="general" >
   <i type="string" name="SYSTEM">unknown system</i>
   <i type="logical" name="LCOMPAT"> F  </i>
  </separator>
  <separator name="electronic" >
   <i type="string" name="PREC">accura</i>
   <i name="ENMAX">    500.00000000</i>
   <i name="ENAUG">    511.36800000</i>
   <i name="EDIFF">      0.00000100</i>
   <i type="int" name="IALGO">    38</i>
   <i type="int" name="IWAVPR">    11</i>
   <i type="int" name="NBANDS">    16</i>
   <i name="NELECT">     16.00000000</i>
   <i type="int" name="TURBO">     0</i>
   <i type="int" name="IRESTART">     0</i>
   <i type="int" name="NREBOOT">     0</i>
   <i type="int" name="NMIN">     0</i>
   <i name="EREF">      0.00000000</i>
   <separator name="electronic smearing" >
    <i type="int" name="ISMEAR">     1</i>
    <i name="SIGMA">      0.20000000</i>
    <i name="KSPACING">      0.50000000</i>
    <i type="logical" name="KGAMMA"> T  </i>
   </separator>
   <separator name="electronic projectors" >
    <i type="logical" name="LREAL"> F  </i>
    <v name="ROPT">      0.00000000</v>
    <i type="int" name="LMAXPAW">  -100</i>
    <i type="int" name="LMAXMIX">     2</i>
    <i type="logical" name="NLSPLINE"> F  </i>
   </separator>
   <separator name="electronic startup" >
    <i type="int" name="ISTART">     0</i>
    <i type="int" name="ICHARG">     2</i>
    <i type="int" name="INIWAV">     1</i>
   </separator>
   <separator name="electronic spin" >
    <i type="int" name="ISPIN">     2</i>
    <i type="logical" name="LNONCOLLINEAR"> F  </i>
    <v name="MAGMOM">      4.00000000      4.00000000</v>
    <i name="NUPDOWN">     -1.00000000</i>
    <i type="logical" name="LSORBIT"> F  </i>
    <v name="SAXIS">      0.00000000      0.00000000      1.00000000</v>
    <i type="logical" name="LSPIRAL"> F  </i>
    <v name="QSPIRAL">      0.00000000      0.00000000      0.00000000</v>
    <i type="logical" name="LZEROZ"> F  </i>
   </separator>
   <separator name="electronic exchange-correlation" >
    <i type="logical" name="LASPH"> F  </i>
    <i type="logical" name="LMETAGGA"> F  </i>
   </separator>
   <separator name="electronic convergence" >
    <i type="int" name="NELM">    60</i>
    <i type="int" name="NELMDL">    -5</i>
    <i type="int" name="NELMIN">     2</i>
    <i name="ENINI">    500.00000000</i>
    <separator name="electronic convergence detail" >
     <i type="logical" name="LDIAG"> T  </i>
     <i type="logical" name="LSUBROT"> F  </i>
     <i name="WEIMIN">      0.00100000</i>
     <i name="EBREAK">      0.00000002</i>
     <i name="DEPER">      0.30000000</i>
     <i type="int" name="NRMM">     4</i>
     <i name="TIME">      0.40000000</i>
    </separator>
   </separator>
   <separator name="electronic mixer" >
    <i name="AMIX">      0.40000000</i>
    <i name="BMIX">      1.00000000</i>
    <i name="AMIN">      0.10000000</i>
    <i name="AMIX_MAG">      1.60000000</i>
    <i name="BMIX_MAG">      1.00000000</i>
    <separator name="electronic mixer details" >
     <i type="int" name="IMIX">     4</i>
     <i type="logical" name="MIXFIRST"> F  </i>
     <i type="int" name="MAXMIX">   -45</i>
     <i name="WC">    100.00000000</i>
     <i type="int" name="INIMIX">     1</i>
     <i type="int" name="MIXPRE">     1</i>
     <i type="int" name="MREMOVE">     5</i>
    </separator>
   </separator>
   <separator name="electronic dipolcorrection" >
    <i type="logical" name="LDIPOL"> F  </i>
    <i type="logical" name="LMONO"> F  </i>
    <i type="int" name="IDIPOL">     0</i>
    <i name="EPSILON">      1.00000000</i>
    <v name="DIPOL">   -100.00000000   -100.00000000   -100.00000000</v>
    <i name="EFIELD">      0.00000000</i>
   </separator>
  </separator>
  <separator name="grids" >
   <i type="int" name="NGX">    24</i>
   <i type="int" name="NGY">    24</i>
   <i type="int" name="NGZ">    24</i>
   <i type="int" name="NGXF">    48</i>
   <i type="int" name="NGYF">    48</i>
   <i type="int" name="NGZF">    48</i>
   <i type="logical" name="ADDGRID"> F  </i>
  </separator>
  <separator name="ionic" >
   <i type="int" name="NSW">   300</i>
   <i type="int" name="IBRION">     2</i>
   <i type="int" name="MDALGO">     0</i>
   <i type="int" name="ISIF">     3</i>
   <i name="PSTRESS">      0.00000000</i>
   <i name="EDIFFG">     -0.00100000</i>
   <i type="int" name="NFREE">     1</i>
   <i name="POTIM">      0.50000000</i>
   <i name="SMASS">     -3.00000000</i>
   <i name="SCALEE">      1.00000000</i>
  </separator>
  <separator name="ionic md" >
   <i name="TEBEG">      0.00010000</i>
   <i name="TEEND">      0.00010000</i>
   <i type="int" name="NBLOCK">     1</i>
   <i type="int" name="KBLOCK">   300</i>
   <i type="int" name="NPACO">   256</i>
   <i name="APACO">     16.00000000</i>
  </separator>
  <separator name="symmetry" >
   <i type="int" name="ISYM">     2</i>
   <i name="SYMPREC">      0.00001000</i>
  </separator>
  <separator name="dos" >
   <i type="int" name="LORBIT">    11</i>
   <v name="RWIGS">     -1.00000000</v>
   <i type="int" name="NEDOS">   301</i>
   <i name="EMIN">     10.00000000</i>
   <i name="EMAX">    -10.00000000</i>
   <i name="EFERMI">      0.00000000</i>
  </separator>
  <separator name="writing" >
   <i type="int" name="NWRITE">     2</i>
   <i type="logical" name="LWAVE"> T  </i>
   <i type="logical" name="LDOWNSAMPLE"> F  </i>
   <i type="logical" name="LCHARG"> T  </i>
   <i type="logical" name="LPARD"> F  </i>
   <i type="logical" name="LVTOT"> F  </i>
   <i type="logical" name="LVHAR"> F  </i>
   <i type="logical" name="LELF"> F  </i>
   <i type="logical" name="LOPTICS"> F  </i>
   <v name="STM">      0.00000000      0.00000000      0.00000000      0.00000000      0.00000000      0.00000000      0.00000000</v>
  </separator>
  <separator name="performance" >
   <i type="int" name="NPAR">    16</i>
   <i type="int" name="NSIM">     4</i>
   <i type="int" name="NBLK">    -1</i>
   <i type="logical" name="LPLANE"> T  </i>
   <i type="logical" name="LSCALAPACK"> T  </i>
   <i type="logical" name="LSCAAWARE"> F  </i>
   <i type="logical" name="LSCALU"> F  </i>
   <i type="logical" name="LASYNC"> F  </i>
   <i type="logical" name="LORBITALREAL"> F  </i>
  </separator>
  <separator name="miscellaneous" >
   <i type="int" name="IDIOT">     3</i>
   <i type="int" name="ISPECIAL">     0</i>
   <i type="logical" name="LMUSIC"> F  </i>
   <v name="POMASS">     55.84700000</v>
   <v name="DARWINR">      0.00000000</v>
   <v name="DARWINV">      1.00000000</v>
   <i type="logical" name="LCORR"> T  </i>
  </separator>
  <i type="logical" name="GGA_COMPAT"> T  </i>
  <i type="logical" name="LBERRY"> F  </i>
  <i type="int" name="ICORELEVEL">     0</i>
  <i type="logical" name="LDAU"> F  </i>
  <i type="int" name="I_CONSTRAINED_M">     0</i>
  <separator name="electronic exchange-correlation" >
   <i type="string" name="GGA">--</i>
   <i type="int" name="VOSKOWN">     0</i>
   <i type="logical" name="LHFCALC"> F  </i>
   <i type="string" name="PRECFOCK"></i>
   <i type="logical" name="LSYMGRAD"> F  </i>
   <i type="logical" name="LHFONE"> F  </i>
   <i type="logical" name="LRHFCALC"> F  </i>
   <i type="logical" name="LTHOMAS"> F  </i>
   <i type="logical" name="LMODELHF"> F  </i>
   <i name="ENCUT4O">     -1.00000000</i>
   <i type="int" name="EXXOEP">     0</i>
   <i type="int" name="FOURORBIT">     0</i>
   <i name="AEXX">      0.00000000</i>
   <i name="HFALPHA">      0.00000000</i>
   <i name="MCALPHA">      0.00000000</i>
   <i name="ALDAX">      1.00000000</i>
   <i name="AGGAX">      1.00000000</i>
   <i name="ALDAC">      1.00000000</i>
   <i name="AGGAC">      1.00000000</i>
   <i type="int" name="NKREDX">     1</i>
   <i type="int" name="NKREDY">     1</i>
   <i type="int" name="NKREDZ">     1</i>
   <i type="logical" name="SHIFTRED"> F  </i>
   <i type="logical" name="ODDONLY"> F  </i>
   <i type="logical" name="EVENONLY"> F  </i>
   <i type="int" name="LMAXFOCK">     0</i>
   <i type="int" name="NMAXFOCKAE">     0</i>
   <i type="logical" name="LFOCKAEDFT"> F  </i>
   <i name="HFSCREEN">      0.00000000</i>
   <i name="HFSCREENC">      0.00000000</i>
   <i type="int" name="NBANDSGWLOW">     0</i>
  </separator>
  <separator name="vdW DFT" >
   <i type="logical" name="LUSE_VDW"> F  </i>
   <i name="Zab_VDW">     -0.84910000</i>
   <i name="PARAM1">      0.12340000</i>
   <i name="PARAM2">      1.00000000</i>
   <i name="PARAM3">      0.00000000</i>
  </separator>
  <separator name="model GW" >
   <i type="int" name="MODEL_GW">     0</i>
   <i name="MODEL_EPS0">      6.81677174</i>
   <i name="MODEL_ALPHA">      1.00000000</i>
  </separator>
  <separator name="linear response parameters" >
   <i type="logical" name="LEPSILON"> F  </i>
   <i type="logical" name="LRPA"> F  </i>
   <i type="logical" name="LNABLA"> F  </i>
   <i type="logical" name="LVEL"> F  </i>
   <i type="int" name="KINTER">     0</i>
   <i name="CSHIFT">      0.10000000</i>
   <i name="OMEGAMAX">     -1.00000000</i>
   <i name="DEG_THRESHOLD">      0.00200000</i>
   <i name="RTIME">     -0.10000000</i>
   <i name="WPLASMAI">      0.00000000</i>
   <v name="DFIELD">      0.00000000      0.00000000      0.00000000</v>
   <v name="WPLASMA">      0.00000000      0.00000000      0.00000000      0.00000000      0.00000000      0.00000000      0.00000000      0.00000000      0.00000000</v>
  </separator>
  <separator name="orbital magnetization" >
   <i type="logical" name="NUCIND"> F  </i>
   <v name="MAGPOS">      0.00000000      0.00000000      0.00000000</v>
   <i type="logical" name="LNICSALL"> T  </i>
   <i type="logical" name="ORBITALMAG"> F  </i>
   <i type="logical" name="LMAGBLOCH"> F  </i>
   <i type="logical" name="LCHIMAG"> F  </i>
   <i type="logical" name="LGAUGE"> T  </i>
   <i type="int" name="MAGATOM">     0</i>
   <v name="MAGDIPOL">      0.00000000      0.00000000      0.00000000</v>
   <v name="AVECCONST">      0.00000000      0.00000000      0.00000000</v>
  </separator>
  <separator name="response functions" >
   <i type="logical" name="LADDER"> F  </i>
   <i type="logical" name="LRPAFORCE"> F  </i>
   <i type="logical" name="LFXC"> F  </i>
   <i type="logical" name="LHARTREE"> T  </i>
   <i type="int" name="IBSE">     0</i>
   <v type="int" name="KPOINT">    -1     0     0     0</v>
   <i type="logical" name="LTCTE"> F  </i>
   <i type="logical" name="LTETE"> F  </i>
   <i type="logical" name="LTRIPLET"> F  </i>
   <i type="logical" name="LFXCEPS"> F  </i>
   <i type="logical" name="LFXHEG"> F  </i>
   <i type="int" name="NATURALO">     2</i>
   <i type="logical" name="L2ORDER"> F  </i>
   <i type="logical" name="LMP2LT"> F  </i>
   <i type="logical" name="LUSEW"> F  </i>
   <i name="ENCUTGW">     -2.00000000</i>
   <i name="ENCUTGWSOFT">     -2.00000000</i>
   <i name="ENCUTLF">     -1.00000000</i>
   <i type="int" name="LMAXMP2">    -1</i>
   <i name="SCISSOR">      0.00000000</i>
   <i type="int" name="NOMEGA">     0</i>
   <i type="int" name="NOMEGAR">     0</i>
   <i type="int" name="NBANDSGW">    -1</i>
   <i type="int" name="NBANDSO">    -1</i>
   <i type="int" name="NBANDSV">    -1</i>
   <i type="int" name="NELM">     1</i>
   <i type="int" name="NELMHF">     1</i>
   <i type="int" name="DIM">     3</i>
   <i type="int" name="ANTIRES">     0</i>
   <i name="OMEGAMAX">    -30.00000000</i>
   <i name="OMEGAMIN">    -30.00000000</i>
   <i name="OMEGATL">   -200.00000000</i>
   <i type="int" name="OMEGAGRID">   140</i>
   <i name="CSHIFT">     -0.10000000</i>
   <i type="logical" name="SELFENERGY"> F  </i>
   <i type="logical" name="LSPECTRAL"> F  </i>
   <i type="logical" name="LSPECTRALGW"> F  </i>
   <i type="logical" name="LSINGLES"> F  </i>
   <i type="logical" name="LFERMIGW"> F  </i>
   <i type="logical" name="ODDONLYGW"> F  </i>
   <i type="logical" name="EVENONLYGW"> F  </i>
   <i type="int" name="NKREDLFX">     1</i>
   <i type="int" name="NKREDLFY">     1</i>
   <i type="int" name="NKREDLFZ">     1</i>
   <i type="int" name="MAXMEM">  2800</i>
   <i type="int" name="TELESCOPE">     0</i>
   <i type="int" name="TAUPAR">     1</i>
   <i type="int" name="OMEGAPAR">    -1</i>
   <i name="LAMBDA">      1.00000000</i>
  </separator>
  <separator name="External order field" >
   <i name="OFIELD_KAPPA">      0.00000000</i>
   <v name="OFIELD_K">      0.00000000      0.00000000      0.00000000</v>
   <i name="OFIELD_Q6_NEAR">      0.00000000</i>
   <i name="OFIELD_Q6_FAR">      0.00000000</i>
   <i name="OFIELD_A">      0.00000000</i>
  </separator>
 </parameters>
 <atominfo>
  <atoms>       2 </atoms>
  <types>       1 </types>
  <array name="atoms" >
   <dimension dim="1">ion</dimension>
   <field type="string">element</field>
   <field type="int">atomtype</field>
   <set>
    <rc><c>Fe</c><c>   1</c></rc>
    <rc><c>Fe</c><c>   1</c></rc>
   </set>
  </array>
  <array name="atomtypes" >
   <dimension dim="1">type</dimension>
   <field type="int">atomspertype</field>
   <field type="string">element</field>
   <field>mass</field>
   <field>valence</field>
   <field type="string">pseudopotential</field>
   <set>
    <rc><c>   2</c><c>Fe</c><c>     55.84700000</c><c>      8.00000000</c><c>  PAW_PBE Fe 06Sep2000                  </c></rc>
   </set>
  </array>
 </atominfo>
 <structure name="initialpos" >
  <crystal>
   <varray name="basis" >
    <v>       2.83238639       0.00000000       0.00000000 </v>
    <v>       0.00000000       2.83238639       0.00000000 </v>
    <v>       0.00000000       0.00000000       2.83238639 </v>
   </varray>
   <i name="volume">     22.72257247 </i>
   <varray name="rec_basis" >
    <v>       0.35305917      -0.00000000       0.00000000 </v>
    <v>       0.00000000       0.35305917       0.00000000 </v>
    <v>      -0.00000000      -0.00000000       0.35305917 </v>
   </varray>
  </crystal>
  <varray name="positions" >
   <v>       0.00000000       0.00000000       0.00000000 </v>
   <v>       0.50000000       0.50000000       0.50000000 </v>
  </varray>
 </structure>
 <calculation>
  <scstep>
   <time name="dav">    0.34    0.34</time>
   <time name="total">    0.53    0.58</time>
   <energy>
    <i name="alphaZ">    121.66540755 </i>
    <i name="ewald">  -1184.11386422 </i>
    <i name="hartreedc">   -223.08405992 </i>
    <i name="XCdc">     12.01343166 </i>
    <i name="pawpsdc">   1105.78361136 </i>
    <i name="pawaedc">  -1121.29561652 </i>
    <i name="eentropy">     -0.00745988 </i>
    <i name="bandstr">    129.32704712 </i>
    <i name="atom">   1188.62534088 </i>
    <i name="e_fr_energy">     28.91383804 </i>
    <i name="e_wo_entrp">     28.92129791 </i>
    <i name="e_0_energy">     28.91632466 </i>
   </energy>
  </scstep>
  <scstep>
   <time name="dav">    0.44    0.57</time>
   <time name="total">    0.45    0.58</time>
   <energy>
    <i name="e_fr_energy">    -17.07235182 </i>
    <i name="e_wo_entrp">    -17.06405245 </i>
    <i name="e_0_energy">    -17.06958536 </i>
   </energy>
  </scstep>
  <scstep>
   <time name="dav">    0.62    0.67</time>
   <time name="total">    0.62    0.67</time>
   <energy>
    <i name="e_fr_energy">    -17.34670351 </i>
    <i name="e_wo_entrp">    -17.33830314 </i>
    <i name="e_0_energy">    -17.34390339 </i>
   </energy>
  </scstep>
  <scstep>
   <time name="dav">    0.47    0.55</time>
   <time name="total">    0.47    0.55</time>
   <energy>
    <i name="e_fr_energy">    -17.34777399 </i>
    <i name="e_wo_entrp">    -17.33937613 </i>
    <i name="e_0_energy">    -17.34497470 </i>
   </energy>
  </scstep>
  <scstep>
   <time name="dav">    0.67    0.74</time>
   <time name="total">    0.71    0.78</time>
   <energy>
    <i name="e_fr_energy">    -17.34778167 </i>
    <i name="e_wo_entrp">    -17.33938378 </i>
    <i name="e_0_energy">    -17.34498237 </i>
   </energy>
  </scstep>
  <scstep>
   <time name="dav">    0.36    0.36</time>
   <time name="total">    0.44    0.48</time>
   <energy>
    <i name="e_fr_energy">    -16.61021908 </i>
    <i name="e_wo_entrp">    -16.60711062 </i>
    <i name="e_0_energy">    -16.60918293 </i>
   </energy>
  </scstep>
  <scstep>
   <time name="dav">    0.37    0.37</time>
   <time name="total">    0.55    0.68</time>
   <energy>
    <i name="e_fr_energy">    -16.50582530 </i>
    <i name="e_wo_entrp">    -16.50405725 </i>
    <i name="e_0_energy">    -16.50523595 </i>
   </energy>
  </scstep>
  <scstep>
   <time name="dav">    0.47    0.47</time>
   <time name="total">    0.55    0.59</time>
   <energy>
    <i name="e_fr_energy">    -16.48674107 </i>
    <i name="e_wo_entrp">    -16.48369354 </i>
    <i name="e_0_energy">    -16.48572523 </i>
   </energy>
  </scstep>
  <scstep>
   <time name="dav">    0.57    0.58</time>
   <time name="total">    0.65    0.70</time>
   <energy>
    <i name="e_fr_energy">    -16.47367053 </i>
    <i name="e_wo_entrp">    -16.46982314 </i>
    <i name="e_0_energy">    -16.47238807 </i>
   </energy>
  </scstep>
  <scstep>
   <time name="dav">    0.39    0.39</time>
   <time name="total">    0.57    0.70</time>
   <energy>
    <i name="e_fr_energy">    -16.47325085 </i>
    <i name="e_wo_entrp">    -16.46943720 </i>
    <i name="e_0_energy">    -16.47197964 </i>
   </energy>
  </scstep>
  <scstep>
   <time name="dav">    0.40    0.40</time>
   <time name="total">    0.49    0.53</time>
   <energy>
    <i name="e_fr_energy">    -16.47328157 </i>
    <i name="e_wo_entrp">    -16.46949604 </i>
    <i name="e_0_energy">    -16.47201972 </i>
   </energy>
  </scstep>
  <scstep>
   <time name="dav">    0.40    0.41</time>
   <time name="total">    0.45    0.49</time>
   <energy>
    <i name="alphaZ">    121.66540755 </i>
    <i name="ewald">  -1184.11386422 </i>
    <i name="hartreedc">   -190.25076397 </i>
    <i name="XCdc">      8.62010187 </i>
    <i name="pawpsdc">   1440.85605861 </i>
    <i name="pawaedc">  -1458.96714487 </i>
    <i name="eentropy">     -0.00377872 </i>
    <i name="bandstr">     57.09536226 </i>
    <i name="atom">   1188.62534088 </i>
    <i name="e_fr_energy">    -16.47328060 </i>
    <i name="e_wo_entrp">    -16.46950189 </i>
    <i name="e_0_energy">    -16.47202103 </i>
   </energy>
  </scstep>
  <structure>
   <crystal>
    <varray name="basis" >
     <v>       2.83238639       0.00000000       0.00000000 </v>
     <v>       0.00000000       2.83238639       0.00000000 </v>
     <v>       0.00000000       0.00000000       2.83238639 </v>
    </varray>
    <i name="volume">     22.72257247 </i>
    <varray name="rec_basis" >
     <v>       0.35305917      -0.00000000       0.00000000 </v>
     <v>       0.00000000       0.35305917       0.00000000 </v>
     <v>      -0.00000000      -0.00000000       0.35305917 </v>
    </varray>
   </crystal>
   <varray name="positions" >
    <v>       0.00000000       0.00000000       0.00000000 </v>
    <v>       0.50000000       0.50000000       0.50000000 </v>
   </varray>
  </structure>
  <varray name="forces" >
   <v>       0.00000000       0.00000000       0.00000000 </v>
   <v>      -0.00000000      -0.00000000      -0.00000000 </v>
  </varray>
  <varray name="stress" >
   <v>       3.14485953       0.00000000      -0.00000000 </v>
   <v>       0.00000000       3.14485953       0.00000000 </v>
   <v>      -0.00000000       0.00000000       3.14485953 </v>
  </varray>
  <energy>
   <i name="e_fr_energy">    -16.47328060 </i>
   <i name="e_wo_entrp">    -16.47202103 </i>
   <i name="e_0_energy">     -0.00377872 </i>
  </energy>
  <time name="totalsc">    8.05   11.15</time>
 </calculation>
 <calculation>
  <scstep>
   <time name="dav">    0.34    0.34</time>
   <time name="total">    0.53    0.64</time>
   <energy>
    <i name="alphaZ">    121.27357191 </i>
    <i name="ewald">  -1182.84131131 </i>
    <i name="hartreedc">   -190.04121181 </i>
    <i name="XCdc">      8.56089560 </i>
    <i name="pawpsdc">   1441.22054321 </i>
    <i name="pawaedc">  -1459.33923346 </i>
    <i name="eentropy">     -0.00387388 </i>
    <i name="bandstr">     56.07018601 </i>
    <i name="atom">   1188.62534088 </i>
    <i name="e_fr_energy">    -16.47509286 </i>
    <i name="e_wo_entrp">    -16.47121898 </i>
    <i name="e_0_energy">    -16.47380156 </i>
   </energy>
  </scstep>
  <scstep>
   <time name="dav">    0.36    0.36</time>
   <time name="total">    0.50    0.59</time>
   <energy>
    <i name="e_fr_energy">    -16.47343789 </i>
    <i name="e_wo_entrp">    -16.46948906 </i>
    <i name="e_0_energy">    -16.47212161 </i>
   </energy>
  </scstep>
  <scstep>
   <time name="dav">    0.39    0.39</time>
   <time name="total">    0.51    0.59</time>
   <energy>
    <i name="e_fr_energy">    -16.47317211 </i>
    <i name="e_wo_entrp">    -16.46921142 </i>
    <i name="e_0_energy">    -16.47185188 </i>
   </energy>
  </scstep>
  <scstep>
   <time name="dav">    0.40    0.40</time>
   <time name="total">    0.50    0.55</time>
   <energy>
    <i name="e_fr_energy">    -16.47315145 </i>
    <i name="e_wo_entrp">    -16.46921454 </i>
    <i name="e_0_energy">    -16.47183915 </i>
   </energy>
  </scstep>
  <scstep>
   <time name="dav">    0.47    0.47</time>
   <time name="total">    0.56    0.61</time>
   <energy>
    <i name="e_fr_energy">    -16.47313790 </i>
    <i name="e_wo_entrp">    -16.46922534 </i>
    <i name="e_0_energy">    -16.47183371 </i>
   </energy>
  </scstep>
  <scstep>
   <time name="dav">    0.20    0.20</time>
   <time name="total">    0.25    0.28</time>
   <energy>
    <i name="alphaZ">    121.27357191 </i>
    <i name="ewald">  -1182.84131131 </i>
    <i name="hartreedc">   -190.75720075 </i>
    <i name="XCdc">      8.61896035 </i>
    <i name="pawpsdc">   1438.80915412 </i>
    <i name="pawaedc">  -1456.91326357 </i>
    <i name="eentropy">     -0.00391150 </i>
    <i name="bandstr">     56.71552147 </i>
    <i name="atom">   1188.62534088 </i>
    <i name="e_fr_energy">    -16.47313840 </i>
    <i name="e_wo_entrp">    -16.46922691 </i>
    <i name="e_0_energy">    -16.47183457 </i>
   </energy>
  </scstep>
  <structure>
   <crystal>
    <varray name="basis" >
     <v>       2.83543360       0.00000000       0.00000000 </v>
     <v>       0.00000000       2.83543360       0.00000000 </v>
     <v>      -0.00000000       0.00000000       2.83543360 </v>
    </varray>
    <i name="volume">     22.79598924 </i>
    <varray name="rec_basis" >
     <v>       0.35267975      -0.00000000       0.00000000 </v>
     <v>      -0.00000000       0.35267975      -0.00000000 </v>
     <v>      -0.00000000      -0.00000000       0.35267975 </v>
    </varray>
   </crystal>
   <varray name="positions" >
    <v>       0.00000000       0.00000000       0.00000000 </v>
    <v>       0.50000000       0.50000000       0.50000000 </v>
   </varray>
  </structure>
  <varray name="forces" >
   <v>      -0.00000000      -0.00000000      -0.00000000 </v>
   <v>       0.00000000       0.00000000       0.00000000 </v>
  </varray>
  <varray name="stress" >
   <v>      -5.62591553       0.00000000       0.00000000 </v>
   <v>      -0.00000000      -5.62591553      -0.00000000 </v>
   <v>       0.00000000       0.00000000      -5.62591553 </v>
  </varray>
  <energy>
   <i name="e_fr_energy">    -16.47313840 </i>
   <i name="e_wo_entrp">    -16.47183457 </i>
   <i name="e_0_energy">     -0.00391150 </i>
  </energy>
  <time name="totalsc">    3.23    3.93</time>
 </calculation>
 <calculation>
  <scstep>
   <time name="dav">    0.34    0.35</time>
   <time name="total">    0.42    0.43</time>
   <energy>
    <i name="alphaZ">    121.52500740 </i>
    <i name="ewald">  -1183.65820537 </i>
    <i name="hartreedc">   -190.88705716 </i>
    <i name="XCdc">      8.65857016 </i>
    <i name="pawpsdc">   1438.74103262 </i>
    <i name="pawaedc">  -1456.84654055 </i>
    <i name="eentropy">     -0.00362303 </i>
    <i name="bandstr">     57.37140404 </i>
    <i name="atom">   1188.62534088 </i>
    <i name="e_fr_energy">    -16.47407102 </i>
    <i name="e_wo_entrp">    -16.47044798 </i>
    <i name="e_0_energy">    -16.47286334 </i>
   </energy>
  </scstep>
  <scstep>
   <time name="dav">    0.36    0.36</time>
   <time name="total">    0.47    0.51</time>
   <energy>
    <i name="e_fr_energy">    -16.47340063 </i>
    <i name="e_wo_entrp">    -16.46959976 </i>
    <i name="e_0_energy">    -16.47213367 </i>
   </energy>
  </scstep>
  <scstep>
   <time name="dav">    0.42    0.42</time>
   <time name="total">    0.60    0.75</time>
   <energy>
    <i name="e_fr_energy">    -16.47327366 </i>
    <i name="e_wo_entrp">    -16.46947552 </i>
    <i name="e_0_energy">    -16.47200762 </i>
   </energy>
  </scstep>
  <scstep>
   <time name="dav">    0.41    0.41</time>
   <time name="total">    0.49    0.52</time>
   <energy>
    <i name="e_fr_energy">    -16.47326503 </i>
    <i name="e_wo_entrp">    -16.46945152 </i>
    <i name="e_0_energy">    -16.47199386 </i>
   </energy>
  </scstep>
  <scstep>
   <time name="dav">    0.46    0.46</time>
   <time name="total">    0.76    0.78</time>
   <energy>
    <i name="e_fr_energy">    -16.47325930 </i>
    <i name="e_wo_entrp">    -16.46942865 </i>
    <i name="e_0_energy">    -16.47198242 </i>
   </energy>
  </scstep>
  <scstep>
   <time name="dav">    0.20    0.20</time>
   <time name="total">    0.34    0.46</time>
   <energy>
    <i name="alphaZ">    121.52500740 </i>
    <i name="ewald">  -1183.65820537 </i>
    <i name="hartreedc">   -190.42035132 </i>
    <i name="XCdc">      8.62238107 </i>
    <i name="pawpsdc">   1440.41637337 </i>
    <i name="pawaedc">  -1458.54044502 </i>
    <i name="eentropy">     -0.00383185 </i>
    <i name="bandstr">     56.96047160 </i>
    <i name="atom">   1188.62534088 </i>
    <i name="e_fr_energy">    -16.47325924 </i>
    <i name="e_wo_entrp">    -16.46942739 </i>
    <i name="e_0_energy">    -16.47198196 </i>
   </energy>
  </scstep>
  <structure>
   <crystal>
    <varray name="basis" >
     <v>       2.83347674       0.00000000       0.00000000 </v>
     <v>       0.00000000       2.83347674       0.00000000 </v>
     <v>      -0.00000000       0.00000000       2.83347674 </v>
    </varray>
    <i name="volume">     22.74882429 </i>
    <varray name="rec_basis" >
     <v>       0.35292331      -0.00000000       0.00000000 </v>
     <v>      -0.00000000       0.35292331      -0.00000000 </v>
     <v>      -0.00000000      -0.00000000       0.35292331 </v>
    </varray>
   </crystal>
   <varray name="positions" >
    <v>       0.00000000       0.00000000       0.00000000 </v>
    <v>       0.50000000       0.50000000       0.50000000 </v>
   </varray>
  </structure>
  <varray name="forces" >
   <v>       0.00000000       0.00000000      -0.00000000 </v>
   <v>      -0.00000000      -0.00000000       0.00000000 </v>
  </varray>
  <varray name="stress" >
   <v>      -2.10005831       0.00000000       0.00000000 </v>
   <v>       0.00000000      -2.10005831      -0.00000000 </v>
   <v>       0.00000000       0.00000000      -2.10005831 </v>
  </varray>
  <energy>
   <i name="e_fr_energy">    -16.47325924 </i>
   <i name="e_wo_entrp">    -16.47198196 </i>
   <i name="e_0_energy">     -0.00383185 </i>
  </energy>
  <time name="totalsc">    3.46    4.05</time>
 </calculation>
 <calculation>
  <scstep>
   <time name="dav">    0.34    0.34</time>
   <time name="total">    0.44    0.45</time>
   <energy>
    <i name="alphaZ">    121.58123641 </i>
    <i name="ewald">  -1183.84073480 </i>
    <i name="hartreedc">   -190.45067527 </i>
    <i name="XCdc">      8.63133278 </i>
    <i name="pawpsdc">   1440.46131521 </i>
    <i name="pawaedc">  -1458.58459503 </i>
    <i name="eentropy">     -0.00378133 </i>
    <i name="bandstr">     57.10725214 </i>
    <i name="atom">   1188.62534088 </i>
    <i name="e_fr_energy">    -16.47330901 </i>
    <i name="e_wo_entrp">    -16.46952768 </i>
    <i name="e_0_energy">    -16.47204857 </i>
   </energy>
  </scstep>
  <scstep>
   <time name="dav">    0.36    0.36</time>
   <time name="total">    0.55    0.68</time>
   <energy>
    <i name="e_fr_energy">    -16.47327766 </i>
    <i name="e_wo_entrp">    -16.46946994 </i>
    <i name="e_0_energy">    -16.47200842 </i>
   </energy>
  </scstep>
  <scstep>
   <time name="dav">    0.39    0.39</time>
   <time name="total">    0.50    0.56</time>
   <energy>
    <i name="e_fr_energy">    -16.47327108 </i>
    <i name="e_wo_entrp">    -16.46946504 </i>
    <i name="e_0_energy">    -16.47200240 </i>
   </energy>
  </scstep>
  <scstep>
   <time name="dav">    0.19    0.19</time>
   <time name="total">    0.23    0.28</time>
   <energy>
    <i name="alphaZ">    121.58123641 </i>
    <i name="ewald">  -1183.84073480 </i>
    <i name="hartreedc">   -190.35482415 </i>
    <i name="XCdc">      8.62377060 </i>
    <i name="pawpsdc">   1440.68526577 </i>
    <i name="pawaedc">  -1458.80431388 </i>
    <i name="eentropy">     -0.00380946 </i>
    <i name="bandstr">     57.01479788 </i>
    <i name="atom">   1188.62534088 </i>
    <i name="e_fr_energy">    -16.47327075 </i>
    <i name="e_wo_entrp">    -16.46946129 </i>
    <i name="e_0_energy">    -16.47200093 </i>
   </energy>
  </scstep>
  <structure>
   <crystal>
    <varray name="basis" >
     <v>       2.83303986       0.00000000       0.00000000 </v>
     <v>       0.00000000       2.83303986       0.00000000 </v>
     <v>      -0.00000000       0.00000000       2.83303986 </v>
    </varray>
    <i name="volume">     22.73830339 </i>
    <varray name="rec_basis" >
     <v>       0.35297774      -0.00000000       0.00000000 </v>
     <v>      -0.00000000       0.35297774      -0.00000000 </v>
     <v>      -0.00000000      -0.00000000       0.35297774 </v>
    </varray>
   </crystal>
   <varray name="positions" >
    <v>       0.00000000       0.00000000       0.00000000 </v>
    <v>       0.50000000       0.50000000       0.50000000 </v>
   </varray>
  </structure>
  <varray name="forces" >
   <v>       0.00000000       0.00000000       0.00000000 </v>
   <v>      -0.00000000      -0.00000000      -0.00000000 </v>
  </varray>
  <varray name="stress" >
   <v>      -0.54674190       0.00000000      -0.00000000 </v>
   <v>       0.00000000      -0.54674190       0.00000000 </v>
   <v>      -0.00000000      -0.00000000      -0.54674190 </v>
  </varray>
  <energy>
   <i name="e_fr_energy">    -16.47327075 </i>
   <i name="e_wo_entrp">    -16.47200093 </i>
   <i name="e_0_energy">     -0.00380946 </i>
  </energy>
  <time name="totalsc">    2.25    2.63</time>
 </calculation>
 <calculation>
  <scstep>
   <time name="dav">    0.35    0.35</time>
   <time name="total">    0.53    0.64</time>
   <energy>
    <i name="alphaZ">    121.59809135 </i>
    <i name="ewald">  -1183.89543799 </i>
    <i name="hartreedc">   -190.35920951 </i>
    <i name="XCdc">      8.62619850 </i>
    <i name="pawpsdc">   1440.86668538 </i>
    <i name="pawaedc">  -1458.99202329 </i>
    <i name="eentropy">     -0.00379874 </i>
    <i name="bandstr">     57.06087711 </i>
    <i name="atom">   1188.62534088 </i>
    <i name="e_fr_energy">    -16.47327632 </i>
    <i name="e_wo_entrp">    -16.46947757 </i>
    <i name="e_0_energy">    -16.47201007 </i>
   </energy>
  </scstep>
  <scstep>
   <time name="dav">    0.36    0.36</time>
   <time name="total">    0.49    0.58</time>
   <energy>
    <i name="e_fr_energy">    -16.47327365 </i>
    <i name="e_wo_entrp">    -16.46946749 </i>
    <i name="e_0_energy">    -16.47200493 </i>
   </energy>
  </scstep>
  <scstep>
   <time name="dav">    0.27    0.27</time>
   <time name="total">    0.32    0.34</time>
   <energy>
    <i name="alphaZ">    121.59809135 </i>
    <i name="ewald">  -1183.89543799 </i>
    <i name="hartreedc">   -190.32900221 </i>
    <i name="XCdc">      8.62370767 </i>
    <i name="pawpsdc">   1440.92348847 </i>
    <i name="pawaedc">  -1459.04609964 </i>
    <i name="eentropy">     -0.00380561 </i>
    <i name="bandstr">     57.03044420 </i>
    <i name="atom">   1188.62534088 </i>
    <i name="e_fr_energy">    -16.47327287 </i>
    <i name="e_wo_entrp">    -16.46946727 </i>
    <i name="e_0_energy">    -16.47200434 </i>
   </energy>
  </scstep>
  <structure>
   <crystal>
    <varray name="basis" >
     <v>       2.83290896       0.00000000       0.00000000 </v>
     <v>       0.00000000       2.83290896       0.00000000 </v>
     <v>      -0.00000000       0.00000000       2.83290896 </v>
    </varray>
    <i name="volume">     22.73515159 </i>
    <varray name="rec_basis" >
     <v>       0.35299405      -0.00000000       0.00000000 </v>
     <v>      -0.00000000       0.35299405      -0.00000000 </v>
     <v>      -0.00000000      -0.00000000       0.35299405 </v>
    </varray>
   </crystal>
   <varray name="positions" >
    <v>       0.00000000       0.00000000       0.00000000 </v>
    <v>       0.50000000       0.50000000       0.50000000 </v>
   </varray>
  </structure>
  <varray name="forces" >
   <v>      -0.00000000       0.00000000      -0.00000000 </v>
   <v>       0.00000000      -0.00000000       0.00000000 </v>
  </varray>
  <varray name="stress" >
   <v>      -0.15722554       0.00000000      -0.00000000 </v>
   <v>       0.00000000      -0.15722554      -0.00000000 </v>
   <v>       0.00000000       0.00000000      -0.15722554 </v>
  </varray>
  <energy>
   <i name="e_fr_energy">    -16.47327287 </i>
   <i name="e_wo_entrp">    -16.47200434 </i>
   <i name="e_0_energy">     -0.00380561 </i>
  </energy>
  <time name="totalsc">    1.70    2.16</time>
 </calculation>
 <calculation>
  <scstep>
   <time name="dav">    0.35    0.35</time>
   <time name="total">    0.46    0.50</time>
   <energy>
    <i name="alphaZ">    121.60436121 </i>
    <i name="ewald">  -1183.91578570 </i>
    <i name="hartreedc">   -190.33302270 </i>
    <i name="XCdc">      8.62477931 </i>
    <i name="pawpsdc">   1440.95279680 </i>
    <i name="pawaedc">  -1459.07665858 </i>
    <i name="eentropy">     -0.00380136 </i>
    <i name="bandstr">     57.04871607 </i>
    <i name="atom">   1188.62534088 </i>
    <i name="e_fr_energy">    -16.47327406 </i>
    <i name="e_wo_entrp">    -16.46947270 </i>
    <i name="e_0_energy">    -16.47200694 </i>
   </energy>
  </scstep>
  <scstep>
   <time name="dav">    0.31    0.31</time>
   <time name="total">    0.35    0.38</time>
   <energy>
    <i name="alphaZ">    121.60436121 </i>
    <i name="ewald">  -1183.91578570 </i>
    <i name="hartreedc">   -190.31732252 </i>
    <i name="XCdc">      8.62328707 </i>
    <i name="pawpsdc">   1440.97982533 </i>
    <i name="pawaedc">  -1459.10204856 </i>
    <i name="eentropy">     -0.00380457 </i>
    <i name="bandstr">     57.03287311 </i>
    <i name="atom">   1188.62534088 </i>
    <i name="e_fr_energy">    -16.47327375 </i>
    <i name="e_wo_entrp">    -16.46946917 </i>
    <i name="e_0_energy">    -16.47200556 </i>
   </energy>
  </scstep>
  <structure>
   <crystal>
    <varray name="basis" >
     <v>       2.83286027       0.00000000       0.00000000 </v>
     <v>       0.00000000       2.83286027       0.00000000 </v>
     <v>      -0.00000000       0.00000000       2.83286027 </v>
    </varray>
    <i name="volume">     22.73397938 </i>
    <varray name="rec_basis" >
     <v>       0.35300011      -0.00000000       0.00000000 </v>
     <v>      -0.00000000       0.35300011      -0.00000000 </v>
     <v>      -0.00000000      -0.00000000       0.35300011 </v>
    </varray>
   </crystal>
   <varray name="positions" >
    <v>       0.00000000       0.00000000       0.00000000 </v>
    <v>       0.50000000       0.50000000       0.50000000 </v>
   </varray>
  </structure>
  <varray name="forces" >
   <v>       0.00000000       0.00000000       0.00000000 </v>
   <v>      -0.00000000      -0.00000000      -0.00000000 </v>
  </varray>
  <varray name="stress" >
   <v>       0.93399700       0.00000000      -0.00000000 </v>
   <v>       0.00000000       0.93399700      -0.00000000 </v>
   <v>      -0.00000000       0.00000000       0.93399700 </v>
  </varray>
  <energy>
   <i name="e_fr_energy">    -16.47327375 </i>
   <i name="e_wo_entrp">    -16.47200556 </i>
   <i name="e_0_energy">     -0.00380457 </i>
  </energy>
  <time name="totalsc">    1.18    1.46</time>
 </calculation>
 <calculation>
  <scstep>
   <time name="dav">    0.34    0.34</time>
   <time name="total">    0.51    0.62</time>
   <energy>
    <i name="alphaZ">    121.59899474 </i>
    <i name="ewald">  -1183.89836982 </i>
    <i name="hartreedc">   -190.31826613 </i>
    <i name="XCdc">      8.62299341 </i>
    <i name="pawpsdc">   1441.00491607 </i>
    <i name="pawaedc">  -1459.12903716 </i>
    <i name="eentropy">     -0.00380902 </i>
    <i name="bandstr">     57.02396363 </i>
    <i name="atom">   1188.62534088 </i>
    <i name="e_fr_energy">    -16.47327338 </i>
    <i name="e_wo_entrp">    -16.46946436 </i>
    <i name="e_0_energy">    -16.47200371 </i>
   </energy>
  </scstep>
  <scstep>
   <time name="dav">    0.28    0.28</time>
   <time name="total">    0.32    0.36</time>
   <energy>
    <i name="alphaZ">    121.59899474 </i>
    <i name="ewald">  -1183.89836982 </i>
    <i name="hartreedc">   -190.33082054 </i>
    <i name="XCdc">      8.62419353 </i>
    <i name="pawpsdc">   1441.02943499 </i>
    <i name="pawaedc">  -1459.15646353 </i>
    <i name="eentropy">     -0.00380757 </i>
    <i name="bandstr">     57.03822438 </i>
    <i name="atom">   1188.62534088 </i>
    <i name="e_fr_energy">    -16.47327293 </i>
    <i name="e_wo_entrp">    -16.46946536 </i>
    <i name="e_0_energy">    -16.47200374 </i>
   </energy>
  </scstep>
  <structure>
   <crystal>
    <varray name="basis" >
     <v>       2.83290195       0.00000000       0.00000000 </v>
     <v>       0.00000000       2.83290195       0.00000000 </v>
     <v>      -0.00000000       0.00000000       2.83290195 </v>
    </varray>
    <i name="volume">     22.73498269 </i>
    <varray name="rec_basis" >
     <v>       0.35299492      -0.00000000       0.00000000 </v>
     <v>      -0.00000000       0.35299492      -0.00000000 </v>
     <v>      -0.00000000      -0.00000000       0.35299492 </v>
    </varray>
   </crystal>
   <varray name="positions" >
    <v>       0.00000000       0.00000000       0.00000000 </v>
    <v>       0.50000000       0.50000000       0.50000000 </v>
   </varray>
  </structure>
  <varray name="forces" >
   <v>       0.00000000       0.00000000       0.00000000 </v>
   <v>      -0.00000000      -0.00000000      -0.00000000 </v>
  </varray>
  <varray name="stress" >
   <v>      -2.12777283       0.00000000      -0.00000000 </v>
   <v>       0.00000000      -2.12777283      -0.00000000 </v>
   <v>       0.00000000       0.00000000      -2.12777283 </v>
  </varray>
  <energy>
   <i name="e_fr_energy">    -16.47327293 </i>
   <i name="e_wo_entrp">    -16.47200374 </i>
   <i name="e_0_energy">     -0.00380757 </i>
  </energy>
  <time name="totalsc">    1.22    1.49</time>
 </calculation>
 <calculation>
  <scstep>
   <time name="dav">    0.19    0.19</time>
   <time name="total">    0.27    0.28</time>
   <energy>
    <i name="alphaZ">    121.60272418 </i>
    <i name="ewald">  -1183.91047307 </i>
    <i name="hartreedc">   -190.32929669 </i>
    <i name="XCdc">      8.62430397 </i>
    <i name="pawpsdc">   1441.02892222 </i>
    <i name="pawaedc">  -1459.15487437 </i>
    <i name="eentropy">     -0.00380483 </i>
    <i name="bandstr">     57.04388422 </i>
    <i name="atom">   1188.62534088 </i>
    <i name="e_fr_energy">    -16.47327349 </i>
    <i name="e_wo_entrp">    -16.46946866 </i>
    <i name="e_0_energy">    -16.47200521 </i>
   </energy>
  </scstep>
  <scstep>
   <time name="dav">    0.19    0.19</time>
   <time name="total">    0.24    0.29</time>
   <energy>
    <i name="alphaZ">    121.60272418 </i>
    <i name="ewald">  -1183.91047307 </i>
    <i name="hartreedc">   -190.32021175 </i>
    <i name="XCdc">      8.62342768 </i>
    <i name="pawpsdc">   1441.03348419 </i>
    <i name="pawaedc">  -1459.15775146 </i>
    <i name="eentropy">     -0.00380616 </i>
    <i name="bandstr">     57.03399209 </i>
    <i name="atom">   1188.62534088 </i>
    <i name="e_fr_energy">    -16.47327343 </i>
    <i name="e_wo_entrp">    -16.46946726 </i>
    <i name="e_0_energy">    -16.47200470 </i>
   </energy>
  </scstep>
  <structure>
   <crystal>
    <varray name="basis" >
     <v>       2.83287298       0.00000000       0.00000000 </v>
     <v>       0.00000000       2.83287298       0.00000000 </v>
     <v>      -0.00000000       0.00000000       2.83287298 </v>
    </varray>
    <i name="volume">     22.73428543 </i>
    <varray name="rec_basis" >
     <v>       0.35299853      -0.00000000       0.00000000 </v>
     <v>      -0.00000000       0.35299853      -0.00000000 </v>
     <v>      -0.00000000      -0.00000000       0.35299853 </v>
    </varray>
   </crystal>
   <varray name="positions" >
    <v>       0.00000000       0.00000000       0.00000000 </v>
    <v>       0.50000000       0.50000000       0.50000000 </v>
   </varray>
  </structure>
  <varray name="forces" >
   <v>      -0.00000000       0.00000000      -0.00000000 </v>
   <v>       0.00000000      -0.00000000       0.00000000 </v>
  </varray>
  <varray name="stress" >
   <v>       0.12041232       0.00000000       0.00000000 </v>
   <v>       0.00000000       0.12041232       0.00000000 </v>
   <v>       0.00000000       0.00000000       0.12041232 </v>
  </varray>
  <energy>
   <i name="e_fr_energy">    -16.47327343 </i>
   <i name="e_wo_entrp">    -16.47200470 </i>
   <i name="e_0_energy">     -0.00380616 </i>
  </energy>
  <time name="totalsc">    1.15    1.78</time>
  <eigenvalues>
   <array>
    <dimension dim="1">band</dimension>
    <dimension dim="2">kpoint</dimension>
    <dimension dim="3">spin</dimension>
    <field>eigene</field>
    <field>occ</field>
    <set>
     <set comment="spin 1">
      <set comment="kpoint 1">
       <r>   -2.3814    1.0000 </r>
       <r>    1.0917    1.0000 </r>
       <r>    1.0917    1.0000 </r>
       <r>    3.4576    1.0000 </r>
       <r>    3.4576    1.0000 </r>
       <r>    3.6576    1.0000 </r>
       <r>    4.7257    1.0000 </r>
       <r>    4.7257    1.0000 </r>
       <r>    5.5639    1.0351 </r>
       <r>    5.8603    0.3290 </r>
       <r>    5.8603    0.3290 </r>
       <r>   15.3066    0.0000 </r>
       <r>   15.3066    0.0000 </r>
       <r>   15.6917    0.0000 </r>
       <r>   22.2319    0.0000 </r>
       <r>   22.2319    0.0000 </r>
      </set>
      <set comment="kpoint 2">
       <r>   -1.7585    1.0000 </r>
       <r>    1.3480    1.0000 </r>
       <r>    1.3506    1.0000 </r>
       <r>    3.3725    1.0000 </r>
       <r>    3.4353    1.0000 </r>
       <r>    3.9209    1.0000 </r>
       <r>    4.4830    1.0000 </r>
       <r>    4.8445    1.0000 </r>
       <r>    4.9992    1.0000 </r>
       <r>    5.3969    1.0055 </r>
       <r>    5.8262    0.4691 </r>
       <r>   12.4444    0.0000 </r>
       <r>   16.3660    0.0000 </r>
       <r>   16.6445    0.0000 </r>
       <r>   22.5158    0.0000 </r>
       <r>   23.9803    0.0000 </r>
      </set>
      <set comment="kpoint 3">
       <r>   -0.6265    1.0000 </r>
       <r>    1.6526    1.0000 </r>
       <r>    1.8314    1.0000 </r>
       <r>    3.3906    1.0000 </r>
       <r>    3.4028    1.0000 </r>
       <r>    4.0881    1.0000 </r>
       <r>    4.2899    1.0000 </r>
       <r>    4.3728    1.0000 </r>
       <r>    4.7674    1.0000 </r>
       <r>    5.0694    1.0000 </r>
       <r>    5.5559    1.0343 </r>
       <r>    9.3649   -0.0000 </r>
       <r>   18.1262    0.0000 </r>
       <r>   18.4164    0.0000 </r>
       <r>   23.1607    0.0000 </r>
       <r>   24.5378    0.0000 </r>
      </set>
      <set comment="kpoint 4">
       <r>    0.6906    1.0000 </r>
       <r>    1.5633    1.0000 </r>
       <r>    2.4559    1.0000 </r>
       <r>    3.0799    1.0000 </r>
       <r>    3.5910    1.0000 </r>
       <r>    3.8998    1.0000 </r>
       <r>    3.9349    1.0000 </r>
       <r>    4.2295    1.0000 </r>
       <r>    4.7215    1.0000 </r>
       <r>    5.1556    1.0000 </r>
       <r>    5.5749    1.0355 </r>
       <r>    6.9314   -0.0000 </r>
       <r>   20.1994    0.0000 </r>
       <r>   20.6447    0.0000 </r>
       <r>   22.3273    0.0000 </r>
       <r>   23.1727    0.0000 </r>
      </set>
      <set comment="kpoint 5">
       <r>   -1.1778    1.0000 </r>
       <r>    1.5147    1.0000 </r>
       <r>    1.6569    1.0000 </r>
       <r>    3.1407    1.0000 </r>
       <r>    3.3329    1.0000 </r>
       <r>    4.3369    1.0000 </r>
       <r>    4.3471    1.0000 </r>
       <r>    4.5727    1.0000 </r>
       <r>    4.7805    1.0000 </r>
       <r>    5.0908    1.0000 </r>
       <r>    5.9308    0.0990 </r>
       <r>   12.5729    0.0000 </r>
       <r>   14.1772    0.0000 </r>
       <r>   17.4030    0.0000 </r>
       <r>   23.4072    0.0000 </r>
       <r>   24.5786    0.0000 </r>
      </set>
      <set comment="kpoint 6">
       <r>   -0.1660    1.0000 </r>
       <r>    1.7057    1.0000 </r>
       <r>    2.1317    1.0000 </r>
       <r>    3.0103    1.0000 </r>
       <r>    3.2687    1.0000 </r>
       <r>    3.7533    1.0000 </r>
       <r>    4.4261    1.0000 </r>
       <r>    4.6168    1.0000 </r>
       <r>    4.8185    1.0000 </r>
       <r>    4.9796    1.0000 </r>
       <r>    5.8519    0.3624 </r>
       <r>    9.9081   -0.0000 </r>
       <r>   15.1836    0.0000 </r>
       <r>   18.9505    0.0000 </r>
       <r>   21.7601    0.0000 </r>
       <r>   24.0534    0.0000 </r>
      </set>
      <set comment="kpoint 7">
       <r>    0.9025    1.0000 </r>
       <r>    1.5744    1.0000 </r>
       <r>    2.6159    1.0000 </r>
       <r>    2.9530    1.0000 </r>
       <r>    3.2259    1.0000 </r>
       <r>    3.3820    1.0000 </r>
       <r>    4.3587    1.0000 </r>
       <r>    4.3866    1.0000 </r>
       <r>    5.1653    1.0000 </r>
       <r>    5.5571    1.0345 </r>
       <r>    5.6996    0.9183 </r>
       <r>    7.3392   -0.0000 </r>
       <r>   17.0285    0.0000 </r>
       <r>   19.2277    0.0000 </r>
       <r>   20.9300    0.0000 </r>
       <r>   23.1545    0.0000 </r>
      </set>
      <set comment="kpoint 8">
       <r>    0.4876    1.0000 </r>
       <r>    1.5593    1.0000 </r>
       <r>    2.7288    1.0000 </r>
       <r>    2.7730    1.0000 </r>
       <r>    3.1995    1.0000 </r>
       <r>    3.5242    1.0000 </r>
       <r>    4.4769    1.0000 </r>
       <r>    4.6761    1.0000 </r>
       <r>    4.8638    1.0000 </r>
       <r>    5.4187    1.0080 </r>
       <r>    6.0093   -0.0194 </r>
       <r>    9.7119   -0.0000 </r>
       <r>   13.4259    0.0000 </r>
       <r>   18.7952    0.0000 </r>
       <r>   20.1724    0.0000 </r>
       <r>   24.5552    0.0000 </r>
      </set>
      <set comment="kpoint 9">
       <r>    0.9734    1.0000 </r>
       <r>    1.2984    1.0000 </r>
       <r>    2.6521    1.0000 </r>
       <r>    2.8095    1.0000 </r>
       <r>    3.4385    1.0000 </r>
       <r>    3.8258    1.0000 </r>
       <r>    4.5768    1.0000 </r>
       <r>    4.7155    1.0000 </r>
       <r>    5.2744    1.0004 </r>
       <r>    5.8683    0.2979 </r>
       <r>    6.1132   -0.0289 </r>
       <r>    7.7403   -0.0000 </r>
       <r>   14.3175    0.0000 </r>
       <r>   16.2699    0.0000 </r>
       <r>   21.8083    0.0000 </r>
       <r>   23.6520    0.0000 </r>
      </set>
      <set comment="kpoint 10">
       <r>    0.9501    1.0000 </r>
       <r>    1.0450    1.0000 </r>
       <r>    2.4554    1.0000 </r>
       <r>    2.5132    1.0000 </r>
       <r>    4.3374    1.0000 </r>
       <r>    4.7427    1.0000 </r>
       <r>    4.7635    1.0000 </r>
       <r>    4.9345    1.0000 </r>
       <r>    5.2179    1.0001 </r>
       <r>    5.8518    0.3627 </r>
       <r>    6.6524   -0.0000 </r>
       <r>    7.4493   -0.0000 </r>
       <r>   13.1915    0.0000 </r>
       <r>   14.0796    0.0000 </r>
       <r>   22.9479    0.0000 </r>
       <r>   23.8253    0.0000 </r>
      </set>
      <set comment="kpoint 11">
       <r>   -0.6175    1.0000 </r>
       <r>    1.8182    1.0000 </r>
       <r>    1.8182    1.0000 </r>
       <r>    3.0354    1.0000 </r>
       <r>    3.0354    1.0000 </r>
       <r>    3.6483    1.0000 </r>
       <r>    4.7005    1.0000 </r>
       <r>    4.7005    1.0000 </r>
       <r>    4.8424    1.0000 </r>
       <r>    5.4797    1.0187 </r>
       <r>    5.4797    1.0187 </r>
       <r>   13.5439    0.0000 </r>
       <r>   13.5439    0.0000 </r>
       <r>   15.4321    0.0000 </r>
       <r>   24.4759    0.0000 </r>
       <r>   24.4759    0.0000 </r>
      </set>
      <set comment="kpoint 12">
       <r>    0.3265    1.0000 </r>
       <r>    2.0952    1.0000 </r>
       <r>    2.1093    1.0000 </r>
       <r>    2.8688    1.0000 </r>
       <r>    2.9274    1.0000 </r>
       <r>    3.1738    1.0000 </r>
       <r>    4.5685    1.0000 </r>
       <r>    4.8976    1.0000 </r>
       <r>    4.9372    1.0000 </r>
       <r>    5.4840    1.0197 </r>
       <r>    5.5665    1.0353 </r>
       <r>   10.6613   -0.0000 </r>
       <r>   15.1242    0.0000 </r>
       <r>   16.2688    0.0000 </r>
       <r>   21.7005    0.0000 </r>
       <r>   22.6647    0.0000 </r>
      </set>
      <set comment="kpoint 13">
       <r>    1.2403    1.0000 </r>
       <r>    1.8437    1.0000 </r>
       <r>    2.4045    1.0000 </r>
       <r>    2.6658    1.0000 </r>
       <r>    3.1282    1.0000 </r>
       <r>    3.2257    1.0000 </r>
       <r>    4.4770    1.0000 </r>
       <r>    4.5736    1.0000 </r>
       <r>    5.1137    1.0000 </r>
       <r>    5.3846    1.0044 </r>
       <r>    6.4107   -0.0001 </r>
       <r>    8.0979   -0.0000 </r>
       <r>   17.0508    0.0000 </r>
       <r>   17.8937    0.0000 </r>
       <r>   19.2372    0.0000 </r>
       <r>   20.0730    0.0000 </r>
      </set>
      <set comment="kpoint 14">
       <r>    1.0147    1.0000 </r>
       <r>    1.9419    1.0000 </r>
       <r>    2.6341    1.0000 </r>
       <r>    2.7338    1.0000 </r>
       <r>    2.7564    1.0000 </r>
       <r>    2.9488    1.0000 </r>
       <r>    4.7332    1.0000 </r>
       <r>    4.8299    1.0000 </r>
       <r>    4.8647    1.0000 </r>
       <r>    5.5087    1.0253 </r>
       <r>    6.2588   -0.0040 </r>
       <r>   10.8668   -0.0000 </r>
       <r>   13.5001    0.0000 </r>
       <r>   16.8943    0.0000 </r>
       <r>   19.1439    0.0000 </r>
       <r>   22.4309    0.0000 </r>
      </set>
      <set comment="kpoint 15">
       <r>    1.4221    1.0000 </r>
       <r>    1.6725    1.0000 </r>
       <r>    2.5383    1.0000 </r>
       <r>    2.5739    1.0000 </r>
       <r>    3.2872    1.0000 </r>
       <r>    3.3337    1.0000 </r>
       <r>    4.7262    1.0000 </r>
       <r>    4.7292    1.0000 </r>
       <r>    5.0344    1.0000 </r>
       <r>    5.3464    1.0021 </r>
       <r>    7.2775   -0.0000 </r>
       <r>    8.9459   -0.0000 </r>
       <r>   14.5628    0.0000 </r>
       <r>   16.6005    0.0000 </r>
       <r>   18.4318    0.0000 </r>
       <r>   20.4895    0.0000 </r>
      </set>
      <set comment="kpoint 16">
       <r>    1.3787    1.0000 </r>
       <r>    1.4401    1.0000 </r>
       <r>    2.4022    1.0000 </r>
       <r>    2.4394    1.0000 </r>
       <r>    3.9250    1.0000 </r>
       <r>    4.0459    1.0000 </r>
       <r>    4.8281    1.0000 </r>
       <r>    4.8505    1.0000 </r>
       <r>    4.9450    1.0000 </r>
       <r>    5.1839    1.0000 </r>
       <r>    8.2358   -0.0000 </r>
       <r>    9.1179   -0.0000 </r>
       <r>   13.3001    0.0000 </r>
       <r>   14.3120    0.0000 </r>
       <r>   19.8207    0.0000 </r>
       <r>   21.2952    0.0000 </r>
      </set>
      <set comment="kpoint 17">
       <r>    1.8191    1.0000 </r>
       <r>    2.2259    1.0000 </r>
       <r>    2.5182    1.0000 </r>
       <r>    2.5182    1.0000 </r>
       <r>    2.6381    1.0000 </r>
       <r>    2.6381    1.0000 </r>
       <r>    4.8548    1.0000 </r>
       <r>    4.8548    1.0000 </r>
       <r>    5.0776    1.0000 </r>
       <r>    5.0776    1.0000 </r>
       <r>    7.2874   -0.0000 </r>
       <r>   12.6011    0.0000 </r>
       <r>   12.6011    0.0000 </r>
       <r>   15.2583    0.0000 </r>
       <r>   19.6135    0.0000 </r>
       <r>   19.6135    0.0000 </r>
      </set>
      <set comment="kpoint 18">
       <r>    1.9813    1.0000 </r>
       <r>    2.0039    1.0000 </r>
       <r>    2.4675    1.0000 </r>
       <r>    2.5210    1.0000 </r>
       <r>    2.8996    1.0000 </r>
       <r>    3.0558    1.0000 </r>
       <r>    4.8423    1.0000 </r>
       <r>    4.8818    1.0000 </r>
       <r>    4.9770    1.0000 </r>
       <r>    5.0932    1.0000 </r>
       <r>    8.5511   -0.0000 </r>
       <r>   10.3620   -0.0000 </r>
       <r>   14.6723    0.0000 </r>
       <r>   16.0837    0.0000 </r>
       <r>   17.0156    0.0000 </r>
       <r>   17.8884    0.0000 </r>
      </set>
      <set comment="kpoint 19">
       <r>    1.9872    1.0000 </r>
       <r>    2.0433    1.0000 </r>
       <r>    2.3660    1.0000 </r>
       <r>    2.4484    1.0000 </r>
       <r>    3.2003    1.0000 </r>
       <r>    3.2561    1.0000 </r>
       <r>    4.9213    1.0000 </r>
       <r>    4.9284    1.0000 </r>
       <r>    4.9587    1.0000 </r>
       <r>    5.0078    1.0000 </r>
       <r>    9.9299   -0.0000 </r>
       <r>   11.1231   -0.0000 </r>
       <r>   13.5705    0.0000 </r>
       <r>   14.9225    0.0000 </r>
       <r>   16.9374    0.0000 </r>
       <r>   18.5115    0.0000 </r>
      </set>
      <set comment="kpoint 20">
       <r>    2.2505    1.0000 </r>
       <r>    2.4475    1.0000 </r>
       <r>    2.4475    1.0000 </r>
       <r>    2.7325    1.0000 </r>
       <r>    2.7325    1.0000 </r>
       <r>    2.7857    1.0000 </r>
       <r>    4.9683    1.0000 </r>
       <r>    4.9683    1.0000 </r>
       <r>    4.9758    1.0000 </r>
       <r>    4.9758    1.0000 </r>
       <r>   11.6855    0.0000 </r>
       <r>   13.3775    0.0000 </r>
       <r>   13.3775    0.0000 </r>
       <r>   15.4085    0.0000 </r>
       <r>   15.8499    0.0000 </r>
       <r>   15.8499    0.0000 </r>
      </set>
     </set>
     <set comment="spin 2">
      <set comment="kpoint 1">
       <r>   -2.1882    1.0000 </r>
       <r>    2.9185    1.0000 </r>
       <r>    2.9185    1.0000 </r>
       <r>    5.3877    1.0047 </r>
       <r>    5.3877    1.0047 </r>
       <r>    5.6132    1.0278 </r>
       <r>    7.4449   -0.0000 </r>
       <r>    7.4449   -0.0000 </r>
       <r>    7.6972   -0.0000 </r>
       <r>    8.0687   -0.0000 </r>
       <r>    8.0687   -0.0000 </r>
       <r>   15.7569    0.0000 </r>
       <r>   15.7569    0.0000 </r>
       <r>   16.0969    0.0000 </r>
       <r>   23.1140    0.0000 </r>
       <r>   23.1140    0.0000 </r>
      </set>
      <set comment="kpoint 2">
       <r>   -1.5579    1.0000 </r>
       <r>    3.1010    1.0000 </r>
       <r>    3.2241    1.0000 </r>
       <r>    5.2752    1.0004 </r>
       <r>    5.3467    1.0021 </r>
       <r>    5.8987    0.1902 </r>
       <r>    7.0073   -0.0000 </r>
       <r>    7.1213   -0.0000 </r>
       <r>    7.4840   -0.0000 </r>
       <r>    7.5895   -0.0000 </r>
       <r>    8.0349   -0.0000 </r>
       <r>   13.2454    0.0000 </r>
       <r>   16.9528    0.0000 </r>
       <r>   17.1677    0.0000 </r>
       <r>   23.3364    0.0000 </r>
       <r>   24.6598    0.0000 </r>
      </set>
      <set comment="kpoint 3">
       <r>   -0.3840    1.0000 </r>
       <r>    3.1389    1.0000 </r>
       <r>    3.7937    1.0000 </r>
       <r>    5.2698    1.0004 </r>
       <r>    5.3053    1.0009 </r>
       <r>    6.2951   -0.0019 </r>
       <r>    6.3017   -0.0017 </r>
       <r>    6.5529   -0.0000 </r>
       <r>    6.7505   -0.0000 </r>
       <r>    7.7292   -0.0000 </r>
       <r>    7.8181   -0.0000 </r>
       <r>   10.6263   -0.0000 </r>
       <r>   18.8429    0.0000 </r>
       <r>   19.0444    0.0000 </r>
       <r>   23.8653    0.0000 </r>
       <r>   24.9782    0.0000 </r>
      </set>
      <set comment="kpoint 4">
       <r>    1.1166    1.0000 </r>
       <r>    2.4867    1.0000 </r>
       <r>    4.5260    1.0000 </r>
       <r>    5.1508    1.0000 </r>
       <r>    5.4371    1.0106 </r>
       <r>    5.7825    0.6512 </r>
       <r>    6.0517   -0.0348 </r>
       <r>    6.1879   -0.0128 </r>
       <r>    6.7903   -0.0000 </r>
       <r>    7.2874   -0.0000 </r>
       <r>    8.1353   -0.0000 </r>
       <r>    8.8847   -0.0000 </r>
       <r>   20.9586    0.0000 </r>
       <r>   21.3104    0.0000 </r>
       <r>   22.9817    0.0000 </r>
       <r>   23.8000    0.0000 </r>
      </set>
      <set comment="kpoint 5">
       <r>   -0.9609    1.0000 </r>
       <r>    3.3350    1.0000 </r>
       <r>    3.4271    1.0000 </r>
       <r>    5.0077    1.0000 </r>
       <r>    5.2070    1.0001 </r>
       <r>    6.2475   -0.0049 </r>
       <r>    6.3501   -0.0006 </r>
       <r>    7.1368   -0.0000 </r>
       <r>    7.1976   -0.0000 </r>
       <r>    7.5102   -0.0000 </r>
       <r>    8.1534   -0.0000 </r>
       <r>   13.4460    0.0000 </r>
       <r>   15.0713    0.0000 </r>
       <r>   17.9990    0.0000 </r>
       <r>   24.0982    0.0000 </r>
       <r>   25.0414    0.0000 </r>
      </set>
      <set comment="kpoint 6">
       <r>    0.1307    1.0000 </r>
       <r>    3.3037    1.0000 </r>
       <r>    3.9139    1.0000 </r>
       <r>    4.8429    1.0000 </r>
       <r>    5.0723    1.0000 </r>
       <r>    5.6076    1.0300 </r>
       <r>    6.6715   -0.0000 </r>
       <r>    6.8717   -0.0000 </r>
       <r>    6.9408   -0.0000 </r>
       <r>    7.7081   -0.0000 </r>
       <r>    8.0674   -0.0000 </r>
       <r>   11.1395   -0.0000 </r>
       <r>   16.1383    0.0000 </r>
       <r>   19.6047    0.0000 </r>
       <r>   22.4141    0.0000 </r>
       <r>   24.6289    0.0000 </r>
      </set>
      <set comment="kpoint 7">
       <r>    1.4734    1.0000 </r>
       <r>    2.6614    1.0000 </r>
       <r>    4.4525    1.0000 </r>
       <r>    4.7968    1.0000 </r>
       <r>    4.9886    1.0000 </r>
       <r>    5.1967    1.0000 </r>
       <r>    6.5443   -0.0000 </r>
       <r>    6.6380   -0.0000 </r>
       <r>    7.3928   -0.0000 </r>
       <r>    7.7690   -0.0000 </r>
       <r>    8.1013   -0.0000 </r>
       <r>    9.1386   -0.0000 </r>
       <r>   17.9413    0.0000 </r>
       <r>   20.0341    0.0000 </r>
       <r>   21.5874    0.0000 </r>
       <r>   23.7134    0.0000 </r>
      </set>
      <set comment="kpoint 8">
       <r>    0.9989    1.0000 </r>
       <r>    3.0985    1.0000 </r>
       <r>    4.4395    1.0000 </r>
       <r>    4.5160    1.0000 </r>
       <r>    5.0007    1.0000 </r>
       <r>    5.0161    1.0000 </r>
       <r>    6.6884   -0.0000 </r>
       <r>    7.2084   -0.0000 </r>
       <r>    7.5080   -0.0000 </r>
       <r>    7.6217   -0.0000 </r>
       <r>    8.2545   -0.0000 </r>
       <r>   10.8820   -0.0000 </r>
       <r>   14.6597    0.0000 </r>
       <r>   19.6240    0.0000 </r>
       <r>   20.8077    0.0000 </r>
       <r>   25.0102    0.0000 </r>
      </set>
      <set comment="kpoint 9">
       <r>    1.9026    1.0000 </r>
       <r>    2.6016    1.0000 </r>
       <r>    4.4158    1.0000 </r>
       <r>    4.5736    1.0000 </r>
       <r>    5.0186    1.0000 </r>
       <r>    5.1678    1.0000 </r>
       <r>    6.9424   -0.0000 </r>
       <r>    7.1417   -0.0000 </r>
       <r>    7.7916   -0.0000 </r>
       <r>    8.1233   -0.0000 </r>
       <r>    8.1722   -0.0000 </r>
       <r>    9.2931   -0.0000 </r>
       <r>   15.4906    0.0000 </r>
       <r>   17.2737    0.0000 </r>
       <r>   22.3685    0.0000 </r>
       <r>   24.0295    0.0000 </r>
      </set>
      <set comment="kpoint 10">
       <r>    2.1623    1.0000 </r>
       <r>    2.3697    1.0000 </r>
       <r>    4.1925    1.0000 </r>
       <r>    4.2511    1.0000 </r>
       <r>    5.8259    0.4705 </r>
       <r>    5.9074    0.1630 </r>
       <r>    7.2426   -0.0000 </r>
       <r>    7.3430   -0.0000 </r>
       <r>    7.7228   -0.0000 </r>
       <r>    8.0589   -0.0000 </r>
       <r>    8.5344   -0.0000 </r>
       <r>    8.9306   -0.0000 </r>
       <r>   14.5666    0.0000 </r>
       <r>   15.3218    0.0000 </r>
       <r>   23.3131    0.0000 </r>
       <r>   24.0049    0.0000 </r>
      </set>
      <set comment="kpoint 11">
       <r>   -0.3843    1.0000 </r>
       <r>    3.6047    1.0000 </r>
       <r>    3.6047    1.0000 </r>
       <r>    4.8758    1.0000 </r>
       <r>    4.8758    1.0000 </r>
       <r>    5.4115    1.0071 </r>
       <r>    6.8641   -0.0000 </r>
       <r>    7.3790   -0.0000 </r>
       <r>    7.3790   -0.0000 </r>
       <r>    7.6336   -0.0000 </r>
       <r>    7.6336   -0.0000 </r>
       <r>   14.4978    0.0000 </r>
       <r>   14.4978    0.0000 </r>
       <r>   16.2290    0.0000 </r>
       <r>   24.9026    0.0000 </r>
       <r>   24.9026    0.0000 </r>
      </set>
      <set comment="kpoint 12">
       <r>    0.6521    1.0000 </r>
       <r>    3.6455    1.0000 </r>
       <r>    3.8993    1.0000 </r>
       <r>    4.6752    1.0000 </r>
       <r>    4.6867    1.0000 </r>
       <r>    4.9355    1.0000 </r>
       <r>    7.0922   -0.0000 </r>
       <r>    7.1432   -0.0000 </r>
       <r>    7.4690   -0.0000 </r>
       <r>    7.6658   -0.0000 </r>
       <r>    7.7901   -0.0000 </r>
       <r>   11.9033    0.0000 </r>
       <r>   16.1038    0.0000 </r>
       <r>   17.0732    0.0000 </r>
       <r>   22.3139    0.0000 </r>
       <r>   23.2433    0.0000 </r>
      </set>
      <set comment="kpoint 13">
       <r>    1.8823    1.0000 </r>
       <r>    2.9561    1.0000 </r>
       <r>    4.2070    1.0000 </r>
       <r>    4.4579    1.0000 </r>
       <r>    4.7682    1.0000 </r>
       <r>    4.9326    1.0000 </r>
       <r>    6.8324   -0.0000 </r>
       <r>    6.9002   -0.0000 </r>
       <r>    7.6910   -0.0000 </r>
       <r>    7.7430   -0.0000 </r>
       <r>    8.4286   -0.0000 </r>
       <r>    9.7715   -0.0000 </r>
       <r>   17.9690    0.0000 </r>
       <r>   18.6487    0.0000 </r>
       <r>   20.0228    0.0000 </r>
       <r>   20.7573    0.0000 </r>
      </set>
      <set comment="kpoint 14">
       <r>    1.5221    1.0000 </r>
       <r>    3.4906    1.0000 </r>
       <r>    4.3514    1.0000 </r>
       <r>    4.3774    1.0000 </r>
       <r>    4.4790    1.0000 </r>
       <r>    4.5532    1.0000 </r>
       <r>    7.1232   -0.0000 </r>
       <r>    7.3441   -0.0000 </r>
       <r>    7.6075   -0.0000 </r>
       <r>    7.7989   -0.0000 </r>
       <r>    8.2273   -0.0000 </r>
       <r>   12.0477    0.0000 </r>
       <r>   14.6701    0.0000 </r>
       <r>   17.6870    0.0000 </r>
       <r>   19.9111    0.0000 </r>
       <r>   22.9109    0.0000 </r>
      </set>
      <set comment="kpoint 15">
       <r>    2.3811    1.0000 </r>
       <r>    3.0045    1.0000 </r>
       <r>    4.2461    1.0000 </r>
       <r>    4.2648    1.0000 </r>
       <r>    4.6840    1.0000 </r>
       <r>    4.7709    1.0000 </r>
       <r>    7.1618   -0.0000 </r>
       <r>    7.2668   -0.0000 </r>
       <r>    7.7343   -0.0000 </r>
       <r>    7.7960   -0.0000 </r>
       <r>    9.0827   -0.0000 </r>
       <r>   10.4128   -0.0000 </r>
       <r>   15.6521    0.0000 </r>
       <r>   17.5284    0.0000 </r>
       <r>   19.1457    0.0000 </r>
       <r>   21.1036    0.0000 </r>
      </set>
      <set comment="kpoint 16">
       <r>    2.6272    1.0000 </r>
       <r>    2.7955    1.0000 </r>
       <r>    4.0853    1.0000 </r>
       <r>    4.1181    1.0000 </r>
       <r>    5.1365    1.0000 </r>
       <r>    5.2066    1.0001 </r>
       <r>    7.3843   -0.0000 </r>
       <r>    7.4436   -0.0000 </r>
       <r>    7.7346   -0.0000 </r>
       <r>    7.7876   -0.0000 </r>
       <r>    9.7592   -0.0000 </r>
       <r>   10.4082   -0.0000 </r>
       <r>   14.5937    0.0000 </r>
       <r>   15.4598    0.0000 </r>
       <r>   20.4238    0.0000 </r>
       <r>   21.7653    0.0000 </r>
      </set>
      <set comment="kpoint 17">
       <r>    2.3750    1.0000 </r>
       <r>    3.7900    1.0000 </r>
       <r>    4.1917    1.0000 </r>
       <r>    4.1917    1.0000 </r>
       <r>    4.2022    1.0000 </r>
       <r>    4.2022    1.0000 </r>
       <r>    7.5024   -0.0000 </r>
       <r>    7.5024   -0.0000 </r>
       <r>    7.5631   -0.0000 </r>
       <r>    7.5631   -0.0000 </r>
       <r>    9.1313   -0.0000 </r>
       <r>   13.7102    0.0000 </r>
       <r>   13.7102    0.0000 </r>
       <r>   16.1917    0.0000 </r>
       <r>   20.2876    0.0000 </r>
       <r>   20.2876    0.0000 </r>
      </set>
      <set comment="kpoint 18">
       <r>    3.0750    1.0000 </r>
       <r>    3.4323    1.0000 </r>
       <r>    4.0706    1.0000 </r>
       <r>    4.0793    1.0000 </r>
       <r>    4.2646    1.0000 </r>
       <r>    4.4625    1.0000 </r>
       <r>    7.4366   -0.0000 </r>
       <r>    7.4903   -0.0000 </r>
       <r>    7.7017   -0.0000 </r>
       <r>    7.7229   -0.0000 </r>
       <r>   10.1683   -0.0000 </r>
       <r>   11.6802    0.0000 </r>
       <r>   15.6615    0.0000 </r>
       <r>   16.9370    0.0000 </r>
       <r>   17.8572    0.0000 </r>
       <r>   18.6392    0.0000 </r>
      </set>
      <set comment="kpoint 19">
       <r>    3.3652    1.0000 </r>
       <r>    3.4136    1.0000 </r>
       <r>    3.9592    1.0000 </r>
       <r>    3.9998    1.0000 </r>
       <r>    4.4280    1.0000 </r>
       <r>    4.5556    1.0000 </r>
       <r>    7.5884   -0.0000 </r>
       <r>    7.6143   -0.0000 </r>
       <r>    7.7407   -0.0000 </r>
       <r>    7.7484   -0.0000 </r>
       <r>   11.2871    0.0000 </r>
       <r>   12.2622    0.0000 </r>
       <r>   14.7075    0.0000 </r>
       <r>   15.9084    0.0000 </r>
       <r>   17.7106    0.0000 </r>
       <r>   19.1979    0.0000 </r>
      </set>
      <set comment="kpoint 20">
       <r>    3.7387    1.0000 </r>
       <r>    3.9369    1.0000 </r>
       <r>    3.9369    1.0000 </r>
       <r>    4.0221    1.0000 </r>
       <r>    4.1199    1.0000 </r>
       <r>    4.1199    1.0000 </r>
       <r>    7.7458   -0.0000 </r>
       <r>    7.7458   -0.0000 </r>
       <r>    7.7530   -0.0000 </r>
       <r>    7.7530   -0.0000 </r>
       <r>   12.8565    0.0000 </r>
       <r>   14.3797    0.0000 </r>
       <r>   14.3797    0.0000 </r>
       <r>   16.3065    0.0000 </r>
       <r>   16.7068    0.0000 </r>
       <r>   16.7068    0.0000 </r>
      </set>
     </set>
    </set>
   </array>
  </eigenvalues>
  <separator name="orbital magnetization" >
   <v name="MAGDIPOLOUT">      0.00000000      0.00000000      0.00000000</v>
  </separator>
  <dos>
   <i name="efermi">      5.81889707 </i>
   <total>
    <array>
     <dimension dim="1">gridpoints</dimension>
     <dimension dim="2">spin</dimension>
     <field>energy</field>
     <field>total</field>
     <field>integrated</field>
     <set>
      <set comment="spin 1">
       <r>    -4.3814     0.0000     0.0000 </r>
       <r>    -4.2767     0.0000     0.0000 </r>
       <r>    -4.1719     0.0000     0.0000 </r>
       <r>    -4.0672    -0.0000    -0.0000 </r>
       <r>    -3.9624    -0.0000    -0.0000 </r>
       <r>    -3.8577    -0.0000    -0.0000 </r>
       <r>    -3.7530    -0.0000    -0.0000 </r>
       <r>    -3.6482    -0.0000    -0.0000 </r>
       <r>    -3.5435    -0.0000    -0.0000 </r>
       <r>    -3.4387    -0.0000    -0.0000 </r>
       <r>    -3.3340    -0.0000    -0.0000 </r>
       <r>    -3.2292    -0.0000    -0.0000 </r>
       <r>    -3.1245    -0.0000    -0.0000 </r>
       <r>    -3.0198    -0.0000    -0.0000 </r>
       <r>    -2.9150    -0.0001    -0.0000 </r>
       <r>    -2.8103    -0.0006    -0.0001 </r>
       <r>    -2.7055    -0.0026    -0.0003 </r>
       <r>    -2.6008    -0.0015    -0.0005 </r>
       <r>    -2.4960     0.0186     0.0014 </r>
       <r>    -2.3913     0.0546     0.0072 </r>
       <r>    -2.2866     0.0590     0.0133 </r>
       <r>    -2.1818     0.0231     0.0158 </r>
       <r>    -2.0771    -0.0078     0.0149 </r>
       <r>    -1.9723    -0.0063     0.0143 </r>
       <r>    -1.8676     0.0603     0.0206 </r>
       <r>    -1.7628     0.1679     0.0382 </r>
       <r>    -1.6581     0.1736     0.0564 </r>
       <r>    -1.5534     0.0656     0.0632 </r>
       <r>    -1.4486    -0.0107     0.0621 </r>
       <r>    -1.3439     0.0075     0.0629 </r>
       <r>    -1.2391     0.1098     0.0744 </r>
       <r>    -1.1344     0.1896     0.0943 </r>
       <r>    -1.0296     0.1278     0.1077 </r>
       <r>    -0.9249     0.0157     0.1093 </r>
       <r>    -0.8202    -0.0063     0.1086 </r>
       <r>    -0.7154     0.1004     0.1192 </r>
       <r>    -0.6107     0.2358     0.1439 </r>
       <r>    -0.5059     0.2006     0.1649 </r>
       <r>    -0.4012     0.0552     0.1707 </r>
       <r>    -0.2964     0.0762     0.1786 </r>
       <r>    -0.1917     0.2890     0.2089 </r>
       <r>    -0.0870     0.3664     0.2473 </r>
       <r>     0.0178     0.1756     0.2657 </r>
       <r>     0.1225     0.0081     0.2665 </r>
       <r>     0.2273     0.0417     0.2709 </r>
       <r>     0.3320     0.1851     0.2903 </r>
       <r>     0.4368     0.2780     0.3194 </r>
       <r>     0.5415     0.2597     0.3466 </r>
       <r>     0.6462     0.1960     0.3671 </r>
       <r>     0.7510     0.2199     0.3902 </r>
       <r>     0.8557     0.5516     0.4480 </r>
       <r>     0.9605     1.0916     0.5623 </r>
       <r>     1.0652     1.1680     0.6846 </r>
       <r>     1.1700     0.8032     0.7687 </r>
       <r>     1.2747     0.8725     0.8601 </r>
       <r>     1.3794     1.3900     1.0057 </r>
       <r>     1.4842     1.7222     1.1861 </r>
       <r>     1.5889     1.8706     1.3821 </r>
       <r>     1.6937     1.8559     1.5765 </r>
       <r>     1.7984     1.5011     1.7337 </r>
       <r>     1.9032     1.2179     1.8613 </r>
       <r>     2.0079     1.3337     2.0009 </r>
       <r>     2.1126     1.3653     2.1440 </r>
       <r>     2.2174     0.9497     2.2434 </r>
       <r>     2.3221     0.8392     2.3313 </r>
       <r>     2.4269     1.7513     2.5148 </r>
       <r>     2.5316     2.8696     2.8153 </r>
       <r>     2.6364     3.1419     3.1444 </r>
       <r>     2.7411     2.6989     3.4271 </r>
       <r>     2.8458     2.1735     3.6548 </r>
       <r>     2.9506     1.9299     3.8569 </r>
       <r>     3.0553     1.9393     4.0600 </r>
       <r>     3.1601     2.2894     4.2998 </r>
       <r>     3.2648     3.0117     4.6153 </r>
       <r>     3.3696     3.3347     4.9646 </r>
       <r>     3.4743     2.5977     5.2367 </r>
       <r>     3.5790     1.3574     5.3788 </r>
       <r>     3.6838     0.7038     5.4526 </r>
       <r>     3.7885     0.8796     5.5447 </r>
       <r>     3.8933     1.2318     5.6737 </r>
       <r>     3.9980     1.1353     5.7926 </r>
       <r>     4.1028     0.6937     5.8653 </r>
       <r>     4.2075     0.6500     5.9334 </r>
       <r>     4.3122     1.4548     6.0858 </r>
       <r>     4.4170     2.3495     6.3319 </r>
       <r>     4.5217     2.5491     6.5989 </r>
       <r>     4.6265     2.8223     6.8945 </r>
       <r>     4.7312     3.8863     7.3015 </r>
       <r>     4.8360     4.9532     7.8203 </r>
       <r>     4.9407     5.0764     8.3521 </r>
       <r>     5.0454     4.2409     8.7963 </r>
       <r>     5.1502     2.9966     9.1101 </r>
       <r>     5.2549     1.9988     9.3195 </r>
       <r>     5.3597     1.6160     9.4888 </r>
       <r>     5.4644     1.7396     9.6710 </r>
       <r>     5.5692     1.8079     9.8603 </r>
       <r>     5.6739     1.4746    10.0148 </r>
       <r>     5.7786     1.3066    10.1517 </r>
       <r>     5.8834     1.5168    10.3105 </r>
       <r>     5.9881     1.3539    10.4523 </r>
       <r>     6.0929     0.8463    10.5410 </r>
       <r>     6.1976     0.5228    10.5957 </r>
       <r>     6.3024     0.3715    10.6347 </r>
       <r>     6.4071     0.2774    10.6637 </r>
       <r>     6.5118     0.2090    10.6856 </r>
       <r>     6.6166     0.1846    10.7049 </r>
       <r>     6.7213     0.1786    10.7236 </r>
       <r>     6.8261     0.1556    10.7399 </r>
       <r>     6.9308     0.1601    10.7567 </r>
       <r>     7.0356     0.1220    10.7695 </r>
       <r>     7.1403     0.1370    10.7838 </r>
       <r>     7.2450     0.4787    10.8340 </r>
       <r>     7.3498     0.8513    10.9232 </r>
       <r>     7.4545     0.7172    10.9983 </r>
       <r>     7.5593     0.3194    11.0317 </r>
       <r>     7.6640     0.2180    11.0546 </r>
       <r>     7.7688     0.3372    11.0899 </r>
       <r>     7.8735     0.2698    11.1181 </r>
       <r>     7.9782     0.1177    11.1305 </r>
       <r>     8.0830     0.1672    11.1480 </r>
       <r>     8.1877     0.2893    11.1783 </r>
       <r>     8.2925     0.2597    11.2055 </r>
       <r>     8.3972     0.1431    11.2205 </r>
       <r>     8.5020     0.1323    11.2344 </r>
       <r>     8.6067     0.1645    11.2516 </r>
       <r>     8.7114     0.0961    11.2617 </r>
       <r>     8.8162     0.0940    11.2715 </r>
       <r>     8.9209     0.2912    11.3020 </r>
       <r>     9.0257     0.4379    11.3479 </r>
       <r>     9.1304     0.3551    11.3851 </r>
       <r>     9.2352     0.2161    11.4077 </r>
       <r>     9.3399     0.1799    11.4265 </r>
       <r>     9.4446     0.1611    11.4434 </r>
       <r>     9.5494     0.0867    11.4525 </r>
       <r>     9.6541     0.0929    11.4622 </r>
       <r>     9.7589     0.2483    11.4882 </r>
       <r>     9.8636     0.4921    11.5398 </r>
       <r>     9.9684     0.5919    11.6018 </r>
       <r>    10.0731     0.3449    11.6379 </r>
       <r>    10.1778     0.0655    11.6448 </r>
       <r>    10.2826     0.0589    11.6509 </r>
       <r>    10.3873     0.1603    11.6677 </r>
       <r>    10.4921     0.1571    11.6842 </r>
       <r>    10.5968     0.1405    11.6989 </r>
       <r>    10.7016     0.1969    11.7195 </r>
       <r>    10.8063     0.2334    11.7440 </r>
       <r>    10.9110     0.2162    11.7666 </r>
       <r>    11.0158     0.1848    11.7860 </r>
       <r>    11.1205     0.1908    11.8059 </r>
       <r>    11.2253     0.1625    11.8230 </r>
       <r>    11.3300     0.0608    11.8293 </r>
       <r>    11.4348    -0.0055    11.8288 </r>
       <r>    11.5395     0.0012    11.8289 </r>
       <r>    11.6442     0.0423    11.8333 </r>
       <r>    11.7490     0.0631    11.8399 </r>
       <r>    11.8537     0.0366    11.8437 </r>
       <r>    11.9585     0.0043    11.8442 </r>
       <r>    12.0632    -0.0078    11.8434 </r>
       <r>    12.1680    -0.0152    11.8418 </r>
       <r>    12.2727    -0.0013    11.8416 </r>
       <r>    12.3774     0.1046    11.8526 </r>
       <r>    12.4822     0.3041    11.8844 </r>
       <r>    12.5869     0.4245    11.9289 </r>
       <r>    12.6917     0.3119    11.9616 </r>
       <r>    12.7964     0.0930    11.9713 </r>
       <r>    12.9012    -0.0233    11.9689 </r>
       <r>    13.0059    -0.0240    11.9664 </r>
       <r>    13.1106     0.0708    11.9738 </r>
       <r>    13.2154     0.2606    12.0011 </r>
       <r>    13.3201     0.4730    12.0506 </r>
       <r>    13.4249     0.6568    12.1194 </r>
       <r>    13.5296     0.7245    12.1953 </r>
       <r>    13.6344     0.5245    12.2502 </r>
       <r>    13.7391     0.1764    12.2687 </r>
[...]
       </set>
       <set comment="band 12">
        <r>  0.0224  0.0409  0.0050  0.0765  0.0316  0.1003  0.0097  0.0808  0.0846 </r>
        <r>  0.0224  0.0409  0.0050  0.0765  0.0316  0.1003  0.0097  0.0808  0.0846 </r>
       </set>
       <set comment="band 13">
        <r>  0.1216  0.0702  0.0196  0.0040  0.1542  0.0043  0.0497  0.0044  0.0083 </r>
        <r>  0.1216  0.0702  0.0196  0.0040  0.1542  0.0043  0.0497  0.0044  0.0083 </r>
       </set>
       <set comment="band 14">
        <r>  0.0926  0.0707  0.0152  0.0301  0.1510  0.0052  0.0473  0.0056  0.0034 </r>
        <r>  0.0926  0.0707  0.0152  0.0301  0.1510  0.0052  0.0473  0.0056  0.0034 </r>
       </set>
       <set comment="band 15">
        <r>  0.0929  0.0108  0.1095  0.0275  0.0000  0.0345  0.0306  0.0814  0.0016 </r>
        <r>  0.0929  0.0108  0.1095  0.0275  0.0000  0.0345  0.0306  0.0814  0.0016 </r>
       </set>
       <set comment="band 16">
        <r>  0.0546  0.0188  0.0706  0.0590  0.0001  0.0305  0.0164  0.1048  0.0096 </r>
        <r>  0.0546  0.0188  0.0706  0.0590  0.0001  0.0305  0.0164  0.1048  0.0096 </r>
       </set>
      </set>
      <set comment="kpoint 16">
       <set comment="band 1">
        <r>  0.0806  0.0069  0.0214  0.0069  0.2374  0.0007  0.0722  0.0007  0.0000 </r>
        <r>  0.0806  0.0069  0.0214  0.0069  0.2374  0.0007  0.0722  0.0007  0.0000 </r>
       </set>
       <set comment="band 2">
        <r>  0.0624  0.0011  0.0198  0.0011  0.2563  0.0028  0.0886  0.0028  0.0000 </r>
        <r>  0.0624  0.0011  0.0198  0.0011  0.2563  0.0028  0.0886  0.0028  0.0000 </r>
       </set>
       <set comment="band 3">
        <r>  0.0000  0.0053  0.0000  0.0053  0.0000  0.2304  0.0000  0.2304  0.0017 </r>
        <r>  0.0000  0.0053  0.0000  0.0053  0.0000  0.2304  0.0000  0.2304  0.0017 </r>
       </set>
       <set comment="band 4">
        <r>  0.0001  0.0056  0.0030  0.0056  0.0002  0.2244  0.0077  0.2244  0.0000 </r>
        <r>  0.0001  0.0056  0.0030  0.0056  0.0002  0.2244  0.0077  0.2244  0.0000 </r>
       </set>
       <set comment="band 5">
        <r>  0.0094  0.0893  0.0002  0.0893  0.0290  0.0900  0.0130  0.0900  0.0000 </r>
        <r>  0.0094  0.0893  0.0002  0.0893  0.0290  0.0900  0.0130  0.0900  0.0000 </r>
       </set>
       <set comment="band 6">
        <r>  0.0000  0.0924  0.0000  0.0924  0.0000  0.0839  0.0000  0.0839  0.0553 </r>
        <r>  0.0000  0.0924  0.0000  0.0924  0.0000  0.0839  0.0000  0.0839  0.0553 </r>
       </set>
       <set comment="band 7">
        <r>  0.0031  0.0000  0.0002  0.0000  0.1212  0.0028  0.3586  0.0028  0.0000 </r>
        <r>  0.0031  0.0000  0.0002  0.0000  0.1212  0.0028  0.3586  0.0028  0.0000 </r>
       </set>
       <set comment="band 8">
        <r>  0.0023  0.0000  0.0002  0.0000  0.1091  0.0011  0.3763  0.0011  0.0000 </r>
        <r>  0.0023  0.0000  0.0002  0.0000  0.1091  0.0011  0.3763  0.0011  0.0000 </r>
       </set>
       <set comment="band 9">
        <r>  0.0000  0.0000  0.0000  0.0000  0.0000  0.0011  0.0000  0.0011  0.4904 </r>
        <r>  0.0000  0.0000  0.0000  0.0000  0.0000  0.0011  0.0000  0.0011  0.4904 </r>
       </set>
       <set comment="band 10">
        <r>  0.0000  0.0020  0.0000  0.0020  0.0000  0.0413  0.0000  0.0413  0.4058 </r>
        <r>  0.0000  0.0020  0.0000  0.0020  0.0000  0.0413  0.0000  0.0413  0.4058 </r>
       </set>
       <set comment="band 11">
        <r>  0.0119  0.0455  0.0030  0.0455  0.0287  0.1604  0.0016  0.1604  0.0000 </r>
        <r>  0.0119  0.0455  0.0030  0.0455  0.0287  0.1604  0.0016  0.1604  0.0000 </r>
       </set>
       <set comment="band 12">
        <r>  0.0000  0.0719  0.0000  0.0719  0.0000  0.1316  0.0000  0.1316  0.0344 </r>
        <r>  0.0000  0.0719  0.0000  0.0719  0.0000  0.1316  0.0000  0.1316  0.0344 </r>
       </set>
       <set comment="band 13">
        <r>  0.1813  0.0030  0.0179  0.0030  0.1999  0.0000  0.0479  0.0000  0.0000 </r>
        <r>  0.1813  0.0030  0.0179  0.0030  0.1999  0.0000  0.0479  0.0000  0.0000 </r>
       </set>
       <set comment="band 14">
        <r>  0.1529  0.0218  0.0145  0.0218  0.1802  0.0032  0.0437  0.0032  0.0000 </r>
        <r>  0.1529  0.0218  0.0145  0.0218  0.1802  0.0032  0.0437  0.0032  0.0000 </r>
       </set>
       <set comment="band 15">
        <r>  0.0572  0.0366  0.0868  0.0366  0.0011  0.0607  0.0197  0.0607  0.0000 </r>
        <r>  0.0572  0.0366  0.0868  0.0366  0.0011  0.0607  0.0197  0.0607  0.0000 </r>
       </set>
       <set comment="band 16">
        <r>  0.0000  0.0699  0.0000  0.0699  0.0000  0.0857  0.0000  0.0857  0.0040 </r>
        <r>  0.0000  0.0699  0.0000  0.0699  0.0000  0.0857  0.0000  0.0857  0.0040 </r>
       </set>
      </set>
      <set comment="kpoint 17">
       <set comment="band 1">
        <r>  0.1561  0.0423  0.0423  0.0423  0.0342  0.0342  0.0000  0.0342  0.0000 </r>
        <r>  0.1561  0.0423  0.0423  0.0423  0.0342  0.0342  0.0000  0.0342  0.0000 </r>
       </set>
       <set comment="band 2">
        <r>  0.0347  0.0002  0.0002  0.0002  0.1426  0.1426  0.0000  0.1426  0.0000 </r>
        <r>  0.0347  0.0002  0.0002  0.0002  0.1426  0.1426  0.0000  0.1426  0.0000 </r>
       </set>
       <set comment="band 3">
        <r>  0.0000  0.0062  0.0151  0.0020  0.2662  0.0345  0.0311  0.1091  0.0008 </r>
        <r>  0.0000  0.0062  0.0151  0.0020  0.2662  0.0345  0.0311  0.1091  0.0008 </r>
       </set>
       <set comment="band 4">
        <r>  0.0000  0.0093  0.0004  0.0135  0.0070  0.2386  0.0008  0.1641  0.0311 </r>
        <r>  0.0000  0.0093  0.0004  0.0135  0.0070  0.2386  0.0008  0.1641  0.0311 </r>
       </set>
       <set comment="band 5">
        <r>  0.0000  0.0157  0.0620  0.0153  0.1136  0.0281  0.1648  0.0287  0.0000 </r>
        <r>  0.0000  0.0157  0.0620  0.0153  0.1136  0.0281  0.1648  0.0287  0.0000 </r>
       </set>
       <set comment="band 6">
        <r>  0.0000  0.0463  0.0000  0.0466  0.0000  0.0855  0.0000  0.0849  0.1648 </r>
        <r>  0.0000  0.0463  0.0000  0.0466  0.0000  0.0855  0.0000  0.0849  0.1648 </r>
       </set>
       <set comment="band 7">
        <r>  0.0000  0.0008  0.0032  0.0008  0.1451  0.0362  0.2664  0.0363  0.0000 </r>
        <r>  0.0000  0.0008  0.0032  0.0008  0.1451  0.0362  0.2664  0.0363  0.0000 </r>
       </set>
       <set comment="band 8">
        <r>  0.0000  0.0024  0.0000  0.0024  0.0000  0.1088  0.0000  0.1087  0.2664 </r>
        <r>  0.0000  0.0024  0.0000  0.0024  0.0000  0.1088  0.0000  0.1087  0.2664 </r>
       </set>
       <set comment="band 9">
        <r>  0.0000  0.0000  0.0000  0.0000  0.0268  0.0085  0.4468  0.0052  0.0023 </r>
        <r>  0.0000  0.0000  0.0000  0.0000  0.0268  0.0085  0.4468  0.0052  0.0023 </r>
       </set>
       <set comment="band 10">
        <r>  0.0000  0.0000  0.0000  0.0000  0.0001  0.0185  0.0023  0.0218  0.4468 </r>
        <r>  0.0000  0.0000  0.0000  0.0000  0.0001  0.0185  0.0023  0.0218  0.4468 </r>
       </set>
       <set comment="band 11">
        <r>  0.0197  0.0167  0.0167  0.0167  0.1349  0.1349  0.0000  0.1349  0.0000 </r>
        <r>  0.0197  0.0167  0.0167  0.0167  0.1349  0.1349  0.0000  0.1349  0.0000 </r>
       </set>
       <set comment="band 12">
        <r>  0.0000  0.0559  0.1257  0.0139  0.0972  0.0108  0.0805  0.0432  0.0030 </r>
        <r>  0.0000  0.0559  0.1257  0.0139  0.0972  0.0108  0.0805  0.0432  0.0030 </r>
       </set>
       <set comment="band 13">
        <r>  0.0000  0.0744  0.0047  0.1164  0.0036  0.0900  0.0030  0.0576  0.0805 </r>
        <r>  0.0000  0.0744  0.0047  0.1164  0.0036  0.0900  0.0030  0.0576  0.0805 </r>
       </set>
       <set comment="band 14">
        <r>  0.2805  0.0017  0.0017  0.0017  0.0441  0.0441  0.0000  0.0441  0.0000 </r>
        <r>  0.2805  0.0017  0.0017  0.0017  0.0441  0.0441  0.0000  0.0441  0.0000 </r>
       </set>
       <set comment="band 15">
        <r>  0.0000  0.0321  0.0993  0.0185  0.1267  0.0236  0.0383  0.0409  0.0002 </r>
        <r>  0.0000  0.0321  0.0993  0.0185  0.1267  0.0236  0.0383  0.0409  0.0002 </r>
       </set>
       <set comment="band 16">
        <r>  0.0000  0.0678  0.0006  0.0814  0.0008  0.1039  0.0002  0.0866  0.0383 </r>
        <r>  0.0000  0.0678  0.0006  0.0814  0.0008  0.1039  0.0002  0.0866  0.0383 </r>
       </set>
      </set>
      <set comment="kpoint 18">
       <set comment="band 1">
        <r>  0.0896  0.0317  0.0317  0.0306  0.1062  0.0001  0.0042  0.1062  0.0126 </r>
        <r>  0.0896  0.0317  0.0317  0.0306  0.1062  0.0001  0.0042  0.1062  0.0126 </r>
       </set>
       <set comment="band 2">
        <r>  0.0451  0.0117  0.0117  0.0088  0.1535  0.0376  0.0060  0.1535  0.0179 </r>
        <r>  0.0451  0.0117  0.0117  0.0088  0.1535  0.0376  0.0060  0.1535  0.0179 </r>
       </set>
       <set comment="band 3">
        <r>  0.0000  0.0222  0.0222  0.0000  0.1748  0.0000  0.0447  0.1748  0.0149 </r>
        <r>  0.0000  0.0222  0.0222  0.0000  0.1748  0.0000  0.0447  0.1748  0.0149 </r>
       </set>
       <set comment="band 4">
        <r>  0.0000  0.0347  0.0347  0.0000  0.1350  0.0000  0.0762  0.1350  0.0254 </r>
        <r>  0.0000  0.0347  0.0347  0.0000  0.1350  0.0000  0.0762  0.1350  0.0254 </r>
       </set>
       <set comment="band 5">
        <r>  0.0071  0.0024  0.0024  0.0570  0.0245  0.3343  0.0001  0.0245  0.0004 </r>
        <r>  0.0071  0.0024  0.0024  0.0570  0.0245  0.3343  0.0001  0.0245  0.0004 </r>
       </set>
       <set comment="band 6">
        <r>  0.0022  0.0116  0.0116  0.0803  0.0003  0.2820  0.0118  0.0003  0.0355 </r>
        <r>  0.0022  0.0116  0.0116  0.0803  0.0003  0.2820  0.0118  0.0003  0.0355 </r>
       </set>
       <set comment="band 7">
        <r>  0.0000  0.0006  0.0006  0.0000  0.0663  0.0000  0.2660  0.0663  0.0887 </r>
        <r>  0.0000  0.0006  0.0006  0.0000  0.0663  0.0000  0.2660  0.0663  0.0887 </r>
       </set>
       <set comment="band 8">
        <r>  0.0000  0.0001  0.0001  0.0000  0.0383  0.0000  0.3092  0.0383  0.1031 </r>
        <r>  0.0000  0.0001  0.0001  0.0000  0.0383  0.0000  0.3092  0.0383  0.1031 </r>
       </set>
       <set comment="band 9">
        <r>  0.0014  0.0002  0.0002  0.0013  0.0264  0.0559  0.0950  0.0264  0.2850 </r>
        <r>  0.0014  0.0002  0.0002  0.0013  0.0264  0.0559  0.0950  0.0264  0.2850 </r>
       </set>
       <set comment="band 10">
        <r>  0.0009  0.0000  0.0000  0.0001  0.0144  0.0004  0.1156  0.0144  0.3467 </r>
        <r>  0.0009  0.0000  0.0000  0.0001  0.0144  0.0004  0.1156  0.0144  0.3467 </r>
       </set>
       <set comment="band 11">
        <r>  0.0294  0.0195  0.0195  0.0411  0.0982  0.1434  0.0029  0.0982  0.0087 </r>
        <r>  0.0294  0.0195  0.0195  0.0411  0.0982  0.1434  0.0029  0.0982  0.0087 </r>
       </set>
       <set comment="band 12">
        <r>  0.0264  0.0243  0.0243  0.0881  0.0615  0.1069  0.0121  0.0615  0.0364 </r>
        <r>  0.0264  0.0243  0.0243  0.0881  0.0615  0.1069  0.0121  0.0615  0.0364 </r>
       </set>
       <set comment="band 13">
        <r>  0.0000  0.0936  0.0936  0.0000  0.0858  0.0000  0.0462  0.0858  0.0154 </r>
        <r>  0.0000  0.0936  0.0936  0.0000  0.0858  0.0000  0.0462  0.0858  0.0154 </r>
       </set>
       <set comment="band 14">
        <r>  0.2405  0.0062  0.0062  0.0313  0.0350  0.0532  0.0001  0.0350  0.0003 </r>
        <r>  0.2405  0.0062  0.0062  0.0313  0.0350  0.0532  0.0001  0.0350  0.0003 </r>
       </set>
       <set comment="band 15">
        <r>  0.0000  0.0859  0.0859  0.0000  0.0927  0.0000  0.0358  0.0927  0.0119 </r>
        <r>  0.0000  0.0859  0.0859  0.0000  0.0927  0.0000  0.0358  0.0927  0.0119 </r>
       </set>
       <set comment="band 16">
        <r>  0.1582  0.0031  0.0031  0.0998  0.0374  0.0520  0.0008  0.0374  0.0024 </r>
        <r>  0.1582  0.0031  0.0031  0.0998  0.0374  0.0520  0.0008  0.0374  0.0024 </r>
       </set>
      </set>
      <set comment="kpoint 19">
       <set comment="band 1">
        <r>  0.0447  0.0065  0.0510  0.0065  0.2838  0.0020  0.0370  0.0020  0.0000 </r>
        <r>  0.0447  0.0065  0.0510  0.0065  0.2838  0.0020  0.0370  0.0020  0.0000 </r>
       </set>
       <set comment="band 2">
        <r>  0.0328  0.0000  0.0382  0.0000  0.2825  0.0278  0.0364  0.0278  0.0000 </r>
        <r>  0.0328  0.0000  0.0382  0.0000  0.2825  0.0278  0.0364  0.0278  0.0000 </r>
       </set>
       <set comment="band 3">
        <r>  0.0000  0.0147  0.0000  0.0147  0.0000  0.2153  0.0000  0.2153  0.0041 </r>
        <r>  0.0000  0.0147  0.0000  0.0147  0.0000  0.2153  0.0000  0.2153  0.0041 </r>
       </set>
       <set comment="band 4">
        <r>  0.0000  0.0155  0.0139  0.0155  0.0235  0.1837  0.0214  0.1837  0.0000 </r>
        <r>  0.0000  0.0155  0.0139  0.0155  0.0235  0.1837  0.0214  0.1837  0.0000 </r>
       </set>
       <set comment="band 5">
        <r>  0.0080  0.0615  0.0002  0.0615  0.0273  0.1317  0.0075  0.1317  0.0000 </r>
        <r>  0.0080  0.0615  0.0002  0.0615  0.0273  0.1317  0.0075  0.1317  0.0000 </r>
       </set>
       <set comment="band 6">
        <r>  0.0000  0.0676  0.0000  0.0676  0.0000  0.1330  0.0000  0.1330  0.0253 </r>
        <r>  0.0000  0.0676  0.0000  0.0676  0.0000  0.1330  0.0000  0.1330  0.0253 </r>
       </set>
       <set comment="band 7">
        <r>  0.0006  0.0000  0.0003  0.0000  0.0709  0.0040  0.4112  0.0040  0.0000 </r>
        <r>  0.0006  0.0000  0.0003  0.0000  0.0709  0.0040  0.4112  0.0040  0.0000 </r>
       </set>
       <set comment="band 8">
        <r>  0.0005  0.0000  0.0001  0.0000  0.0581  0.0010  0.4308  0.0010  0.0000 </r>
        <r>  0.0005  0.0000  0.0001  0.0000  0.0581  0.0010  0.4308  0.0010  0.0000 </r>
       </set>
       <set comment="band 9">
        <r>  0.0000  0.0003  0.0000  0.0003  0.0000  0.0188  0.0000  0.0188  0.4547 </r>
        <r>  0.0000  0.0003  0.0000  0.0003  0.0000  0.0188  0.0000  0.0188  0.4547 </r>
       </set>
       <set comment="band 10">
        <r>  0.0000  0.0000  0.0000  0.0000  0.0000  0.0027  0.0000  0.0027  0.4876 </r>
        <r>  0.0000  0.0000  0.0000  0.0000  0.0000  0.0027  0.0000  0.0027  0.4876 </r>
       </set>
       <set comment="band 11">
        <r>  0.0274  0.0531  0.0119  0.0531  0.0531  0.1215  0.0018  0.1215  0.0000 </r>
        <r>  0.0274  0.0531  0.0119  0.0531  0.0531  0.1215  0.0018  0.1215  0.0000 </r>
       </set>
       <set comment="band 12">
        <r>  0.0000  0.0863  0.0000  0.0863  0.0000  0.1190  0.0000  0.1190  0.0161 </r>
        <r>  0.0000  0.0863  0.0000  0.0863  0.0000  0.1190  0.0000  0.1190  0.0161 </r>
       </set>
       <set comment="band 13">
        <r>  0.1266  0.0064  0.0662  0.0064  0.1954  0.0009  0.0315  0.0009  0.0000 </r>
        <r>  0.1266  0.0064  0.0662  0.0064  0.1954  0.0009  0.0315  0.0009  0.0000 </r>
       </set>
       <set comment="band 14">
        <r>  0.1065  0.0302  0.0455  0.0302  0.1574  0.0132  0.0245  0.0132  0.0000 </r>
        <r>  0.1065  0.0302  0.0455  0.0302  0.1574  0.0132  0.0245  0.0132  0.0000 </r>
       </set>
       <set comment="band 15">
        <r>  0.1349  0.0334  0.0494  0.0334  0.0004  0.0679  0.0076  0.0679  0.0000 </r>
        <r>  0.1349  0.0334  0.0494  0.0334  0.0004  0.0679  0.0076  0.0679  0.0000 </r>
       </set>
       <set comment="band 16">
        <r>  0.0000  0.0803  0.0000  0.0803  0.0000  0.1053  0.0000  0.1053  0.0046 </r>
        <r>  0.0000  0.0803  0.0000  0.0803  0.0000  0.1053  0.0000  0.1053  0.0046 </r>
       </set>
      </set>
      <set comment="kpoint 20">
       <set comment="band 1">
        <r>  0.0098  0.0134  0.0134  0.0134  0.1354  0.1354  0.0000  0.1354  0.0000 </r>
        <r>  0.0098  0.0134  0.0134  0.0134  0.1354  0.1354  0.0000  0.1354  0.0000 </r>
       </set>
       <set comment="band 2">
        <r>  0.0000  0.0120  0.0377  0.0072  0.2578  0.0491  0.0076  0.0819  0.0000 </r>
        <r>  0.0000  0.0120  0.0377  0.0072  0.2578  0.0491  0.0076  0.0819  0.0000 </r>
       </set>
       <set comment="band 3">
        <r>  0.0000  0.0259  0.0002  0.0307  0.0014  0.2100  0.0000  0.1773  0.0076 </r>
        <r>  0.0000  0.0259  0.0002  0.0307  0.0014  0.2100  0.0000  0.1773  0.0076 </r>
       </set>
       <set comment="band 4">
        <r>  0.0175  0.0368  0.0368  0.0368  0.1010  0.1010  0.0000  0.1010  0.0000 </r>
        <r>  0.0175  0.0368  0.0368  0.0368  0.1010  0.1010  0.0000  0.1010  0.0000 </r>
       </set>
       <set comment="band 5">
        <r>  0.0000  0.0132  0.0606  0.0185  0.2201  0.0672  0.0133  0.0479  0.0002 </r>
        <r>  0.0000  0.0132  0.0606  0.0185  0.2201  0.0672  0.0133  0.0479  0.0002 </r>
       </set>
       <set comment="band 6">
        <r>  0.0000  0.0483  0.0009  0.0430  0.0034  0.1563  0.0002  0.1756  0.0133 </r>
        <r>  0.0000  0.0483  0.0009  0.0430  0.0034  0.1563  0.0002  0.1756  0.0133 </r>
       </set>
       <set comment="band 7">
        <r>  0.0000  0.0000  0.0001  0.0000  0.0128  0.0033  0.4739  0.0031  0.0000 </r>
        <r>  0.0000  0.0000  0.0001  0.0000  0.0128  0.0033  0.4739  0.0031  0.0000 </r>
       </set>
       <set comment="band 8">
        <r>  0.0000  0.0001  0.0000  0.0001  0.0000  0.0095  0.0000  0.0097  0.4739 </r>
        <r>  0.0000  0.0001  0.0000  0.0001  0.0000  0.0095  0.0000  0.0097  0.4739 </r>
       </set>
       <set comment="band 9">
        <r>  0.0000  0.0000  0.0000  0.0000  0.0069  0.0018  0.4828  0.0016  0.0001 </r>
        <r>  0.0000  0.0000  0.0000  0.0000  0.0069  0.0018  0.4828  0.0016  0.0001 </r>
       </set>
       <set comment="band 10">
        <r>  0.0000  0.0000  0.0000  0.0000  0.0000  0.0051  0.0001  0.0053  0.4828 </r>
        <r>  0.0000  0.0000  0.0000  0.0000  0.0000  0.0051  0.0001  0.0053  0.4828 </r>
       </set>
       <set comment="band 11">
        <r>  0.0346  0.0461  0.0461  0.0461  0.0857  0.0857  0.0000  0.0857  0.0000 </r>
        <r>  0.0346  0.0461  0.0461  0.0461  0.0857  0.0857  0.0000  0.0857  0.0000 </r>
       </set>
       <set comment="band 12">
        <r>  0.0000  0.0498  0.1164  0.0157  0.1436  0.0194  0.0089  0.0614  0.0004 </r>
        <r>  0.0000  0.0498  0.1164  0.0157  0.1436  0.0194  0.0089  0.0614  0.0004 </r>
       </set>
       <set comment="band 13">
        <r>  0.0000  0.0715  0.0049  0.1056  0.0060  0.1302  0.0004  0.0882  0.0089 </r>
        <r>  0.0000  0.0715  0.0049  0.1056  0.0060  0.1302  0.0004  0.0882  0.0089 </r>
       </set>
       <set comment="band 14">
        <r>  0.2334  0.0134  0.0134  0.0134  0.0463  0.0463  0.0000  0.0463  0.0000 </r>
        <r>  0.2334  0.0134  0.0134  0.0134  0.0463  0.0463  0.0000  0.0463  0.0000 </r>
       </set>
       <set comment="band 15">
        <r>  0.0000  0.0753  0.0996  0.0018  0.1236  0.0022  0.0052  0.0934  0.0009 </r>
        <r>  0.0000  0.0753  0.0996  0.0018  0.1236  0.0022  0.0052  0.0934  0.0009 </r>
       </set>
       <set comment="band 16">
        <r>  0.0000  0.0425  0.0182  0.1160  0.0226  0.1439  0.0009  0.0527  0.0052 </r>
        <r>  0.0000  0.0425  0.0182  0.1160  0.0226  0.1439  0.0009  0.0527  0.0052 </r>
       </set>
      </set>
     </set>
    </set>
   </array>
  </projected>
 </calculation>
 <structure name="finalpos" >
  <crystal>
   <varray name="basis" >
    <v>       2.83287298       0.00000000       0.00000000 </v>
    <v>       0.00000000       2.83287298       0.00000000 </v>
    <v>      -0.00000000       0.00000000       2.83287298 </v>
   </varray>
   <i name="volume">     22.73428543 </i>
   <varray name="rec_basis" >
    <v>       0.35299853      -0.00000000       0.00000000 </v>
    <v>      -0.00000000       0.35299853      -0.00000000 </v>
    <v>      -0.00000000      -0.00000000       0.35299853 </v>
   </varray>
  </crystal>
  <varray name="positions" >
   <v>       0.00000000       0.00000000       0.00000000 </v>
   <v>       0.50000000       0.50000000       0.50000000 </v>
  </varray>
 </structure>
</modeling>
