unknown system                          
           1
     2.832386    0.000000    0.000000
     0.000000    2.832386    0.000000
     0.000000    0.000000    2.832386
   Fe
   2
Direct configuration=     1
   0.00000000  0.00000000  0.00000000
   0.50000000  0.50000000  0.50000000
unknown system                          
           1
     2.835434    0.000000    0.000000
     0.000000    2.835434    0.000000
    -0.000000    0.000000    2.835434
   Fe
   2
Direct configuration=     2
   0.00000000  0.00000000  0.00000000
   0.50000000  0.50000000  0.50000000
unknown system                          
           1
     2.833477    0.000000    0.000000
     0.000000    2.833477    0.000000
    -0.000000    0.000000    2.833477
   Fe
   2
Direct configuration=     3
   0.00000000  0.00000000  0.00000000
   0.50000000  0.50000000  0.50000000
unknown system                          
           1
     2.833040    0.000000    0.000000
     0.000000    2.833040    0.000000
    -0.000000    0.000000    2.833040
   Fe
   2
Direct configuration=     4
   0.00000000  0.00000000  0.00000000
   0.50000000  0.50000000  0.50000000
unknown system                          
           1
     2.832909    0.000000    0.000000
     0.000000    2.832909    0.000000
    -0.000000    0.000000    2.832909
   Fe
   2
Direct configuration=     5
   0.00000000  0.00000000  0.00000000
   0.50000000  0.50000000  0.50000000
unknown system                          
           1
     2.832860    0.000000    0.000000
     0.000000    2.832860    0.000000
    -0.000000    0.000000    2.832860
   Fe
   2
Direct configuration=     6
   0.00000000  0.00000000  0.00000000
   0.50000000  0.50000000  0.50000000
unknown system                          
           1
     2.832902    0.000000    0.000000
     0.000000    2.832902    0.000000
    -0.000000    0.000000    2.832902
   Fe
   2
Direct configuration=     7
   0.00000000  0.00000000  0.00000000
   0.50000000  0.50000000  0.50000000
unknown system                          
           1
     2.832873    0.000000    0.000000
     0.000000    2.832873    0.000000
    -0.000000    0.000000    2.832873
   Fe
   2
Direct configuration=     8
   0.00000000  0.00000000  0.00000000
   0.50000000  0.50000000  0.50000000
