   1   1   0   0
  0.1408159E+02  0.2710538E-09  0.2710538E-09  0.2710538E-09  0.5000000E-15
  1.000000000000000E-004
  CAR 
 unknown system                          
     38.25872209     -6.31789971  301     10.18028016      1.00000000
     -6.318  0.0000E+00  0.0000E+00
     -6.169  0.0000E+00  0.0000E+00
     -6.021  0.0000E+00  0.0000E+00
     -5.872  0.0000E+00  0.0000E+00
     -5.724  0.0000E+00  0.0000E+00
     -5.575  0.0000E+00  0.0000E+00
     -5.426  0.0000E+00  0.0000E+00
     -5.278  0.0000E+00  0.0000E+00
     -5.129  0.0000E+00  0.0000E+00
     -4.981  0.0000E+00  0.0000E+00
     -4.832  0.0000E+00  0.0000E+00
     -4.683  0.0000E+00  0.0000E+00
     -4.535  0.5990E-16  0.8900E-17
     -4.386  0.7350E-07  0.1092E-07
     -4.238  0.6156E-04  0.9159E-05
     -4.089  0.3203E-03  0.5676E-04
     -3.940  0.7183E-03  0.1635E-03
     -3.792  0.4254E-03  0.2267E-03
     -3.643  0.9614E-03  0.3696E-03
     -3.495  0.8270E-03  0.4924E-03
     -3.346  0.9576E-03  0.6347E-03
     -3.198  0.1185E-02  0.8108E-03
     -3.049  0.1038E-02  0.9650E-03
     -2.900  0.1111E-02  0.1130E-02
     -2.752  0.1477E-02  0.1349E-02
     -2.603  0.1367E-02  0.1553E-02
     -2.455  0.1175E-02  0.1727E-02
     -2.306  0.1372E-02  0.1931E-02
     -2.157  0.1460E-02  0.2148E-02
     -2.009  0.2436E-02  0.2510E-02
     -1.860  0.1108E-02  0.2675E-02
     -1.712  0.8518E-03  0.2801E-02
     -1.563  0.2185E-02  0.3126E-02
     -1.414  0.2650E-02  0.3520E-02
     -1.266  0.8714E-03  0.3649E-02
     -1.117  0.2409E-02  0.4007E-02
     -0.969  0.1573E-02  0.4241E-02
     -0.820  0.1160E-02  0.4413E-02
     -0.672  0.2959E-02  0.4853E-02
     -0.523  0.2685E-02  0.5252E-02
     -0.374  0.1464E-02  0.5469E-02
     -0.226  0.1998E-02  0.5766E-02
     -0.077  0.2166E-02  0.6088E-02
      0.071  0.1877E-02  0.6367E-02
      0.220  0.2274E-02  0.6705E-02
      0.369  0.2570E-02  0.7087E-02
      0.517  0.3715E-02  0.7639E-02
      0.666  0.1726E-02  0.7895E-02
      0.814  0.6986E-03  0.7999E-02
      0.963  0.3041E-02  0.8451E-02
      1.112  0.3383E-02  0.8953E-02
      1.260  0.1728E-02  0.9210E-02
      1.409  0.3157E-02  0.9679E-02
      1.557  0.3045E-02  0.1013E-01
      1.706  0.2438E-02  0.1049E-01
      1.854  0.2218E-02  0.1082E-01
      2.003  0.2428E-02  0.1118E-01
      2.152  0.2614E-02  0.1157E-01
      2.300  0.3637E-02  0.1211E-01
      2.449  0.2504E-02  0.1249E-01
      2.597  0.3954E-02  0.1307E-01
      2.746  0.3009E-02  0.1352E-01
      2.895  0.1383E-02  0.1373E-01
      3.043  0.4844E-02  0.1445E-01
      3.192  0.8633E-03  0.1457E-01
      3.340  0.1639E-02  0.1482E-01
      3.489  0.3815E-02  0.1538E-01
      3.638  0.5166E-02  0.1615E-01
      3.786  0.2811E-02  0.1657E-01
      3.935  0.2885E-02  0.1700E-01
      4.083  0.1780E-02  0.1726E-01
      4.232  0.3530E-02  0.1779E-01
      4.380  0.2831E-02  0.1821E-01
      4.529  0.2657E-02  0.1860E-01
      4.678  0.5496E-02  0.1942E-01
      4.826  0.3239E-02  0.1990E-01
      4.975  0.1117E-02  0.2007E-01
      5.123  0.5055E-02  0.2082E-01
      5.272  0.4021E-02  0.2141E-01
      5.421  0.2815E-02  0.2183E-01
      5.569  0.3822E-02  0.2240E-01
      5.718  0.1799E-02  0.2267E-01
      5.866  0.3329E-02  0.2316E-01
      6.015  0.2801E-02  0.2358E-01
      6.164  0.5580E-02  0.2441E-01
      6.312  0.3715E-02  0.2496E-01
      6.461  0.3055E-02  0.2541E-01
      6.609  0.2210E-02  0.2574E-01
      6.758  0.6540E-02  0.2671E-01
      6.906  0.3793E-02  0.2728E-01
      7.055  0.1814E-02  0.2755E-01
      7.204  0.4493E-02  0.2822E-01
      7.352  0.2708E-02  0.2862E-01
      7.501  0.2092E-02  0.2893E-01
      7.649  0.3799E-02  0.2949E-01
      7.798  0.5593E-02  0.3032E-01
      7.947  0.6191E-02  0.3124E-01
      8.095  0.3007E-02  0.3169E-01
      8.244  0.2607E-02  0.3208E-01
      8.392  0.4545E-02  0.3275E-01
      8.541  0.3815E-02  0.3332E-01
      8.690  0.2410E-02  0.3368E-01
      8.838  0.5359E-02  0.3447E-01
      8.987  0.2710E-02  0.3488E-01
      9.135  0.4513E-02  0.3555E-01
      9.284  0.5264E-02  0.3633E-01
      9.433  0.3536E-02  0.3686E-01
      9.581  0.4844E-02  0.3758E-01
      9.730  0.5322E-02  0.3837E-01
      9.878  0.3144E-02  0.3883E-01
     10.027  0.3683E-02  0.3938E-01
     10.175  0.3997E-02  0.3997E-01
     10.324  0.4173E-02  0.4059E-01
     10.473  0.4868E-02  0.4132E-01
     10.621  0.3067E-02  0.4177E-01
     10.770  0.5198E-02  0.4255E-01
     10.918  0.5711E-02  0.4339E-01
     11.067  0.4012E-02  0.4399E-01
     11.216  0.5670E-02  0.4483E-01
     11.364  0.2572E-02  0.4522E-01
     11.513  0.4967E-02  0.4595E-01
     11.661  0.5533E-02  0.4678E-01
     11.810  0.4618E-02  0.4746E-01
     11.959  0.4206E-02  0.4809E-01
     12.107  0.4995E-02  0.4883E-01
     12.256  0.3239E-02  0.4931E-01
     12.404  0.4981E-02  0.5005E-01
     12.553  0.5890E-02  0.5093E-01
     12.701  0.7295E-02  0.5201E-01
     12.850  0.5365E-02  0.5281E-01
     12.999  0.2011E-02  0.5311E-01
     13.147  0.4601E-02  0.5379E-01
     13.296  0.6485E-02  0.5475E-01
     13.444  0.4980E-02  0.5549E-01
     13.593  0.8855E-02  0.5681E-01
     13.742  0.4604E-02  0.5749E-01
     13.890  0.4358E-02  0.5814E-01
     14.039  0.3993E-02  0.5873E-01
     14.187  0.7886E-02  0.5990E-01
     14.336  0.4071E-02  0.6051E-01
     14.485  0.4416E-02  0.6117E-01
     14.633  0.5261E-02  0.6195E-01
     14.782  0.6080E-02  0.6285E-01
     14.930  0.5883E-02  0.6373E-01
     15.079  0.2713E-02  0.6413E-01
     15.227  0.2912E-02  0.6456E-01
     15.376  0.7096E-02  0.6562E-01
     15.525  0.6219E-02  0.6654E-01
     15.673  0.3923E-02  0.6712E-01
     15.822  0.4150E-02  0.6774E-01
     15.970  0.3220E-02  0.6822E-01
     16.119  0.4265E-02  0.6885E-01
     16.268  0.6137E-02  0.6976E-01
     16.416  0.5368E-02  0.7056E-01
     16.565  0.4427E-02  0.7122E-01
     16.713  0.4012E-02  0.7181E-01
     16.862  0.5552E-02  0.7264E-01
     17.011  0.3111E-02  0.7310E-01
     17.159  0.6646E-02  0.7409E-01
     17.308  0.4823E-02  0.7481E-01
     17.456  0.5062E-02  0.7556E-01
     17.605  0.3454E-02  0.7607E-01
     17.753  0.5973E-02  0.7696E-01
     17.902  0.6579E-02  0.7794E-01
     18.051  0.6146E-02  0.7885E-01
     18.199  0.3387E-02  0.7935E-01
     18.348  0.5338E-02  0.8015E-01
     18.496  0.6268E-02  0.8108E-01
     18.645  0.2925E-02  0.8151E-01
     18.794  0.5867E-02  0.8238E-01
     18.942  0.4082E-02  0.8299E-01
     19.091  0.6880E-02  0.8401E-01
     19.239  0.6371E-02  0.8496E-01
     19.388  0.6849E-02  0.8598E-01
     19.537  0.5082E-02  0.8673E-01
     19.685  0.4350E-02  0.8738E-01
     19.834  0.5341E-02  0.8817E-01
     19.982  0.5240E-02  0.8895E-01
     20.131  0.6707E-02  0.8995E-01
     20.279  0.5188E-02  0.9072E-01
     20.428  0.3567E-02  0.9125E-01
     20.577  0.6154E-02  0.9216E-01
     20.725  0.5959E-02  0.9305E-01
     20.874  0.5244E-02  0.9383E-01
     21.022  0.7921E-02  0.9500E-01
     21.171  0.6868E-02  0.9602E-01
     21.320  0.5965E-02  0.9691E-01
     21.468  0.7500E-02  0.9803E-01
     21.617  0.4646E-02  0.9872E-01
     21.765  0.5439E-02  0.9952E-01
     21.914  0.6816E-02  0.1005E+00
     22.063  0.4359E-02  0.1012E+00
     22.211  0.4699E-02  0.1019E+00
     22.360  0.6324E-02  0.1028E+00
     22.508  0.6909E-02  0.1038E+00
     22.657  0.4824E-02  0.1046E+00
     22.805  0.4739E-02  0.1053E+00
     22.954  0.4720E-02  0.1060E+00
     23.103  0.5974E-02  0.1069E+00
     23.251  0.6170E-02  0.1078E+00
     23.400  0.6196E-02  0.1087E+00
     23.548  0.6699E-02  0.1097E+00
     23.697  0.1170E-01  0.1114E+00
     23.846  0.8188E-02  0.1126E+00
     23.994  0.8257E-02  0.1139E+00
     24.143  0.3902E-02  0.1145E+00
     24.291  0.2502E-02  0.1148E+00
     24.440  0.6584E-02  0.1158E+00
     24.589  0.4019E-02  0.1164E+00
     24.737  0.5330E-02  0.1172E+00
     24.886  0.5669E-02  0.1180E+00
     25.034  0.9971E-02  0.1195E+00
     25.183  0.8482E-02  0.1208E+00
     25.332  0.9292E-02  0.1222E+00
     25.480  0.6287E-02  0.1231E+00
     25.629  0.5878E-02  0.1240E+00
     25.777  0.4724E-02  0.1247E+00
     25.926  0.3707E-02  0.1252E+00
     26.074  0.4398E-02  0.1259E+00
     26.223  0.9842E-02  0.1273E+00
     26.372  0.6786E-02  0.1283E+00
     26.520  0.8940E-02  0.1297E+00
     26.669  0.4765E-02  0.1304E+00
     26.817  0.7393E-02  0.1315E+00
     26.966  0.5982E-02  0.1324E+00
     27.115  0.4773E-02  0.1331E+00
     27.263  0.5203E-02  0.1338E+00
     27.412  0.4642E-02  0.1345E+00
     27.560  0.7782E-02  0.1357E+00
     27.709  0.5632E-02  0.1365E+00
     27.858  0.6706E-02  0.1375E+00
     28.006  0.5219E-02  0.1383E+00
     28.155  0.8226E-02  0.1395E+00
     28.303  0.3656E-02  0.1401E+00
     28.452  0.2708E-02  0.1405E+00
     28.600  0.4726E-02  0.1412E+00
     28.749  0.6662E-02  0.1422E+00
     28.898  0.6288E-02  0.1431E+00
     29.046  0.2655E-02  0.1435E+00
     29.195  0.5308E-02  0.1443E+00
     29.343  0.7246E-02  0.1454E+00
     29.492  0.5918E-02  0.1462E+00
     29.641  0.5255E-02  0.1470E+00
     29.789  0.2691E-02  0.1474E+00
     29.938  0.4891E-02  0.1481E+00
     30.086  0.7484E-02  0.1493E+00
     30.235  0.3368E-02  0.1498E+00
     30.384  0.4813E-02  0.1505E+00
     30.532  0.2723E-02  0.1509E+00
     30.681  0.8811E-02  0.1522E+00
     30.829  0.2518E-02  0.1526E+00
     30.978  0.3140E-02  0.1530E+00
     31.126  0.3086E-02  0.1535E+00
     31.275  0.4161E-02  0.1541E+00
     31.424  0.1083E-02  0.1543E+00
     31.572  0.3458E-02  0.1548E+00
     31.721  0.2095E-02  0.1551E+00
     31.869  0.1682E-02  0.1553E+00
     32.018  0.2784E-02  0.1558E+00
     32.167  0.1005E-02  0.1559E+00
     32.315  0.2734E-02  0.1563E+00
     32.464  0.2193E-02  0.1566E+00
     32.612  0.2651E-02  0.1570E+00
     32.761  0.1200E-02  0.1572E+00
     32.910  0.2332E-02  0.1576E+00
     33.058  0.1061E-02  0.1577E+00
     33.207  0.1308E-02  0.1579E+00
     33.355  0.1725E-02  0.1582E+00
     33.504  0.1060E-02  0.1583E+00
     33.652  0.1609E-02  0.1586E+00
     33.801  0.4167E-03  0.1586E+00
     33.950  0.1126E-02  0.1588E+00
     34.098  0.1228E-02  0.1590E+00
     34.247  0.1806E-02  0.1592E+00
     34.395  0.7366E-03  0.1593E+00
     34.544  0.7219E-03  0.1595E+00
     34.693  0.1160E-02  0.1596E+00
     34.841  0.1616E-03  0.1597E+00
     34.990  0.1078E-09  0.1597E+00
     35.138  0.3565E-04  0.1597E+00
     35.287  0.6086E-03  0.1597E+00
     35.436  0.8429E-03  0.1599E+00
     35.584  0.1108E-03  0.1599E+00
     35.733  0.4033E-03  0.1599E+00
     35.881  0.4055E-06  0.1599E+00
     36.030  0.8716E-04  0.1600E+00
     36.178  0.1558E-03  0.1600E+00
     36.327  0.1099E-03  0.1600E+00
     36.476  0.4406E-06  0.1600E+00
     36.624  0.3594E-15  0.1600E+00
     36.773  0.0000E+00  0.1600E+00
     36.921  0.0000E+00  0.1600E+00
     37.070  0.0000E+00  0.1600E+00
     37.219  0.0000E+00  0.1600E+00
     37.367  0.0000E+00  0.1600E+00
     37.516  0.0000E+00  0.1600E+00
     37.664  0.0000E+00  0.1600E+00
     37.813  0.0000E+00  0.1600E+00
     37.962  0.0000E+00  0.1600E+00
     38.110  0.0000E+00  0.1600E+00
     38.259  0.0000E+00  0.1600E+00
