    1    1  100    1
  0.1408159E+02  0.2710538E-09  0.2710538E-09  0.2710538E-09  0.5000000E-15
  1.000000000000000E-004
  CAR 
 unknown system                          
      4    220      8
 
  0.0000000E+00  0.0000000E+00  0.0000000E+00  0.1457938E-03
    1       -4.291690   1.000000
    2       21.258293   0.000000
    3       21.258301   0.000000
    4       21.258309   0.000000
    5       22.096182   0.000000
    6       22.096191   0.000000
    7       22.096200   0.000000
    8       27.400720   0.000000
 
  0.5263158E-01  0.0000000E+00  0.0000000E+00  0.1166351E-02
    1       -4.211117   1.000000
    2       19.697147   0.000000
    3       20.779992   0.000000
    4       20.780004   0.000000
    5       22.674301   0.000000
    6       22.674315   0.000000
    7       22.946858   0.000000
    8       28.068237   0.000000
 
  0.1052632E+00  0.0000000E+00  0.0000000E+00  0.1166351E-02
    1       -3.969560   1.000000
    2       17.510413   0.000000
    3       20.145932   0.000000
    4       20.145943   0.000000
    5       23.351551   0.000000
    6       23.561428   0.000000
    7       23.561442   0.000000
    8       27.684811   0.000000
 
  0.1578947E+00  0.0000000E+00  0.0000000E+00  0.1166351E-02
    1       -3.567624   1.000000
    2       15.259627   0.000000
    3       19.609231   0.000000
    4       19.609241   0.000000
    5       23.383905   0.000000
    6       24.248230   0.000000
    7       24.248243   0.000000
    8       27.051041   0.000000
 
  0.2105263E+00  0.1387779E-16  0.0000000E+00  0.1166351E-02
    1       -3.006349   1.000000
    2       13.050315   0.000000
    3       19.195091   0.000000
    4       19.195100   0.000000
    5       23.305119   0.000000
    6       24.114751   0.000000
    7       24.114761   0.000000
    8       27.400015   0.000000
 
  0.2631579E+00  0.1387779E-16  0.0000000E+00  0.1166351E-02
    1       -2.287236   1.000000
    2       10.927762   0.000000
    3       18.903540   0.000000
    4       18.903549   0.000000
    5       23.229446   0.000000
    6       23.382505   0.000000
    7       23.382514   0.000000
    8       28.561345   0.000000
 
  0.3157895E+00  0.0000000E+00  0.0000000E+00  0.1166351E-02
    1       -1.412299   1.000000
    2        8.915405   1.000000
    3       18.728636   0.000000
    4       18.728643   0.000000
    5       22.577266   0.000000
    6       22.577276   0.000000
    7       23.205703   0.000000
    8       27.742445   0.000000
 
  0.3684211E+00  0.1387779E-16  0.0000000E+00  0.1166351E-02
    1       -0.384563   1.000000
    2        7.027710   1.000000
    3       18.655688   0.000000
    4       18.655694   0.000000
    5       21.871084   0.000000
    6       21.871094   0.000000
    7       23.247290   0.000000
    8       26.936599   0.000000
 
  0.4210526E+00  0.2775558E-16  0.0000000E+00  0.1166351E-02
    1        0.789928   1.000000
    2        5.277056   1.000000
    3       18.655590   0.000000
    4       18.655595   0.000000
    5       21.335977   0.000000
    6       21.335989   0.000000
    7       23.336707   0.000000
    8       26.321408   0.000000
 
  0.4736842E+00  0.2775558E-16  0.0000000E+00  0.1166351E-02
    1        2.077167   1.000000
    2        3.700591   1.000000
    3       18.680019   0.000000
    4       18.680022   0.000000
    5       21.042819   0.000000
    6       21.042832   0.000000
    7       23.413564   0.000000
    8       25.974276   0.000000
 
  0.5263158E-01  0.5263158E-01  0.0000000E+00  0.8747631E-03
    1       -4.184253   1.000000
    2       20.003318   0.000000
    3       20.003319   0.000000
    4       21.003135   0.000000
    5       21.481008   0.000000
    6       23.482092   0.000000
    7       23.482093   0.000000
    8       27.769734   0.000000
 
  0.1052632E+00  0.5263158E-01  0.0000000E+00  0.3499052E-02
    1       -3.996373   1.000000
    2       18.267563   0.000000
    3       19.306462   0.000000
    4       20.658307   0.000000
    5       21.781276   0.000000
    6       24.142813   0.000000
    7       24.390011   0.000000
    8       26.658279   0.000000
 
  0.1578947E+00  0.5263158E-01  0.0000000E+00  0.3499052E-02
    1       -3.647907   1.000000
    2       16.056500   0.000000
    3       18.729312   0.000000
    4       20.126374   0.000000
    5       22.532365   0.000000
    6       24.352090   0.000000
    7       25.191864   0.000000
    8       25.701857   0.000000
 
  0.2105263E+00  0.5263158E-01  0.0000000E+00  0.3499052E-02
    1       -3.139784   1.000000
    2       13.836569   0.000000
    3       18.282559   0.000000
    4       19.662777   0.000000
    5       22.772243   0.000000
    6       24.184103   0.000000
    7       25.345629   0.000000
    8       25.677948   0.000000
 
  0.2631579E+00  0.5263158E-01  0.0000000E+00  0.3499052E-02
    1       -2.473309   1.000000
    2       11.686266   0.000000
    3       17.968746   0.000000
    4       19.287426   0.000000
    5       22.247436   0.000000
    6       23.990310   0.000000
    7       24.730876   0.000000
    8       26.656092   0.000000
 
  0.3157895E+00  0.5263158E-01  0.0000000E+00  0.3499052E-02
    1       -1.650295   1.000000
    2        9.637769   1.000000
    3       17.787615   0.000000
    4       18.982303   0.000000
    5       21.524832   0.000000
    6       23.911692   0.000000
    7       23.920299   0.000000
    8       27.882614   0.000000
 
  0.3684211E+00  0.5263158E-01  0.0000000E+00  0.3499052E-02
    1       -0.673354   1.000000
    2        7.708670   1.000000
    3       17.736576   0.000000
    4       18.700538   0.000000
    5       20.941456   0.000000
    6       23.122426   0.000000
    7       23.915765   0.000000
    8       27.754872   0.000000
 
  0.4210526E+00  0.5263158E-01  0.0000000E+00  0.3499052E-02
    1        0.453004   1.000000
    2        5.911748   1.000000
    3       17.810118   0.000000
    4       18.386642   0.000000
    5       20.631175   0.000000
    6       22.439353   0.000000
    7       23.954709   0.000000
    8       27.162910   0.000000
 
  0.4736842E+00  0.5263158E-01  0.0000000E+00  0.3499052E-02
    1        1.713273   1.000000
    2        4.266493   1.000000
    3       17.999673   0.000000
    4       18.036103   0.000000
    5       20.622247   0.000000
    6       21.898405   0.000000
    7       23.987720   0.000000
    8       26.781344   0.000000
 
 -0.4736842E+00  0.5263158E-01  0.0000000E+00  0.3499052E-02
    1        2.528501   1.000000
    2        3.355035   1.000000
    3       17.703022   0.000000
    4       18.286613   0.000000
    5       20.867625   0.000000
    6       21.529206   0.000000
    7       23.964398   0.000000
    8       26.709431   0.000000
 
 -0.4210526E+00  0.5263158E-01  0.0000000E+00  0.3499052E-02
    1        1.281002   1.000000
    2        4.795108   1.000000
    3       17.441411   0.000000
    4       18.638455   0.000000
    5       21.316845   0.000000
    6       21.363763   0.000000
    7       23.873825   0.000000
    8       26.961147   0.000000
 
 -0.3684211E+00  0.5263158E-01  0.0000000E+00  0.3499052E-02
    1        0.061412   1.000000
    2        6.495131   1.000000
    3       17.283568   0.000000
    4       19.007543   0.000000
    5       21.448894   0.000000
    6       21.931025   0.000000
    7       23.769444   0.000000
    8       27.472313   0.000000
 
 -0.3157895E+00  0.5263158E-01  0.0000000E+00  0.3499052E-02
    1       -1.015914   1.000000
    2        8.337347   1.000000
    3       17.245992   0.000000
    4       19.354015   0.000000
    5       21.815818   0.000000
    6       22.684843   0.000000
    7       23.698849   0.000000
    8       28.148385   0.000000
 
 -0.2631579E+00  0.5263158E-01  0.0000000E+00  0.3499052E-02
    1       -1.941887   1.000000
    2       10.307562   0.000159
    3       17.337011   0.000000
    4       19.685773   0.000000
    5       22.423701   0.000000
    6       23.541049   0.000000
    7       23.687245   0.000000
    8       27.957518   0.000000
 
 -0.2105263E+00  0.5263158E-01  0.0000000E+00  0.3499052E-02
    1       -2.712976   1.000000
    2       12.392191   0.000000
    3       17.561897   0.000000
    4       20.047155   0.000000
    5       23.126116   0.000000
    6       23.718956   0.000000
    7       24.420179   0.000000
    8       26.641845   0.000000
 
 -0.1578947E+00  0.5263158E-01  0.0000000E+00  0.3499052E-02
    1       -3.326849   1.000000
    2       14.569911   0.000000
    3       17.918937   0.000000
    4       20.475504   0.000000
    5       23.471713   0.000000
    6       23.744132   0.000000
    7       25.010455   0.000000
    8       25.988171   0.000000
 
 -0.1052632E+00  0.5263158E-01  0.0000000E+00  0.3499052E-02
    1       -3.781863   1.000000
    2       16.799712   0.000000
    3       18.407831   0.000000
    4       20.968865   0.000000
    5       22.934742   0.000000
    6       23.645787   0.000000
    7       24.738436   0.000000
    8       26.492471   0.000000
 
 -0.5263158E-01  0.5263158E-01  0.0000000E+00  0.1749526E-02
    1       -4.076874   1.000000
    2       18.924326   0.000000
    3       19.081109   0.000000
    4       21.315608   0.000000
    5       22.298998   0.000000
    6       23.277347   0.000000
    7       23.939506   0.000000
    8       27.523707   0.000000
 
  0.1052632E+00  0.1052632E+00  0.0000000E+00  0.8747631E-03
    1       -3.862245   1.000000
    2       18.562559   0.000000
    3       18.562560   0.000000
    4       20.234400   0.000000
    5       20.304542   0.000000
    6       25.312908   0.000000
    7       25.312908   0.000000
    8       25.324617   0.000000
 
  0.1578947E+00  0.1052632E+00  0.0000000E+00  0.3499052E-02
    1       -3.567515   1.000000
    2       16.900743   0.000000
    3       17.940131   0.000000
    4       19.726595   0.000000
    5       20.614248   0.000000
    6       24.104915   0.000000
    7       25.935969   0.000000
    8       26.200259   0.000000
 
  0.2105263E+00  0.1052632E+00  0.0000000E+00  0.3499052E-02
    1       -3.112928   1.000000
    2       14.733439   0.000000
    3       17.451290   0.000000
    4       19.208348   0.000000
    5       21.129605   0.000000
    6       23.455515   0.000000
    7       26.141386   0.000000
    8       26.636888   0.000000
 
  0.2631579E+00  0.1052632E+00  0.0000000E+00  0.3499052E-02
    1       -2.499661   1.000000
    2       12.575241   0.000000
    3       17.098415   0.000000
    4       18.724500   0.000000
    5       20.793373   0.000000
    6       23.946302   0.000000
    7       26.230508   0.000000
    8       26.272788   0.000000
 
  0.3157895E+00  0.1052632E+00  0.0000000E+00  0.3499052E-02
    1       -1.729328   1.000000
    2       10.499894   0.000000
    3       16.881329   0.000000
    4       18.229117   0.000000
    5       20.180802   0.000000
    6       24.792076   0.000000
    7       25.454368   0.000000
    8       26.686022   0.000000
 
  0.3684211E+00  0.1052632E+00  0.0000000E+00  0.3499052E-02
    1       -0.804230   1.000000
    2        8.535057   1.000000
    3       16.800445   0.000000
    4       17.669700   0.000000
    5       19.774706   0.000000
    6       24.652703   0.000000
    7       25.228517   0.000000
    8       27.721793   0.000000
 
  0.4210526E+00  0.1052632E+00  0.0000000E+00  0.3499052E-02
    1        0.272075   1.000000
    2        6.696373   1.000000
    3       16.854451   0.000000
    4       17.069923   0.000000
    5       19.652027   0.000000
    6       23.925919   0.000000
    7       25.347255   0.000000
    8       28.715525   0.000000
 
  0.4736842E+00  0.1052632E+00  0.0000000E+00  0.3499052E-02
    1        1.490727   1.000000
    2        4.998730   1.000000
    3       16.502310   0.000000
    4       17.040721   0.000000
    5       19.765999   0.000000
    6       23.314144   0.000000
    7       25.333125   0.000000
    8       28.556426   0.000000
 
 -0.4736842E+00  0.1052632E+00  0.0000000E+00  0.3499052E-02
    1        2.739562   1.000000
    2        3.557404   1.000000
    3       16.020492   0.000000
    4       17.354121   0.000000
    5       20.072376   0.000000
    6       22.834500   0.000000
    7       25.224614   0.000000
    8       28.512705   0.000000
 
 -0.4210526E+00  0.1052632E+00  0.0000000E+00  0.3499052E-02
    1        1.922794   1.000000
    2        4.470056   1.000000
    3       15.652856   0.000000
    4       17.786947   0.000000
    5       20.545393   0.000000
    6       22.505668   0.000000
    7       25.063817   0.000000
    8       28.727495   0.000000
 
 -0.3684211E+00  0.1052632E+00  0.0000000E+00  0.3499052E-02
    1        0.663229   1.000000
    2        6.113054   1.000000
    3       15.412899   0.000000
    4       18.325632   0.000000
    5       21.172309   0.000000
    6       22.339466   0.000000
    7       24.900973   0.000000
    8       29.137271   0.000000
 
 -0.3157895E+00  0.1052632E+00  0.0000000E+00  0.3499052E-02
    1       -0.462148   1.000000
    2        7.905917   1.000000
    3       15.306909   0.000000
    4       18.947312   0.000000
    5       21.936205   0.000000
    6       22.352288   0.000000
    7       24.767343   0.000000
    8       29.120778   0.000000
 
 -0.2631579E+00  0.1052632E+00  0.0000000E+00  0.3499052E-02
    1       -1.438153   1.000000
    2        9.828519   1.000000
    3       15.341276   0.000000
    4       19.614504   0.000000
    5       22.567356   0.000000
    6       22.819919   0.000000
    7       24.679436   0.000000
    8       27.483896   0.000000
 
 -0.2105263E+00  0.1052632E+00  0.0000000E+00  0.3499052E-02
    1       -2.260353   1.000000
    2       11.865267   0.000000
    3       15.517830   0.000000
    4       20.277779   0.000000
    5       22.963868   0.000000
    6       23.781547   0.000000
    7       24.607873   0.000000
    8       26.042065   0.000000
 
 -0.1578947E+00  0.1052632E+00  0.0000000E+00  0.3499052E-02
    1       -2.926163   1.000000
    2       13.987909   0.000000
    3       15.844464   0.000000
    4       20.884271   0.000000
    5       23.276245   0.000000
    6       24.463844   0.000000
    7       24.722285   0.000000
    8       25.130852   0.000000
 
 -0.1052632E+00  0.1052632E+00  0.0000000E+00  0.1749526E-02
    1       -3.433788   1.000000
    2       15.992519   0.000000
    3       16.482595   0.000000
    4       21.287557   0.000000
    5       22.920552   0.000000
    6       24.149507   0.000000
    7       25.189862   0.000000
    8       25.464394   0.000000
 
  0.1578947E+00  0.1578947E+00  0.0000000E+00  0.8747631E-03
    1       -3.326634   1.000000
    2       17.274633   0.000000
    3       17.274634   0.000000
    4       18.919516   0.000000
    5       19.239184   0.000000
    6       22.707053   0.000000
    7       27.215167   0.000000
    8       27.215167   0.000000
 
  0.2105263E+00  0.1578947E+00  0.0000000E+00  0.3499052E-02
    1       -2.925856   1.000000
    2       15.678883   0.000000
    3       16.740832   0.000000
    4       18.491715   0.000000
    5       19.261515   0.000000
    6       21.757638   0.000000
    7       27.856541   0.000000
    8       27.940296   0.000000
 
  0.2631579E+00  0.1578947E+00  0.0000000E+00  0.3499052E-02
    1       -2.366242   1.000000
    2       13.575558   0.000000
    3       16.342906   0.000000
    4       17.826986   0.000000
    5       19.331469   0.000000
    6       21.913249   0.000000
    7       27.805092   0.000000
    8       28.080128   0.000000
 
  0.3157895E+00  0.1578947E+00  0.0000000E+00  0.3499052E-02
    1       -1.649221   1.000000
    2       11.492861   0.000000
    3       16.082998   0.000000
    4       17.066188   0.000000
    5       18.975369   0.000000
    6       23.021781   0.000000
    7       27.125424   0.000000
    8       28.151875   0.000000
 
  0.3684211E+00  0.1578947E+00  0.0000000E+00  0.3499052E-02
    1       -0.776836   1.000000
    2        9.501500   1.000000
    3       15.961030   0.000000
    4       16.255121   0.000000
    5       18.733608   0.000000
    6       24.396007   0.000000
    7       26.335583   0.000000
    8       28.225174   0.000000
 
  0.4210526E+00  0.1578947E+00  0.0000000E+00  0.3499052E-02
    1        0.247931   1.000000
    2        7.626662   1.000000
    3       15.476961   0.000000
    4       15.976454   0.000000
    5       18.686126   0.000000
    6       25.590482   0.000000
    7       25.683905   0.000000
    8       28.491287   0.000000
 
  0.4736842E+00  0.1578947E+00  0.0000000E+00  0.3499052E-02
    1        1.419203   1.000000
    2        5.884427   1.000000
    3       14.787472   0.000000
    4       16.129605   0.000000
    5       18.822137   0.000000
    6       24.942874   0.000000
    7       26.439175   0.000000
    8       29.297343   0.000000
 
 -0.4736842E+00  0.1578947E+00  0.0000000E+00  0.3499052E-02
    1        2.705332   1.000000
    2        4.311195   1.000000
    3       14.213507   0.000000
    4       16.416788   0.000000
    5       19.123158   0.000000
    6       24.411310   0.000000
    7       26.574551   0.000000
    8       30.607888   0.000000
 
 -0.4210526E+00  0.1578947E+00  0.0000000E+00  0.3499052E-02
    1        2.705469   1.000000
    2        4.310331   1.000000
    3       13.771914   0.000000
    4       16.835438   0.000000
    5       19.581618   0.000000
    6       24.013362   0.000000
    7       26.448895   0.000000
    8       30.957055   0.000000
 
 -0.3684211E+00  0.1578947E+00  0.0000000E+00  0.3499052E-02
    1        1.419037   1.000000
    2        5.881890   1.000000
    3       13.468967   0.000000
    4       17.380041   0.000000
    5       20.189098   0.000000
    6       23.759240   0.000000
    7       26.251816   0.000000
    8       30.662088   0.000000
 
 -0.3157895E+00  0.1578947E+00  0.0000000E+00  0.3499052E-02
    1        0.247533   1.000000
    2        7.621143   1.000000
    3       13.309839   0.000000
    4       18.040823   0.000000
    5       20.936765   0.000000
    6       23.655246   0.000000
    7       26.049578   0.000000
    8       28.861150   0.000000
 
 -0.2631579E+00  0.1578947E+00  0.0000000E+00  0.3499052E-02
    1       -0.777259   1.000000
    2        9.488142   1.000000
    3       13.299917   0.000000
    4       18.801293   0.000000
    5       21.811320   0.000000
    6       23.709209   0.000000
    7       25.844453   0.000000
    8       27.151647   0.000000
 
 -0.2105263E+00  0.1578947E+00  0.0000000E+00  0.3499052E-02
    1       -1.649642   1.000000
    2       11.452436   0.000000
    3       13.455695   0.000000
    4       19.625529   0.000000
    5       22.788094   0.000000
    6       23.917699   0.000000
    7       25.578888   0.000000
    8       25.606833   0.000000
 
 -0.1578947E+00  0.1578947E+00  0.0000000E+00  0.1749526E-02
    1       -2.366620   1.000000
    2       13.271165   0.000000
    3       13.998984   0.000000
    4       20.423004   0.000000
    5       23.810575   0.000000
    6       23.949923   0.000000
    7       24.650381   0.000000
    8       25.139231   0.000000
 
  0.2105263E+00  0.2105263E+00  0.0000000E+00  0.8747631E-03
    1       -2.579063   1.000000
    2       16.161336   0.000000
    3       16.161337   0.000000
    4       17.670907   0.000000
    5       17.721035   0.000000
    6       20.534690   0.000000
    7       29.112003   0.000000
    8       29.112003   0.000000
 
  0.2631579E+00  0.2105263E+00  0.0000000E+00  0.3499052E-02
    1       -2.073385   1.000000
    2       14.622831   0.000000
    3       15.717731   0.000000
    4       16.732441   0.000000
    5       17.898223   0.000000
    6       20.133716   0.000000
    7       29.415068   0.000000
    8       29.755202   0.000000
 
  0.3157895E+00  0.2105263E+00  0.0000000E+00  0.3499052E-02
    1       -1.410192   1.000000
    2       12.594732   0.000000
    3       15.412417   0.000000
    4       15.734607   0.000000
    5       17.961819   0.000000
    6       20.875549   0.000000
    7       28.869009   0.000000
    8       29.976048   0.000000
 
  0.3684211E+00  0.2105263E+00  0.0000000E+00  0.3499052E-02
    1       -0.591262   1.000000
    2       10.596809   0.000000
    3       14.757918   0.000000
    4       15.245591   0.000000
    5       17.847995   0.000000
    6       22.239682   0.000000
    7       28.126031   0.000000
    8       29.966902   0.000000
 
  0.4210526E+00  0.2105263E+00  0.0000000E+00  0.3499052E-02
    1        0.380800   1.000000
    2        8.695966   1.000000
    3       13.866161   0.000000
    4       15.218362   0.000000
    5       17.828335   0.000000
    6       23.823260   0.000000
    7       27.381822   0.000000
    8       29.839784   0.000000
 
  0.4736842E+00  0.2105263E+00  0.0000000E+00  0.3499052E-02
    1        1.501650   1.000000
    2        6.916684   1.000000
    3       13.090329   0.000000
    4       15.329632   0.000000
    5       17.952908   0.000000
    6       25.458234   0.000000
    7       26.712013   0.000000
    8       29.679017   0.000000
 
 -0.4736842E+00  0.2105263E+00  0.0000000E+00  0.3499052E-02
    1        2.757049   1.000000
    2        5.281914   1.000000
    3       12.445456   0.000000
    4       15.578261   0.000000
    5       18.228042   0.000000
    6       26.145537   0.000000
    7       26.897002   0.000000
    8       29.681052   0.000000
 
 -0.4210526E+00  0.2105263E+00  0.0000000E+00  0.3499052E-02
    1        3.580219   1.000000
    2        4.361723   1.000000
    3       11.940855   0.000000
    4       15.962581   0.000000
    5       18.655029   0.000000
    6       25.702824   0.000000
    7       27.623030   0.000000
    8       30.262837   0.000000
 
 -0.3684211E+00  0.2105263E+00  0.0000000E+00  0.3499052E-02
    1        2.325949   1.000000
    2        5.801783   1.000000
    3       11.582601   0.000000
    4       16.480291   0.000000
    5       19.230532   0.000000
    6       25.395990   0.000000
    7       27.637539   0.000000
    8       30.607174   0.000000
 
 -0.3157895E+00  0.2105263E+00  0.0000000E+00  0.3499052E-02
    1        1.111150   1.000000
    2        7.478620   1.000000
    3       11.377762   0.000000
    4       17.124109   0.000000
    5       19.947038   0.000000
    6       25.223540   0.000000
    7       27.392600   0.000000
    8       28.747636   0.000000
 
 -0.2631579E+00  0.2105263E+00  0.0000000E+00  0.3499052E-02
    1        0.038938   1.000000
    2        9.263646   1.000000
    3       11.348822   0.000000
    4       17.885643   0.000000
    5       20.795171   0.000000
    6       25.197576   0.000000
    7       26.974519   0.000000
    8       27.003856   0.000000
 
 -0.2105263E+00  0.2105263E+00  0.0000000E+00  0.1749526E-02
    1       -0.882454   1.000000
    2       10.887151   0.000000
    3       11.749701   0.000000
    4       18.740800   0.000000
    5       21.755606   0.000000
    6       25.284872   0.000000
    7       25.378972   0.000000
    8       26.414818   0.000000
 
  0.2631579E+00  0.2631579E+00  0.0000000E+00  0.8747631E-03
    1       -1.621874   1.000000
    2       15.227879   0.000000
    3       15.227880   0.000000
    4       15.486153   0.000000
    5       16.689209   0.000000
    6       19.119938   0.000000
    7       30.928507   0.000000
    8       30.928507   0.000000
 
  0.3157895E+00  0.2631579E+00  0.0000000E+00  0.3499052E-02
    1       -1.012853   1.000000
    2       13.707327   0.000000
    3       14.418876   0.000000
    4       14.876419   0.000000
    5       16.915808   0.000000
    6       19.097817   0.000000
    7       30.640116   0.000000
    8       31.532392   0.000000
 
  0.3684211E+00  0.2631579E+00  0.0000000E+00  0.3499052E-02
    1       -0.248012   1.000000
    2       11.785280   0.000000
    3       13.321311   0.000000
    4       14.664417   0.000000
    5       17.062764   0.000000
    6       20.104682   0.000000
    7       29.978103   0.000000
    8       31.685642   0.000000
 
  0.4210526E+00  0.2631579E+00  0.0000000E+00  0.3499052E-02
    1        0.670431   1.000000
    2        9.887070   1.000000
    3       12.337088   0.000000
    4       14.592032   0.000000
    5       17.088995   0.000000
    6       21.624061   0.000000
    7       29.265289   0.000000
    8       31.542663   0.000000
 
  0.4736842E+00  0.2631579E+00  0.0000000E+00  0.3499052E-02
    1        1.738561   1.000000
    2        8.084342   1.000000
    3       11.485083   0.000000
    4       14.658960   0.000000
    5       17.198662   0.000000
    6       23.347367   0.000000
    7       28.585730   0.000000
    8       31.211798   0.000000
 
 -0.4736842E+00  0.2631579E+00  0.0000000E+00  0.3499052E-02
    1        2.948199   1.000000
    2        6.408201   1.000000
    3       10.774778   0.000000
    4       14.864818   0.000000
    5       17.443183   0.000000
    6       25.163833   0.000000
    7       27.997489   0.000000
    8       30.789624   0.000000
 
 -0.4210526E+00  0.2631579E+00  0.0000000E+00  0.3499052E-02
    1        4.204077   1.000000
    2        4.960780   1.000000
    3       10.212007   0.184764
    4       15.208511   0.000000
    5       17.832686   0.000000
    6       26.954644   0.000000
    7       27.518199   0.000000
    8       30.343868   0.000000
 
 -0.3684211E+00  0.2631579E+00  0.0000000E+00  0.3499052E-02
    1        3.379062   1.000000
    2        5.868398   1.000000
    3        9.805486   1.000000
    4       15.688126   0.000000
    5       18.369373   0.000000
    6       27.160144   0.000000
    7       28.424676   0.000000
    8       30.013493   0.000000
 
 -0.3157895E+00  0.2631579E+00  0.0000000E+00  0.3499052E-02
    1        2.125780   1.000000
    2        7.453887   1.000000
    3        9.579884   1.000000
    4       16.299917   0.000000
    5       19.048229   0.000000
    6       26.919160   0.000000
    7       28.684594   0.000000
    8       28.806006   0.000000
 
 -0.2631579E+00  0.2631579E+00  0.0000000E+00  0.1749526E-02
    1        1.007976   1.000000
    2        8.881849   1.000000
    3        9.805332   1.000000
    4       17.037940   0.000000
    5       19.863182   0.000000
    6       26.631926   0.000000
    7       27.186551   0.000000
    8       28.008184   0.000000
 
  0.3157895E+00  0.3157895E+00  0.0000000E+00  0.8747631E-03
    1       -0.458287   1.000000
    2       13.052868   0.000000
    3       14.478662   0.000000
    4       14.478663   0.000000
    5       15.848179   0.000000
    6       18.206425   0.000000
    7       32.156370   0.000000
    8       32.616631   0.000000
 
  0.3684211E+00  0.3157895E+00  0.0000000E+00  0.3499052E-02
    1        0.252070   1.000000
    2       11.865877   0.000000
    3       13.136168   0.000000
    4       14.220681   0.000000
    5       16.184253   0.000000
    6       18.376292   0.000000
    7       31.806756   0.000000
    8       33.142782   0.000000
 
  0.4210526E+00  0.3157895E+00  0.0000000E+00  0.3499052E-02
    1        1.115778   1.000000
    2       10.729731   0.000000
    3       11.375729   0.000000
    4       14.102323   0.000000
    5       16.427311   0.000000
    6       19.537840   0.000000
    7       31.172719   0.000000
    8       33.176791   0.000000
 
  0.4736842E+00  0.3157895E+00  0.0000000E+00  0.3499052E-02
    1        2.129450   1.000000
    2        9.299031   1.000000
    3       10.080222   0.997673
    4       14.123906   0.000000
    5       16.563886   0.000000
    6       21.176216   0.000000
    7       30.523910   0.000000
    8       32.868658   0.000000
 
 -0.4736842E+00  0.3157895E+00  0.0000000E+00  0.3499052E-02
    1        3.286516   1.000000
    2        7.650747   1.000000
    3        9.252740   1.000000
    4       14.285114   0.000000
    5       16.785284   0.000000
    6       23.016974   0.000000
    7       29.925922   0.000000
    8       32.348340   0.000000
 
 -0.4210526E+00  0.3157895E+00  0.0000000E+00  0.3499052E-02
    1        4.559770   1.000000
    2        6.104201   1.000000
    3        8.625397   1.000000
    4       14.585226   0.000000
    5       17.138750   0.000000
    6       24.960923   0.000000
    7       29.406497   0.000000
    8       31.684671   0.000000
 
 -0.3684211E+00  0.3157895E+00  0.0000000E+00  0.3499052E-02
    1        4.567538   1.000000
    2        6.057939   1.000000
    3        8.189985   1.000000
    4       15.023030   0.000000
    5       17.634331   0.000000
    6       26.920883   0.000000
    7       28.970805   0.000000
    8       30.874621   0.000000
 
 -0.3157895E+00  0.3157895E+00  0.0000000E+00  0.1749526E-02
    1        3.285865   1.000000
    2        7.270219   1.000000
    3        8.216891   1.000000
    4       15.596225   0.000000
    5       18.273001   0.000000
    6       28.405722   0.000000
    7       28.752185   0.000000
    8       29.332180   0.000000
 
  0.3684211E+00  0.3684211E+00  0.0000000E+00  0.8747631E-03
    1        0.907249   1.000000
    2       10.647820   0.000000
    3       13.915883   0.000000
    4       13.915884   0.000000
    5       15.216558   0.000000
    6       17.577863   0.000000
    7       33.152215   0.000000
    8       34.141335   0.000000
 
  0.4210526E+00  0.3684211E+00  0.0000000E+00  0.3499052E-02
    1        1.715195   1.000000
    2        9.535134   1.000000
    3       12.628518   0.000000
    4       13.751446   0.000000
    5       15.664745   0.000000
    6       17.876103   0.000000
    7       32.962046   0.000000
    8       34.548664   0.000000
 
  0.4736842E+00  0.3684211E+00  0.0000000E+00  0.3499052E-02
    1        2.672086   1.000000
    2        8.555889   1.000000
    3       10.876108   0.000000
    4       13.726993   0.000000
    5       16.008009   0.000000
    6       19.158527   0.000000
    7       32.411342   0.000000
    8       34.404453   0.000000
 