unknown system                          
           1
     2.347395    0.000000    1.355268
     0.782465    2.213145    1.355268
     0.000000    0.000000    2.710538
   Si
     1
Direct configuration=     1
   0.00000000  0.00000000  0.00000000
unknown system                          
           1
     2.371234   -0.000000    1.369032
     0.790411    2.235621    1.369032
    -0.000000   -0.000000    2.738065
   Si
     1
Direct configuration=     2
   0.00000000  0.00000000 -0.00000000
unknown system                          
           1
     2.370412   -0.000000    1.368557
     0.790137    2.234846    1.368557
    -0.000000   -0.000000    2.737116
   Si
     1
Direct configuration=     3
   0.00000000  0.00000000 -0.00000000
