   1   1   0   0
  0.1408159E+02  0.2710538E-09  0.2710538E-09  0.2710538E-09  0.5000000E-15
  1.000000000000000E-004
  CAR 
 unknown system                          
     37.62208562     -6.32203829  301      9.88991633      1.00000000
     -6.322  0.0000E+00  0.0000E+00
     -6.176  0.0000E+00  0.0000E+00
     -6.029  0.0000E+00  0.0000E+00
     -5.883  0.0000E+00  0.0000E+00
     -5.736  0.0000E+00  0.0000E+00
     -5.590  0.0000E+00  0.0000E+00
     -5.443  0.0000E+00  0.0000E+00
     -5.297  0.0000E+00  0.0000E+00
     -5.150  0.0000E+00  0.0000E+00
     -5.004  0.0000E+00  0.0000E+00
     -4.857  0.0000E+00  0.0000E+00
     -4.711  0.0000E+00  0.0000E+00
     -4.564  0.1128E-14  0.1653E-15
     -4.418  0.7844E-06  0.1149E-06
     -4.271  0.1742E-03  0.2563E-04
     -4.125  0.1236E-04  0.2744E-04
     -3.978  0.5721E-03  0.1112E-03
     -3.832  0.1695E-02  0.3595E-03
     -3.685  0.3550E-03  0.4115E-03
     -3.539  0.5755E-08  0.4115E-03
     -3.392  0.6834E-03  0.5116E-03
     -3.246  0.1564E-02  0.7407E-03
     -3.099  0.5162E-04  0.7483E-03
     -2.953  0.4411E-02  0.1394E-02
     -2.807  0.1526E-02  0.1618E-02
     -2.660  0.5612E-05  0.1619E-02
     -2.514  0.8661E-05  0.1620E-02
     -2.367  0.1067E-02  0.1776E-02
     -2.221  0.4803E-04  0.1783E-02
     -2.074  0.2311E-02  0.2122E-02
     -1.928  0.5769E-02  0.2967E-02
     -1.781  0.9103E-03  0.3100E-02
     -1.635  0.7516E-07  0.3100E-02
     -1.488  0.2229E-02  0.3427E-02
     -1.342  0.2266E-02  0.3759E-02
     -1.195  0.2698E-03  0.3798E-02
     -1.049  0.5680E-02  0.4630E-02
     -0.902  0.4340E-04  0.4636E-02
     -0.756  0.8169E-11  0.4636E-02
     -0.609  0.1125E-03  0.4653E-02
     -0.463  0.2121E-02  0.4964E-02
     -0.316  0.1906E-04  0.4966E-02
     -0.170  0.7347E-02  0.6043E-02
     -0.023  0.7043E-02  0.7074E-02
      0.123  0.2137E-03  0.7106E-02
      0.270  0.3067E-05  0.7106E-02
      0.416  0.3713E-02  0.7650E-02
      0.563  0.7792E-03  0.7764E-02
      0.709  0.1582E-02  0.7996E-02
      0.856  0.5698E-02  0.8830E-02
      1.002  0.1710E-02  0.9081E-02
      1.148  0.8025E-07  0.9081E-02
      1.295  0.8690E-03  0.9208E-02
      1.441  0.6293E-03  0.9300E-02
      1.588  0.2968E-03  0.9344E-02
      1.734  0.9350E-02  0.1071E-01
      1.881  0.3835E-02  0.1128E-01
      2.027  0.3281E-05  0.1128E-01
      2.174  0.1101E-02  0.1144E-01
      2.320  0.7876E-02  0.1259E-01
      2.467  0.9770E-03  0.1273E-01
      2.613  0.1143E-01  0.1441E-01
      2.760  0.1089E-02  0.1457E-01
      2.906  0.4831E-09  0.1457E-01
      3.053  0.6789E-05  0.1457E-01
      3.199  0.1059E-02  0.1472E-01
      3.346  0.1309E-03  0.1474E-01
      3.492  0.4329E-02  0.1538E-01
      3.639  0.4104E-02  0.1598E-01
      3.785  0.4653E-02  0.1666E-01
      3.932  0.3326E-03  0.1671E-01
      4.078  0.5755E-02  0.1755E-01
      4.225  0.9855E-03  0.1770E-01
      4.371  0.7287E-02  0.1876E-01
      4.518  0.3049E-02  0.1921E-01
      4.664  0.3893E-02  0.1978E-01
      4.810  0.7503E-03  0.1989E-01
      4.957  0.4305E-02  0.2052E-01
      5.103  0.2437E-02  0.2088E-01
      5.250  0.2868E-05  0.2088E-01
      5.396  0.6893E-02  0.2189E-01
      5.543  0.9819E-02  0.2333E-01
      5.689  0.1404E-02  0.2353E-01
      5.836  0.3790E-02  0.2409E-01
      5.982  0.6963E-02  0.2511E-01
      6.129  0.3468E-03  0.2516E-01
      6.275  0.1262E-09  0.2516E-01
      6.422  0.3656E-03  0.2521E-01
      6.568  0.4116E-02  0.2581E-01
      6.715  0.5215E-03  0.2589E-01
      6.861  0.5941E-02  0.2676E-01
      7.008  0.3641E-03  0.2681E-01
      7.154  0.6069E-02  0.2770E-01
      7.301  0.3268E-02  0.2818E-01
      7.447  0.2369E-02  0.2853E-01
      7.594  0.3404E-02  0.2903E-01
      7.740  0.1703E-01  0.3152E-01
      7.887  0.2625E-02  0.3191E-01
      8.033  0.1697E-02  0.3216E-01
      8.180  0.3645E-02  0.3269E-01
      8.326  0.6628E-02  0.3366E-01
      8.472  0.3248E-02  0.3414E-01
      8.619  0.4234E-02  0.3476E-01
      8.765  0.2637E-04  0.3476E-01
      8.912  0.2294E-05  0.3476E-01
      9.058  0.6721E-02  0.3574E-01
      9.205  0.2266E-02  0.3608E-01
      9.351  0.2514E-03  0.3611E-01
      9.498  0.8574E-02  0.3737E-01
      9.644  0.9024E-02  0.3869E-01
      9.791  0.3194E-02  0.3916E-01
      9.937  0.5923E-02  0.4003E-01
     10.084  0.4497E-05  0.4003E-01
     10.230  0.9806E-04  0.4004E-01
     10.377  0.8061E-02  0.4122E-01
     10.523  0.8308E-03  0.4134E-01
     10.670  0.2909E-02  0.4177E-01
     10.816  0.6769E-02  0.4276E-01
     10.963  0.8156E-02  0.4396E-01
     11.109  0.4030E-03  0.4402E-01
     11.256  0.1360E-01  0.4601E-01
     11.402  0.5570E-02  0.4682E-01
     11.549  0.8305E-03  0.4695E-01
     11.695  0.4704E-02  0.4763E-01
     11.842  0.4893E-02  0.4835E-01
     11.988  0.8431E-02  0.4959E-01
     12.134  0.5227E-02  0.5035E-01
     12.281  0.3128E-03  0.5040E-01
     12.427  0.4104E-03  0.5046E-01
     12.574  0.7189E-02  0.5151E-01
     12.720  0.2890E-02  0.5193E-01
     12.867  0.2104E-02  0.5224E-01
     13.013  0.1503E-01  0.5444E-01
     13.160  0.5558E-02  0.5526E-01
     13.306  0.9911E-02  0.5671E-01
     13.453  0.3174E-02  0.5717E-01
     13.599  0.1559E-02  0.5740E-01
     13.746  0.3201E-02  0.5787E-01
     13.892  0.4712E-02  0.5856E-01
     14.039  0.4224E-02  0.5918E-01
     14.185  0.6971E-02  0.6020E-01
     14.332  0.4250E-02  0.6082E-01
     14.478  0.7924E-02  0.6199E-01
     14.625  0.2087E-02  0.6229E-01
     14.771  0.9450E-04  0.6230E-01
     14.918  0.2320E-02  0.6264E-01
     15.064  0.1588E-01  0.6497E-01
     15.211  0.6519E-02  0.6593E-01
     15.357  0.3729E-04  0.6593E-01
     15.504  0.9019E-02  0.6725E-01
     15.650  0.3529E-02  0.6777E-01
     15.797  0.3247E-02  0.6824E-01
     15.943  0.7796E-02  0.6939E-01
     16.089  0.4357E-02  0.7002E-01
     16.236  0.4533E-02  0.7069E-01
     16.382  0.1038E-03  0.7070E-01
     16.529  0.5578E-02  0.7152E-01
     16.675  0.1452E-01  0.7365E-01
     16.822  0.2365E-02  0.7399E-01
     16.968  0.1099E-02  0.7416E-01
     17.115  0.3842E-02  0.7472E-01
     17.261  0.3614E-02  0.7525E-01
     17.408  0.5145E-02  0.7600E-01
     17.554  0.2583E-02  0.7638E-01
     17.701  0.8493E-02  0.7762E-01
     17.847  0.5804E-02  0.7847E-01
     17.994  0.4541E-02  0.7914E-01
     18.140  0.3558E-02  0.7966E-01
     18.287  0.5144E-02  0.8041E-01
     18.433  0.3353E-02  0.8091E-01
     18.580  0.1182E-01  0.8264E-01
     18.726  0.1652E-03  0.8266E-01
     18.873  0.3490E-02  0.8317E-01
     19.019  0.5885E-02  0.8403E-01
     19.166  0.3629E-03  0.8409E-01
     19.312  0.3216E-02  0.8456E-01
     19.459  0.1344E-01  0.8653E-01
     19.605  0.5681E-02  0.8736E-01
     19.751  0.6032E-02  0.8824E-01
     19.898  0.7421E-02  0.8933E-01
     20.044  0.1628E-01  0.9172E-01
     20.191  0.3738E-02  0.9226E-01
     20.337  0.9786E-06  0.9226E-01
     20.484  0.6498E-03  0.9236E-01
     20.630  0.4931E-02  0.9308E-01
     20.777  0.1429E-01  0.9517E-01
     20.923  0.2641E-02  0.9556E-01
     21.070  0.9198E-02  0.9691E-01
     21.216  0.1225E-01  0.9870E-01
     21.363  0.9364E-02  0.1001E+00
     21.509  0.4166E-02  0.1007E+00
     21.656  0.8038E-05  0.1007E+00
     21.802  0.9924E-07  0.1007E+00
     21.949  0.2571E-02  0.1011E+00
     22.095  0.3159E-02  0.1015E+00
     22.242  0.6853E-02  0.1025E+00
     22.388  0.4408E-02  0.1032E+00
     22.535  0.6351E-04  0.1032E+00
     22.681  0.4689E-02  0.1039E+00
     22.828  0.1287E-01  0.1058E+00
     22.974  0.2764E-02  0.1062E+00
     23.121  0.5567E-02  0.1070E+00
     23.267  0.1159E-01  0.1087E+00
     23.413  0.6783E-02  0.1097E+00
     23.560  0.4620E-02  0.1103E+00
     23.706  0.2164E-01  0.1135E+00
     23.853  0.1128E-01  0.1152E+00
     23.999  0.4452E-02  0.1158E+00
     24.146  0.2126E-02  0.1161E+00
     24.292  0.1315E-04  0.1161E+00
     24.439  0.9409E-03  0.1163E+00
     24.585  0.7479E-02  0.1174E+00
     24.732  0.2883E-02  0.1178E+00
     24.878  0.7316E-02  0.1189E+00
     25.025  0.2716E-02  0.1193E+00
     25.171  0.9326E-02  0.1206E+00
     25.318  0.2596E-01  0.1244E+00
     25.464  0.9755E-02  0.1259E+00
     25.611  0.4526E-02  0.1265E+00
     25.757  0.4384E-02  0.1272E+00
     25.904  0.5566E-04  0.1272E+00
     26.050  0.6003E-02  0.1280E+00
     26.197  0.1236E-01  0.1299E+00
     26.343  0.1065E-02  0.1300E+00
     26.490  0.2435E-03  0.1300E+00
     26.636  0.6865E-02  0.1311E+00
     26.783  0.1112E-01  0.1327E+00
     26.929  0.1999E-02  0.1330E+00
     27.075  0.3091E-03  0.1330E+00
     27.222  0.4374E-02  0.1337E+00
     27.368  0.7351E-02  0.1347E+00
     27.515  0.3992E-02  0.1353E+00
     27.661  0.5390E-02  0.1361E+00
     27.808  0.1663E-01  0.1385E+00
     27.954  0.3579E-03  0.1386E+00
     28.101  0.5155E-02  0.1394E+00
     28.247  0.3827E-02  0.1399E+00
     28.394  0.9813E-06  0.1399E+00
     28.540  0.1111E-05  0.1399E+00
     28.687  0.4760E-02  0.1406E+00
     28.833  0.1260E-01  0.1425E+00
     28.980  0.1228E-01  0.1443E+00
     29.126  0.9016E-02  0.1456E+00
     29.273  0.4376E-02  0.1462E+00
     29.419  0.2856E-02  0.1466E+00
     29.566  0.8990E-02  0.1480E+00
     29.712  0.1227E-01  0.1498E+00
     29.859  0.1810E-02  0.1500E+00
     30.005  0.9888E-02  0.1515E+00
     30.152  0.6156E-02  0.1524E+00
     30.298  0.2654E-02  0.1528E+00
     30.445  0.1894E-06  0.1528E+00
     30.591  0.1758E-09  0.1528E+00
     30.738  0.4931E-03  0.1528E+00
     30.884  0.3994E-02  0.1534E+00
     31.030  0.7994E-05  0.1534E+00
     31.177  0.5612E-06  0.1534E+00
     31.323  0.4207E-02  0.1540E+00
     31.470  0.4781E-02  0.1547E+00
     31.616  0.1157E-05  0.1547E+00
     31.763  0.2934E-14  0.1547E+00
     31.909  0.1043E-04  0.1547E+00
     32.056  0.7754E-02  0.1559E+00
     32.202  0.1370E-02  0.1561E+00
     32.349  0.5387E-02  0.1569E+00
     32.495  0.3058E-02  0.1573E+00
     32.642  0.1523E-02  0.1575E+00
     32.788  0.2348E-06  0.1575E+00
     32.935  0.8158E-03  0.1577E+00
     33.081  0.3077E-03  0.1577E+00
     33.228  0.2945E-06  0.1577E+00
     33.374  0.3746E-02  0.1582E+00
     33.521  0.5190E-02  0.1590E+00
     33.667  0.2301E-02  0.1593E+00
     33.814  0.8775E-07  0.1593E+00
     33.960  0.7910E-12  0.1593E+00
     34.107  0.3143E-04  0.1593E+00
     34.253  0.1078E-02  0.1595E+00
     34.400  0.1441E-04  0.1595E+00
     34.546  0.1030E-12  0.1595E+00
     34.692  0.6703E-12  0.1595E+00
     34.839  0.4555E-04  0.1595E+00
     34.985  0.2161E-02  0.1598E+00
     35.132  0.4066E-04  0.1598E+00
     35.278  0.4983E-12  0.1598E+00
     35.425  0.9033E-11  0.1598E+00
     35.571  0.7412E-04  0.1598E+00
     35.718  0.1045E-02  0.1600E+00
     35.864  0.4706E-05  0.1600E+00
     36.011  0.6771E-14  0.1600E+00
     36.157  0.0000E+00  0.1600E+00
     36.304  0.0000E+00  0.1600E+00
     36.450  0.0000E+00  0.1600E+00
     36.597  0.0000E+00  0.1600E+00
     36.743  0.0000E+00  0.1600E+00
     36.890  0.0000E+00  0.1600E+00
     37.036  0.0000E+00  0.1600E+00
     37.183  0.0000E+00  0.1600E+00
     37.329  0.0000E+00  0.1600E+00
     37.476  0.0000E+00  0.1600E+00
     37.622  0.0000E+00  0.1600E+00
