    1    1  100    1
  0.1408159E+02  0.2710538E-09  0.2710538E-09  0.2710538E-09  0.5000000E-15
  1.000000000000000E-004
  CAR 
 unknown system                          
      4     35      8
 
  0.0000000E+00  0.0000000E+00  0.0000000E+00  0.1371742E-02
    1       -4.324578   1.000000
    2       21.051716   0.000000
    3       21.051723   0.000000
    4       21.051731   0.000000
    5       21.956038   0.000000
    6       21.956047   0.000000
    7       21.956056   0.000000
    8       27.238055   0.000000
 
  0.1111111E+00  0.6938894E-17  0.0000000E+00  0.1097394E-01
    1       -3.967709   1.000000
    2       17.111712   0.000000
    3       19.905317   0.000000
    4       19.905328   0.000000
    5       23.186462   0.000000
    6       23.481989   0.000000
    7       23.482003   0.000000
    8       27.419544   0.000000
 
  0.2222222E+00  0.0000000E+00  0.0000000E+00  0.1097394E-01
    1       -2.901056   1.000000
    2       12.448780   0.000000
    3       18.949552   0.000000
    4       18.949561   0.000000
    5       23.102688   0.000000
    6       23.807025   0.000000
    7       23.807035   0.000000
    8       27.434429   0.000000
 
  0.3333333E+00  0.0000000E+00  0.0000000E+00  0.1097394E-01
    1       -1.137474   1.000000
    2        8.173812   1.000000
    3       18.521389   0.000000
    4       18.521396   0.000000
    5       22.176087   0.000000
    6       22.176097   0.000000
    7       23.025033   0.000000
    8       27.283567   0.000000
 
  0.4444444E+00  0.0000000E+00  0.0000000E+00  0.1097394E-01
    1        1.287806   1.000000
    2        4.472344   1.000000
    3       18.486040   0.000000
    4       18.486044   0.000000
    5       21.036771   0.000000
    6       21.036784   0.000000
    7       23.177490   0.000000
    8       25.970854   0.000000
 
  0.1111111E+00  0.1111111E+00  0.0000000E+00  0.8230453E-02
    1       -3.848824   1.000000
    2       18.251210   0.000000
    3       18.251211   0.000000
    4       19.959273   0.000000
    5       19.997810   0.000000
    6       24.872390   0.000000
    7       25.331433   0.000000
    8       25.331434   0.000000
 
  0.2222222E+00  0.1111111E+00  0.0000000E+00  0.3292181E-01
    1       -3.018988   1.000000
    2       14.223464   0.000000
    3       17.120957   0.000000
    4       18.846898   0.000000
    5       20.780417   0.000000
    6       23.106232   0.000000
    7       26.170132   0.000000
    8       26.567590   0.000000
 
  0.3333333E+00  0.1111111E+00  0.0000000E+00  0.3292181E-01
    1       -1.487829   1.000000
    2        9.827911   0.960265
    3       16.591430   0.000000
    4       17.747404   0.000000
    5       19.748354   0.000000
    6       24.762147   0.000000
    7       25.185957   0.000000
    8       26.776630   0.000000
 
  0.4444444E+00  0.1111111E+00  0.0000000E+00  0.3292181E-01
    1        0.722465   1.000000
    2        5.931934   1.000000
    3       16.469642   0.000000
    4       16.663293   0.000000
    5       19.435388   0.000000
    6       23.649043   0.000000
    7       25.298575   0.000000
    8       28.703865   0.000000
 
 -0.4444444E+00  0.1111111E+00  0.0000000E+00  0.3292181E-01
    1        2.495112   1.000000
    2        3.733578   1.000000
    3       15.447942   0.000000
    4       17.312443   0.000000
    5       20.066537   0.000000
    6       22.635289   0.000000
    7       25.086181   0.000000
    8       28.663541   0.000000
 
 -0.3333333E+00  0.1111111E+00  0.0000000E+00  0.3292181E-01
    1       -0.087351   1.000000
    2        7.164124   1.000000
    3       14.963279   0.000000
    4       18.463767   0.000000
    5       21.406240   0.000000
    6       22.308240   0.000000
    7       24.748429   0.000000
    8       29.462686   0.000000
 
 -0.2222222E+00  0.1111111E+00  0.0000000E+00  0.3292181E-01
    1       -2.075310   1.000000
    2       11.240649   0.000000
    3       15.092190   0.000000
    4       19.893880   0.000000
    5       22.789720   0.000000
    6       23.293509   0.000000
    7       24.544907   0.000000
    8       26.109014   0.000000
 
 -0.1111111E+00  0.1111111E+00  0.0000000E+00  0.1646091E-01
    1       -3.374301   1.000000
    2       15.545988   0.000000
    3       16.042959   0.000000
    4       21.039215   0.000000
    5       22.869462   0.000000
    6       24.056758   0.000000
    7       24.977534   0.000000
    8       25.131668   0.000000
 
  0.2222222E+00  0.2222222E+00  0.0000000E+00  0.8230453E-02
    1       -2.427899   1.000000
    2       15.792560   0.000000
    3       15.792561   0.000000
    4       17.044289   0.000000
    5       17.364337   0.000000
    6       20.020985   0.000000
    7       29.309503   0.000000
    8       29.309504   0.000000
 
  0.3333333E+00  0.2222222E+00  0.0000000E+00  0.3292181E-01
    1       -1.134504   1.000000
    2       12.057471   0.000000
    3       14.939966   0.000000
    4       15.064824   0.000000
    5       17.599553   0.000000
    6       20.659570   0.000000
    7       28.830146   0.000000
    8       30.159049   0.000000
 
  0.4444444E+00  0.2222222E+00  0.0000000E+00  0.3292181E-01
    1        0.844737   1.000000
    2        8.044065   1.000000
    3       13.015462   0.000000
    4       14.953670   0.000000
    5       17.559286   0.000000
    6       23.898433   0.000000
    7       27.295578   0.000000
    8       29.897761   0.000000
 
 -0.4444444E+00  0.2222222E+00  0.0000000E+00  0.3292181E-01
    1        3.421212   1.000000
    2        4.629806   1.000000
    3       11.635368   0.000000
    4       15.455048   0.000000
    5       18.120101   0.000000
    6       26.100873   0.000000
    7       27.128003   0.000000
    8       29.656766   0.000000
 
 -0.3333333E+00  0.2222222E+00  0.0000000E+00  0.3292181E-01
    1        1.649724   1.000000
    2        6.807695   1.000000
    3       10.897019   0.000000
    4       16.552198   0.000000
    5       19.340736   0.000000
    6       25.462686   0.000000
    7       27.582125   0.000000
    8       29.169706   0.000000
 
 -0.2222222E+00  0.2222222E+00  0.0000000E+00  0.1646091E-01
    1       -0.551168   1.000000
    2       10.309303   0.000000
    3       11.158953   0.000000
    4       18.181574   0.000000
    5       21.157355   0.000000
    6       25.354463   0.000000
    7       25.587323   0.000000
    8       26.539019   0.000000
 
  0.3333333E+00  0.3333333E+00  0.0000000E+00  0.8230453E-02
    1       -0.081757   1.000000
    2       12.107142   0.000000
    3       14.133341   0.000000
    4       14.133342   0.000000
    5       15.512578   0.000000
    6       17.815709   0.000000
    7       32.281627   0.000000
    8       32.913456   0.000000
 
  0.4444444E+00  0.3333333E+00  0.0000000E+00  0.3292181E-01
    1        1.656697   1.000000
    2        9.787768   0.998069
    3       10.854046   0.000000
    4       13.819873   0.000000
    5       16.160376   0.000000
    6       19.399861   0.000000
    7       31.306494   0.000000
    8       33.363455   0.000000
 
 -0.4444444E+00  0.3333333E+00  0.0000000E+00  0.3292181E-01
    1        4.040744   1.000000
    2        7.083754   1.000000
    3        8.323464   1.000000
    4       14.126216   0.000000
    5       16.638169   0.000000
    6       23.197884   0.000000
    7       30.064424   0.000000
    8       32.269232   0.000000
 
 -0.3333333E+00  0.3333333E+00  0.0000000E+00  0.1646091E-01
    1        4.040689   1.000000
    2        6.742320   1.000000
    3        7.669276   1.000000
    4       15.046130   0.000000
    5       17.683889   0.000000
    6       27.361396   0.000000
    7       28.867153   0.000000
    8       29.922874   0.000000
 
  0.4444444E+00  0.4444444E+00  0.0000000E+00  0.8230453E-02
    1        3.141440   1.000000
    2        7.312216   1.000000
    3       13.300688   0.000000
    4       13.300689   0.000000
    5       14.575939   0.000000
    6       16.895603   0.000000
    7       34.174137   0.000000
    8       35.624625   0.000000
 
 -0.4444444E+00  0.4444444E+00  0.0000000E+00  0.1646091E-01
    1        4.951445   1.000000
    2        5.743926   1.000000
    3       10.357581   0.000000
    4       13.403587   0.000000
    5       15.695242   0.000000
    6       18.979012   0.000000
    7       33.380481   0.000000
    8       34.911375   0.000000
 
  0.3333333E+00  0.2222222E+00  0.1111111E+00  0.3292181E-01
    1       -1.957069   1.000000
    2       12.950728   0.000000
    3       13.617253   0.000000
    4       17.917637   0.000000
    5       21.009055   0.000000
    6       22.132991   0.000000
    7       26.006030   0.000000
    8       28.122995   0.000000
 
  0.4444444E+00  0.2222222E+00  0.1111111E+00  0.6584362E-01
    1       -0.201178   1.000000
    2        9.034792   1.000000
    3       12.996171   0.000000
    4       15.918863   0.000000
    5       21.137866   0.000000
    6       23.732552   0.000000
    7       25.208580   0.000000
    8       28.823134   0.000000
 
 -0.4444444E+00  0.2222222E+00  0.1111111E+00  0.6584362E-01
    1        2.214934   1.000000
    2        5.370746   1.000000
    3       13.229713   0.000000
    4       14.436281   0.000000
    5       21.289415   0.000000
    6       22.733016   0.000000
    7       27.705066   0.000000
    8       29.610264   0.000000
 
  0.4444444E+00  0.3333333E+00  0.1111111E+00  0.3292181E-01
    1        0.382790   1.000000
    2       11.191443   0.000000
    3       11.740520   0.000000
    4       12.870536   0.000000
    5       19.312003   0.000000
    6       20.521358   0.000000
    7       28.058804   0.000000
    8       32.480581   0.000000
 
 -0.4444444E+00  0.3333333E+00  0.1111111E+00  0.6584362E-01
    1        2.571883   1.000000
    2        7.684519   1.000000
    3       10.685874   0.000000
    4       11.893175   0.000000
    5       19.951866   0.000000
    6       23.591238   0.000000
    7       26.692683   0.000000
    8       32.017039   0.000000
 
 -0.3333333E+00  0.3333333E+00  0.1111111E+00  0.6584362E-01
    1        4.339890   1.000000
    2        5.504816   1.000000
    3        9.567249   1.000000
    4       12.557535   0.000000
    5       20.703606   0.000000
    6       25.257260   0.000000
    7       27.744821   0.000000
    8       29.035330   0.000000
 
 -0.2222222E+00  0.3333333E+00  0.1111111E+00  0.3292181E-01
    1        1.768343   1.000000
    2        8.529864   1.000000
    3        9.408554   1.000000
    4       13.940438   0.000000
    5       21.946933   0.000000
    6       24.467611   0.000000
    7       25.319451   0.000000
    8       31.347051   0.000000
 
 -0.4444444E+00  0.4444444E+00  0.1111111E+00  0.3292181E-01
    1        3.595499   1.000000
    2        7.736070   1.000000
    3       10.306604   0.000000
    4       11.195741   0.000000
    5       18.439933   0.000000
    6       19.724603   0.000000
    7       30.780925   0.000000
    8       33.521695   0.000000
 
 -0.3333333E+00  0.4444444E+00  0.1111111E+00  0.3292181E-01
    1        5.847290   1.000000
    2        6.471118   1.000000
    3        7.458865   1.000000
    4       11.369420   0.000000
    5       19.538808   0.000000
    6       23.284303   0.000000
    7       29.464622   0.000000
    8       29.889833   0.000000
 
 -0.3333333E+00  0.4444444E+00  0.2222222E+00  0.3292181E-01
    1        4.940728   1.000000
    2        7.637171   1.000000
    3        8.296111   1.000000
    4        9.448304   1.000000
    5       23.653623   0.000000
    6       23.669712   0.000000
    7       25.647192   0.000000
    8       28.908575   0.000000
