 vasp.6.2.0 18Jan21 (build Aug 12 2022 13:00:08) complex                        
  
 executed on             LinuxIFC date 2024.11.03  21:53:48
 running on    4 total cores
 distrk:  each k-point on    4 cores,    1 groups
 distr:  one band on NCORE=   1 cores,    4 groups


--------------------------------------------------------------------------------------------------------


 INCAR:
   ISTART = 0            (Read existing wavefunction, if there)
   ISPIN = 1            (Non-Spin polarised DFT)
   LREAL = .FALSE.       (Projection operators: automatic)
   LWAVE = .FALSE.        (Write WAVECAR or not)
   LCHARG = .FALSE.        (Write CHGCAR or not)
   ADDGRID = .TRUE.        (Increase grid, helps GGA convergence)
   LASPH = .TRUE.        (Give more accurate total energies and band structure calculations)
   PREC = Accurate      (Accurate strictly avoids any aliasing or wrap around errors)
   ENCUT = 350          (Cut-off energy for plane wave basis set, in eV)
   ISMEAR = 0            (Gaussian smearing, metals:1)
   SIGMA = 0.05         (Smearing value in eV, metals:0.2)
   NELM = 90           (Max electronic SCF steps)
   NELMIN = 6            (Min electronic SCF steps)
   EDIFF = 1E-06        (SCF energy convergence, in eV)
   NSW = 100          (Max ionic steps)
   IBRION = 2            (Algorithm: 0-MD, 1-Quasi-New, 2-CG)
   ISIF = 3            (Stress/relaxation: 2-Ions, 3-Shape/Ions/V, 4-Shape/Ions)
   EDIFFG = -2E-03        (Ionic convergence, eV/AA)
   ISYM = 2              (Symmetry: 0\=none, 2\=GGA, 3\=hybrids)

 POTCAR:    PAW_PBE Si 05Jan2001                  
 POTCAR:    PAW_PBE Si 05Jan2001                  
   VRHFIN =Si: s2p2                                                                                 
   LEXCH  = PE                                                                                      
   EATOM  =   103.0669 eV,    7.5752 Ry                                                             
                                                                                                    
   TITEL  = PAW_PBE Si 05Jan2001                                                                    
   LULTRA =        F    use ultrasoft PP ?                                                          
   IUNSCR =        1    unscreen: 0-lin 1-nonlin 2-no                                               
   RPACOR =    1.500    partial core radius                                                         
   POMASS =   28.085; ZVAL   =    4.000    mass and valenz                                          
   RCORE  =    1.900    outmost cutoff radius                                                       
   RWIGS  =    2.480; RWIGS  =    1.312    wigner-seitz radius (au A)                               
   ENMAX  =  245.345; ENMIN  =  184.009 eV                                                          
   ICORE  =        2    local potential                                                             
   LCOR   =        T    correct aug charges                                                         
   LPAW   =        T    paw PP                                                                      
   EAUG   =  322.069                                                                                
   DEXC   =    0.000                                                                                
   RMAX   =    1.950    core radius for proj-oper                                                   
   RAUG   =    1.300    factor for augmentation sphere                                              
   RDEP   =    1.993    radius for radial grids                                                     
   RDEPT  =    1.837    core radius for aug-charge                                                  
                                                                                                    
   Atomic configuration                                                                             
    6 entries                                                                                       
     n  l   j            E        occ.                                                              
     1  0  0.50     -1785.8828   2.0000                                                             
     2  0  0.50      -139.4969   2.0000                                                             
     2  1  1.50       -95.5546   6.0000                                                             
     3  0  0.50       -10.8127   2.0000                                                             
     3  1  0.50        -4.0811   2.0000                                                             
     3  2  1.50        -4.0817   0.0000                                                             
   Description                                                                                      
     l       E           TYP  RCUT    TYP  RCUT                                                     
     0    -10.8127223     23  1.900                                                                 
     0     -7.6451159     23  1.900                                                                 
     1     -4.0811372     23  1.900                                                                 
     1      2.4879257     23  1.900                                                                 
     2     -4.0817478      7  1.900                                                                 
  local pseudopotential read in
  partial core-charges read in
  partial kinetic energy density read in
  atomic valenz-charges read in
  non local Contribution for L=           0  read in
    real space projection operators read in
  non local Contribution for L=           0  read in
    real space projection operators read in
  non local Contribution for L=           1  read in
    real space projection operators read in
  non local Contribution for L=           1  read in
    real space projection operators read in
    PAW grid and wavefunctions read in
 
   number of l-projection  operators is LMAX  =           4
   number of lm-projection operators is LMMAX =           8
 
  PAW_PBE Si 05Jan2001                  :
 energy of atom  1       EATOM= -103.0669
 kinetic energy error for atom=    0.0013 (will be added to EATOM!!)
 
 
 POSCAR: Si1
  positions in direct lattice
  No initial velocities read in
 exchange correlation table for  LEXCH =        8
   RHO(1)=    0.500       N(1)  =     2000
   RHO(2)=  100.500       N(2)  =     4000
 


--------------------------------------------------------------------------------------------------------


 ion  position               nearest neighbor table
   1  0.000  0.000  0.000-
 
  LATTYP: Found a face centered cubic cell.
 ALAT       =     3.8332789147
  
  Lattice vectors:
  
 A1 = (   2.3473950000,   0.0000000000,   1.3552680000)
 A2 = (   0.7824650000,   2.2131450000,   1.3552680000)
 A3 = (   0.0000000000,   0.0000000000,   2.7105380000)


Analysis of symmetry for initial positions (statically):
=====================================================================
 Subroutine PRICEL returns:
 Original cell was already a primitive cell.
 

 Routine SETGRP: Setting up the symmetry group for a 
 face centered cubic supercell.


 Subroutine GETGRP returns: Found 48 space group operations
 (whereof 48 operations were pure point group operations)
 out of a pool of 48 trial point group operations.


The static configuration has the point symmetry O_h .


Analysis of symmetry for dynamics (positions and initial velocities):
=====================================================================
 Subroutine PRICEL returns:
 Original cell was already a primitive cell.
 

 Routine SETGRP: Setting up the symmetry group for a 
 face centered cubic supercell.


 Subroutine GETGRP returns: Found 48 space group operations
 (whereof 48 operations were pure point group operations)
 out of a pool of 48 trial point group operations.


The dynamic configuration has the point symmetry O_h .


 Subroutine INISYM returns: Found 48 space group operations
 (whereof 48 operations are pure point group operations),
 and found     1 'primitive' translations


----------------------------------------------------------------------------------------

                                     Primitive cell                                     

  volume of cell :      14.0816

  direct lattice vectors                    reciprocal lattice vectors
     2.347395000  0.000000000  1.355268000     0.426004145 -0.150615226  0.000000000
     0.782465000  2.213145000  1.355268000     0.000000000  0.451845677  0.000000000
     0.000000000  0.000000000  2.710538000    -0.213001915 -0.150615114  0.368930448

  length of vectors
     2.710537703  2.710537515  2.710538000     0.451845635  0.451845677  0.451845554

  position of ions in fractional coordinates (direct lattice)
     0.000000000  0.000000000  0.000000000

  ion indices of the primitive-cell ions
   primitive index   ion index
                 1           1

----------------------------------------------------------------------------------------

 
 
 KPOINTS: Automatic                               

Automatic generation of k-mesh.
 Grid dimensions read from file:
 generate k-points for:    9    9    9

 Generating k-lattice:

  Cartesian coordinates                     Fractional coordinates (reciprocal lattice)
     0.047333794 -0.016735025  0.000000000     0.111111111  0.000000000  0.000000000
     0.000000000  0.050205075  0.000000000     0.000000000  0.111111111  0.000000000
    -0.023666879 -0.016735013  0.040992272     0.000000000  0.000000000  0.111111111

  Length of vectors
     0.050205071  0.050205075  0.050205062

  Shift w.r.t. Gamma in fractional coordinates (k-lattice)
     0.000000000  0.000000000  0.000000000

 
 Subroutine IBZKPT returns following result:
 ===========================================
 
 Found     35 irreducible k-points:
 
 Following reciprocal coordinates:
            Coordinates               Weight
  0.000000  0.000000  0.000000      1.000000
  0.111111  0.000000  0.000000      8.000000
  0.222222  0.000000  0.000000      8.000000
  0.333333  0.000000  0.000000      8.000000
  0.444444  0.000000  0.000000      8.000000
  0.111111  0.111111  0.000000      6.000000
  0.222222  0.111111  0.000000     24.000000
  0.333333  0.111111  0.000000     24.000000
  0.444444  0.111111  0.000000     24.000000
 -0.444444  0.111111  0.000000     24.000000
 -0.333333  0.111111  0.000000     24.000000
 -0.222222  0.111111  0.000000     24.000000
 -0.111111  0.111111  0.000000     12.000000
  0.222222  0.222222  0.000000      6.000000
  0.333333  0.222222  0.000000     24.000000
  0.444444  0.222222  0.000000     24.000000
 -0.444444  0.222222  0.000000     24.000000
 -0.333333  0.222222  0.000000     24.000000
 -0.222222  0.222222  0.000000     12.000000
  0.333333  0.333333  0.000000      6.000000
  0.444444  0.333333  0.000000     24.000000
 -0.444444  0.333333  0.000000     24.000000
 -0.333333  0.333333  0.000000     12.000000
  0.444444  0.444444  0.000000      6.000000
 -0.444444  0.444444  0.000000     12.000000
  0.333333  0.222222  0.111111     24.000000
  0.444444  0.222222  0.111111     48.000000
 -0.444444  0.222222  0.111111     48.000000
  0.444444  0.333333  0.111111     24.000000
 -0.444444  0.333333  0.111111     48.000000
 -0.333333  0.333333  0.111111     48.000000
 -0.222222  0.333333  0.111111     24.000000
 -0.444444  0.444444  0.111111     24.000000
 -0.333333  0.444444  0.111111     24.000000
 -0.333333  0.444444  0.222222     24.000000
 
 Following cartesian coordinates:
            Coordinates               Weight
  0.000000  0.000000  0.000000      1.000000
  0.047334 -0.016735  0.000000      8.000000
  0.094668 -0.033470  0.000000      8.000000
  0.142001 -0.050205  0.000000      8.000000
  0.189335 -0.066940  0.000000      8.000000
  0.047334  0.033470  0.000000      6.000000
  0.094668  0.016735  0.000000     24.000000
  0.142001  0.000000  0.000000     24.000000
  0.189335 -0.016735  0.000000     24.000000
 -0.189335  0.117145  0.000000     24.000000
 -0.142001  0.100410  0.000000     24.000000
 -0.094668  0.083675  0.000000     24.000000
 -0.047334  0.066940  0.000000     12.000000
  0.094668  0.066940  0.000000      6.000000
  0.142001  0.050205  0.000000     24.000000
  0.189335  0.033470  0.000000     24.000000
 -0.189335  0.167350  0.000000     24.000000
 -0.142001  0.150615  0.000000     24.000000
 -0.094668  0.133880  0.000000     12.000000
  0.142001  0.100410  0.000000      6.000000
  0.189335  0.083675  0.000000     24.000000
 -0.189335  0.217555  0.000000     24.000000
 -0.142001  0.200820  0.000000     12.000000
  0.189335  0.133880  0.000000      6.000000
 -0.189335  0.267760  0.000000     12.000000
  0.118335  0.033470  0.040992     24.000000
  0.165668  0.016735  0.040992     48.000000
 -0.213002  0.150615  0.040992     48.000000
  0.165668  0.066940  0.040992     24.000000
 -0.213002  0.200820  0.040992     48.000000
 -0.165668  0.184085  0.040992     48.000000
 -0.118334  0.167350  0.040992     24.000000
 -0.213002  0.251025  0.040992     24.000000
 -0.165668  0.234290  0.040992     24.000000
 -0.189335  0.217555  0.081985     24.000000
 


--------------------------------------------------------------------------------------------------------




 Dimension of arrays:
   k-points           NKPTS =     35   k-points in BZ     NKDIM =     35   number of bands    NBANDS=      8
   number of dos      NEDOS =    301   number of ions     NIONS =      1
   non local maximal  LDIM  =      4   non local SUM 2l+1 LMDIM =      8
   total plane-waves  NPLWV =   5832
   max r-space proj   IRMAX =      1   max aug-charges    IRDMAX= 110965
   dimension x,y,z NGX =    18 NGY =   18 NGZ =   18
   dimension x,y,z NGXF=    36 NGYF=   36 NGZF=   36
   support grid    NGXF=    72 NGYF=   72 NGZF=   72
   ions per type =               1
   NGX,Y,Z   is equivalent  to a cutoff of  11.04, 11.04, 11.04 a.u.
   NGXF,Y,Z  is equivalent  to a cutoff of  22.08, 22.08, 22.08 a.u.

 SYSTEM =  unknown system                          
 POSCAR =  Si1                                     

 Startparameter for this run:
   NWRITE =      2    write-flag & timer
   PREC   = accura    normal or accurate (medium, high low for compatibility)
   ISTART =      0    job   : 0-new  1-cont  2-samecut
   ICHARG =      2    charge: 1-file 2-atom 10-const
   ISPIN  =      1    spin polarized calculation?
   LNONCOLLINEAR =      F non collinear calculations
   LSORBIT =      F    spin-orbit coupling
   INIWAV =      1    electr: 0-lowe 1-rand  2-diag
   LASPH  =      T    aspherical Exc in radial PAW
   METAGGA=      F    non-selfconsistent MetaGGA calc.

 Electronic Relaxation 1
   ENCUT  =  350.0 eV  25.72 Ry    5.07 a.u.   4.13  4.13  4.13*2*pi/ulx,y,z
   ENINI  =  350.0     initial cutoff
   ENAUG  =  322.1 eV  augmentation charge cutoff
   NELM   =     90;   NELMIN=  6; NELMDL= -5     # of ELM steps 
   EDIFF  = 0.1E-05   stopping-criterion for ELM
   LREAL  =      F    real-space projection
   NLSPLINE    = F    spline interpolate recip. space projectors
   LCOMPAT=      F    compatible to vasp.4.4
   GGA_COMPAT  = T    GGA compatible to vasp.4.4-vasp.4.6
   LMAXPAW     = -100 max onsite density
   LMAXMIX     =    2 max onsite mixed and CHGCAR
   VOSKOWN=      0    Vosko Wilk Nusair interpolation
   ROPT   =    0.00000
 Ionic relaxation
   EDIFFG = -.2E-02   stopping-criterion for IOM
   NSW    =    100    number of steps for IOM
   NBLOCK =      1;   KBLOCK =    100    inner block; outer block 
   IBRION =      2    ionic relax: 0-MD 1-quasi-New 2-CG
   NFREE  =      1    steps in history (QN), initial steepest desc. (CG)
   ISIF   =      3    stress and relaxation
   IWAVPR =     11    prediction:  0-non 1-charg 2-wave 3-comb
   ISYM   =      2    0-nonsym 1-usesym 2-fastsym
   LCORR  =      T    Harris-Foulkes like correction to forces

   POTIM  = 0.5000    time-step for ionic-motion
   TEIN   =    0.0    initial temperature
   TEBEG  =    0.0;   TEEND  =   0.0 temperature during run
   SMASS  =  -3.00    Nose mass-parameter (am)
   estimated Nose-frequenzy (Omega)   =  0.10E-29 period in steps = 0.13E+47 mass=  -0.168E-27a.u.
   SCALEE = 1.0000    scale energy and forces
   NPACO  =    256;   APACO  = 16.0  distance and # of slots for P.C.
   PSTRESS=    0.0 pullay stress

  Mass of Ions in am
   POMASS =  28.09
  Ionic Valenz
   ZVAL   =   4.00
  Atomic Wigner-Seitz radii
   RWIGS  =  -1.00
  virtual crystal weights 
   VCA    =   1.00
   NELECT =       4.0000    total number of electrons
   NUPDOWN=      -1.0000    fix difference up-down

 DOS related values:
   EMIN   =  10.00;   EMAX   =-10.00  energy-range for DOS
   EFERMI =   0.00
   ISMEAR =     0;   SIGMA  =   0.05  broadening in eV -4-tet -1-fermi 0-gaus

 Electronic relaxation 2 (details)
   IALGO  =     38    algorithm
   LDIAG  =      T    sub-space diagonalisation (order eigenvalues)
   LSUBROT=      F    optimize rotation matrix (better conditioning)
   TURBO    =      0    0=normal 1=particle mesh
   IRESTART =      0    0=no restart 2=restart with 2 vectors
   NREBOOT  =      0    no. of reboots
   NMIN     =      0    reboot dimension
   EREF     =   0.00    reference energy to select bands
   IMIX   =      4    mixing-type and parameters
     AMIX     =   0.40;   BMIX     =  1.00
     AMIX_MAG =   1.60;   BMIX_MAG =  1.00
     AMIN     =   0.10
     WC   =   100.;   INIMIX=   1;  MIXPRE=   1;  MAXMIX= -45

 Intra band minimization:
   WEIMIN = 0.0010     energy-eigenvalue tresh-hold
   EBREAK =  0.31E-07  absolut break condition
   DEPER  =   0.30     relativ break condition  

   TIME   =   0.40     timestep for ELM

  volume/ion in A,a.u.               =      14.08        95.03
  Fermi-wavevector in a.u.,A,eV,Ry     =   1.076162  2.033651 15.757242  1.158125
  Thomas-Fermi vector in A             =   2.212039
 
 Write flags
   LWAVE        =      F    write WAVECAR
   LDOWNSAMPLE  =      F    k-point downsampling of WAVECAR
   LCHARG       =      F    write CHGCAR
   LVTOT        =      F    write LOCPOT, total local potential
   LVHAR        =      F    write LOCPOT, Hartree potential only
   LELF         =      F    write electronic localiz. function (ELF)
   LORBIT       =      0    0 simple, 1 ext, 2 COOP (PROOUT), +10 PAW based schemes


 Dipole corrections
   LMONO  =      F    monopole corrections only (constant potential shift)
   LDIPOL =      F    correct potential (dipole corrections)
   IDIPOL =      0    1-x, 2-y, 3-z, 4-all directions 
   EPSILON=  1.0000000 bulk dielectric constant

 Exchange correlation treatment:
   GGA     =    --    GGA type
   LEXCH   =     8    internal setting for exchange type
   VOSKOWN=      0    Vosko Wilk Nusair interpolation
   LHFCALC =     F    Hartree Fock is set to
   LHFONE  =     F    Hartree Fock one center treatment
   AEXX    =    0.0000 exact exchange contribution

 Linear response parameters
   LEPSILON=     F    determine dielectric tensor
   LRPA    =     F    only Hartree local field effects (RPA)
   LNABLA  =     F    use nabla operator in PAW spheres
   LVEL    =     F    velocity operator in full k-point grid
   LINTERFAST=   F  fast interpolation
   KINTER  =     0    interpolate to denser k-point grid
   CSHIFT  =0.1000    complex shift for real part using Kramers Kronig
   OMEGAMAX=  -1.0    maximum frequency
   DEG_THRESHOLD= 0.2000000E-02 threshold for treating states as degnerate
   RTIME   =   -0.100 relaxation time in fs
  (WPLASMAI=    0.000 imaginary part of plasma frequency in eV, 0.658/RTIME)
   DFIELD  = 0.0000000 0.0000000 0.0000000 field for delta impulse in time
 
 Orbital magnetization related:
   ORBITALMAG=     F  switch on orbital magnetization
   LCHIMAG   =     F  perturbation theory with respect to B field
   DQ        =  0.001000  dq finite difference perturbation B field
   LLRAUG    =     F  two centre corrections for induced B field



--------------------------------------------------------------------------------------------------------


 conjugate gradient relaxation of ions
 charge density and potential will be updated during run
 non-spin polarized calculation
 Variant of blocked Davidson
 Davidson routine will perform the subspace rotation
 perform sub-space diagonalisation
    after iterative eigenvector-optimisation
 modified Broyden-mixing scheme, WC =      100.0
 initial mixing is a Kerker type mixing with AMIX =  0.4000 and BMIX =      1.0000
 Hartree-type preconditioning will be used
 using additional bands            6
 reciprocal scheme for non local part
 use partial core corrections
 calculate Harris-corrections to forces 
   (improved forces if not selfconsistent)
 use gradient corrections 
 use of overlap-Matrix (Vanderbilt PP)
 Gauss-broadening in eV      SIGMA  =   0.05


--------------------------------------------------------------------------------------------------------


  energy-cutoff  :      350.00
  volume of cell :       14.08
      direct lattice vectors                 reciprocal lattice vectors
     2.347395000  0.000000000  1.355268000     0.426004145 -0.150615226  0.000000000
     0.782465000  2.213145000  1.355268000     0.000000000  0.451845677  0.000000000
     0.000000000  0.000000000  2.710538000    -0.213001915 -0.150615114  0.368930448

  length of vectors
     2.710537703  2.710537515  2.710538000     0.451845635  0.451845677  0.451845554


 
 k-points in units of 2pi/SCALE and weight: Automatic                               
   0.00000000  0.00000000  0.00000000       0.001
   0.04733379 -0.01673503  0.00000000       0.011
   0.09466759 -0.03347005  0.00000000       0.011
   0.14200138 -0.05020508  0.00000000       0.011
   0.18933518 -0.06694010  0.00000000       0.011
   0.04733379  0.03347005  0.00000000       0.008
   0.09466759  0.01673503  0.00000000       0.033
   0.14200138  0.00000000  0.00000000       0.033
   0.18933518 -0.01673503  0.00000000       0.033
  -0.18933518  0.11714518  0.00000000       0.033
  -0.14200138  0.10041015  0.00000000       0.033
  -0.09466759  0.08367513  0.00000000       0.033
  -0.04733379  0.06694010  0.00000000       0.016
   0.09466759  0.06694010  0.00000000       0.008
   0.14200138  0.05020508  0.00000000       0.033
   0.18933518  0.03347005  0.00000000       0.033
  -0.18933518  0.16735025  0.00000000       0.033
  -0.14200138  0.15061523  0.00000000       0.033
  -0.09466759  0.13388020  0.00000000       0.016
   0.14200138  0.10041015  0.00000000       0.008
   0.18933518  0.08367513  0.00000000       0.033
  -0.18933518  0.21755533  0.00000000       0.033
  -0.14200138  0.20082030  0.00000000       0.016
   0.18933518  0.13388020  0.00000000       0.008
  -0.18933518  0.26776040  0.00000000       0.016
   0.11833450  0.03347006  0.04099227       0.033
   0.16566830  0.01673504  0.04099227       0.066
  -0.21300206  0.15061524  0.04099227       0.066
   0.16566830  0.06694011  0.04099227       0.033
  -0.21300206  0.20082031  0.04099227       0.066
  -0.16566826  0.18408529  0.04099227       0.066
  -0.11833447  0.16735026  0.04099227       0.033
  -0.21300206  0.25102539  0.04099227       0.033
  -0.16566826  0.23429036  0.04099227       0.033
  -0.18933514  0.21755535  0.08198454       0.033
 
 k-points in reciprocal lattice and weights: Automatic                               
   0.00000000  0.00000000  0.00000000       0.001
   0.11111111  0.00000000  0.00000000       0.011
   0.22222222  0.00000000  0.00000000       0.011
   0.33333333  0.00000000  0.00000000       0.011
   0.44444444  0.00000000  0.00000000       0.011
   0.11111111  0.11111111  0.00000000       0.008
   0.22222222  0.11111111  0.00000000       0.033
   0.33333333  0.11111111  0.00000000       0.033
   0.44444444  0.11111111  0.00000000       0.033
  -0.44444444  0.11111111  0.00000000       0.033
  -0.33333333  0.11111111  0.00000000       0.033
  -0.22222222  0.11111111  0.00000000       0.033
  -0.11111111  0.11111111  0.00000000       0.016
   0.22222222  0.22222222  0.00000000       0.008
   0.33333333  0.22222222  0.00000000       0.033
   0.44444444  0.22222222  0.00000000       0.033
  -0.44444444  0.22222222  0.00000000       0.033
  -0.33333333  0.22222222  0.00000000       0.033
  -0.22222222  0.22222222  0.00000000       0.016
   0.33333333  0.33333333  0.00000000       0.008
   0.44444444  0.33333333  0.00000000       0.033
  -0.44444444  0.33333333  0.00000000       0.033
  -0.33333333  0.33333333  0.00000000       0.016
   0.44444444  0.44444444  0.00000000       0.008
  -0.44444444  0.44444444  0.00000000       0.016
   0.33333333  0.22222222  0.11111111       0.033
   0.44444444  0.22222222  0.11111111       0.066
  -0.44444444  0.22222222  0.11111111       0.066
   0.44444444  0.33333333  0.11111111       0.033
  -0.44444444  0.33333333  0.11111111       0.066
  -0.33333333  0.33333333  0.11111111       0.066
  -0.22222222  0.33333333  0.11111111       0.033
  -0.44444444  0.44444444  0.11111111       0.033
  -0.33333333  0.44444444  0.11111111       0.033
  -0.33333333  0.44444444  0.22222222       0.033
 
 position of ions in fractional coordinates (direct lattice) 
   0.00000000  0.00000000  0.00000000
 
 position of ions in cartesian coordinates  (Angst):
   0.00000000  0.00000000  0.00000000
 


--------------------------------------------------------------------------------------------------------


 k-point   1 :   0.0000 0.0000 0.0000  plane waves:     181
 k-point   2 :   0.1111 0.0000 0.0000  plane waves:     196
 k-point   3 :   0.2222 0.0000 0.0000  plane waves:     205
 k-point   4 :   0.3333 0.0000 0.0000  plane waves:     205
 k-point   5 :   0.4444 0.0000 0.0000  plane waves:     213
 k-point   6 :   0.1111 0.1111 0.0000  plane waves:     198
 k-point   7 :   0.2222 0.1111 0.0000  plane waves:     207
 k-point   8 :   0.3333 0.1111 0.0000  plane waves:     208
 k-point   9 :   0.4444 0.1111 0.0000  plane waves:     206
 k-point  10 :  -0.4444 0.1111 0.0000  plane waves:     211
 k-point  11 :  -0.3333 0.1111 0.0000  plane waves:     211
 k-point  12 :  -0.2222 0.1111 0.0000  plane waves:     210
 k-point  13 :  -0.1111 0.1111 0.0000  plane waves:     204
 k-point  14 :   0.2222 0.2222 0.0000  plane waves:     202
 k-point  15 :   0.3333 0.2222 0.0000  plane waves:     213
 k-point  16 :   0.4444 0.2222 0.0000  plane waves:     210
 k-point  17 :  -0.4444 0.2222 0.0000  plane waves:     213
 k-point  18 :  -0.3333 0.2222 0.0000  plane waves:     211
 k-point  19 :  -0.2222 0.2222 0.0000  plane waves:     210
 k-point  20 :   0.3333 0.3333 0.0000  plane waves:     218
 k-point  21 :   0.4444 0.3333 0.0000  plane waves:     208
 k-point  22 :  -0.4444 0.3333 0.0000  plane waves:     211
 k-point  23 :  -0.3333 0.3333 0.0000  plane waves:     212
 k-point  24 :   0.4444 0.4444 0.0000  plane waves:     218
 k-point  25 :  -0.4444 0.4444 0.0000  plane waves:     214
 k-point  26 :   0.3333 0.2222 0.1111  plane waves:     209
 k-point  27 :   0.4444 0.2222 0.1111  plane waves:     207
 k-point  28 :  -0.4444 0.2222 0.1111  plane waves:     211
 k-point  29 :   0.4444 0.3333 0.1111  plane waves:     209
 k-point  30 :  -0.4444 0.3333 0.1111  plane waves:     210
 k-point  31 :  -0.3333 0.3333 0.1111  plane waves:     209
 k-point  32 :  -0.2222 0.3333 0.1111  plane waves:     205
 k-point  33 :  -0.4444 0.4444 0.1111  plane waves:     209
 k-point  34 :  -0.3333 0.4444 0.1111  plane waves:     212
 k-point  35 :  -0.3333 0.4444 0.2222  plane waves:     208

 maximum and minimum number of plane-waves per node :       218      181

 maximum number of plane-waves:       218
 maximum index in each direction: 
   IXMAX=    4   IYMAX=    4   IZMAX=    4
   IXMIN=   -4   IYMIN=   -4   IZMIN=   -4


 serial   3D FFT for wavefunctions
 parallel 3D FFT for charge:
    minimum data exchange during FFTs selected (reduces bandwidth)


 total amount of memory used by VASP MPI-rank0    33348. kBytes
=======================================================================

   base      :      30000. kBytes
   nonl-proj :        496. kBytes
   fftplans  :       1775. kBytes
   grid      :        819. kBytes
   one-center:          3. kBytes
   wavefun   :        255. kBytes
 
     INWAV:  cpu time    0.0000: real time    0.0006
 Broyden mixing: mesh for mixing (old mesh)
   NGX =  9   NGY =  9   NGZ =  9
  (NGX  = 36   NGY  = 36   NGZ  = 36)
  gives a total of    729 points

 initial charge density was supplied:
 charge density of overlapping atoms calculated
 number of electron       4.0000000 magnetization 
 keeping initial charge density in first step


--------------------------------------------------------------------------------------------------------


 Maximum index for augmentation-charges        26783 (set IRDMAX)


--------------------------------------------------------------------------------------------------------


 First call to EWALD:  gamma=   0.734
 Maximum number of real-space cells 3x 3x 3
 Maximum number of reciprocal cells 3x 3x 3

    FEWALD:  cpu time    0.0040: real time    0.0042


--------------------------------------- Iteration      1(   1)  ---------------------------------------


    POTLOK:  cpu time    0.0150: real time    0.0197
    SETDIJ:  cpu time    0.1680: real time    0.1679
     EDDAV:  cpu time    0.1700: real time    0.1699
       DOS:  cpu time    0.0000: real time    0.0014
    --------------------------------------------
      LOOP:  cpu time    0.3539: real time    0.3593

 eigenvalue-minimisations  :   592
 total energy-change (2. order) :-0.3385657E+01  (-0.1333865E+03)
 number of electron       4.0000000 magnetization 
 augmentation part        4.0000000 magnetization 

 Free energy of the ion-electron system (eV)
  ---------------------------------------------------
  alpha Z        PSCENC =         2.39057823
  Ewald energy   TEWEN  =      -137.78496289
  -Hartree energ DENC   =        -0.54229904
  -exchange      EXHF   =         0.00000000
  -V(xc)+E(xc)   XCENC  =        -8.73348015
  PAW double counting   =        88.12379961      -70.53051779
  entropy T*S    EENTRO =        -0.00155794
  eigenvalues    EBANDS =        20.62715612
  atomic energy  EATOM  =       103.06562707
  Solvation  Ediel_sol  =         0.00000000
  ---------------------------------------------------
  free energy    TOTEN  =        -3.38565678 eV

  energy without entropy =       -3.38409884  energy(sigma->0) =       -3.38487781


--------------------------------------------------------------------------------------------------------




--------------------------------------- Iteration      1(   2)  ---------------------------------------


     EDDAV:  cpu time    0.3889: real time    0.3993
       DOS:  cpu time    0.0010: real time    0.0014
    --------------------------------------------
      LOOP:  cpu time    0.3899: real time    0.4008

 eigenvalue-minimisations  :   856
 total energy-change (2. order) :-0.1526934E+01  (-0.1488165E+01)
 number of electron       4.0000000 magnetization 
 augmentation part        4.0000000 magnetization 

 Free energy of the ion-electron system (eV)
  ---------------------------------------------------
  alpha Z        PSCENC =         2.39057823
  Ewald energy   TEWEN  =      -137.78496289
  -Hartree energ DENC   =        -0.54229904
  -exchange      EXHF   =         0.00000000
  -V(xc)+E(xc)   XCENC  =        -8.73348015
  PAW double counting   =        88.12379961      -70.53051779
  entropy T*S    EENTRO =        -0.00021148
  eigenvalues    EBANDS =        19.09887574
  atomic energy  EATOM  =       103.06562707
  Solvation  Ediel_sol  =         0.00000000
  ---------------------------------------------------
  free energy    TOTEN  =        -4.91259070 eV

  energy without entropy =       -4.91237922  energy(sigma->0) =       -4.91248496


--------------------------------------------------------------------------------------------------------




--------------------------------------- Iteration      1(   3)  ---------------------------------------


     EDDAV:  cpu time    0.2090: real time    0.2183
       DOS:  cpu time    0.0010: real time    0.0010
    --------------------------------------------
      LOOP:  cpu time    0.2090: real time    0.2192

 eigenvalue-minimisations  :   600
 total energy-change (2. order) :-0.7146688E-02  (-0.7146662E-02)
 number of electron       4.0000000 magnetization 
 augmentation part        4.0000000 magnetization 

 Free energy of the ion-electron system (eV)
  ---------------------------------------------------
  alpha Z        PSCENC =         2.39057823
  Ewald energy   TEWEN  =      -137.78496289
  -Hartree energ DENC   =        -0.54229904
  -exchange      EXHF   =         0.00000000
  -V(xc)+E(xc)   XCENC  =        -8.73348015
  PAW double counting   =        88.12379961      -70.53051779
  entropy T*S    EENTRO =        -0.00021064
  eigenvalues    EBANDS =        19.09172821
  atomic energy  EATOM  =       103.06562707
  Solvation  Ediel_sol  =         0.00000000
  ---------------------------------------------------
  free energy    TOTEN  =        -4.91973739 eV

  energy without entropy =       -4.91952675  energy(sigma->0) =       -4.91963207


--------------------------------------------------------------------------------------------------------




--------------------------------------- Iteration      1(   4)  ---------------------------------------


     EDDAV:  cpu time    0.2570: real time    0.2709
       DOS:  cpu time    0.0000: real time    0.0010
    --------------------------------------------
      LOOP:  cpu time    0.2570: real time    0.2719

 eigenvalue-minimisations  :   904
 total energy-change (2. order) :-0.3977755E-05  (-0.3976718E-05)
 number of electron       4.0000000 magnetization 
 augmentation part        4.0000000 magnetization 

 Free energy of the ion-electron system (eV)
  ---------------------------------------------------
  alpha Z        PSCENC =         2.39057823
  Ewald energy   TEWEN  =      -137.78496289
  -Hartree energ DENC   =        -0.54229904
  -exchange      EXHF   =         0.00000000
  -V(xc)+E(xc)   XCENC  =        -8.73348015
  PAW double counting   =        88.12379961      -70.53051779
  entropy T*S    EENTRO =        -0.00021064
  eigenvalues    EBANDS =        19.09172423
  atomic energy  EATOM  =       103.06562707
  Solvation  Ediel_sol  =         0.00000000
  ---------------------------------------------------
  free energy    TOTEN  =        -4.91974137 eV

  energy without entropy =       -4.91953073  energy(sigma->0) =       -4.91963605


--------------------------------------------------------------------------------------------------------




--------------------------------------- Iteration      1(   5)  ---------------------------------------


     EDDAV:  cpu time    0.1770: real time    0.1869
       DOS:  cpu time    0.0020: real time    0.0011
    CHARGE:  cpu time    0.0200: real time    0.0204
    MIXING:  cpu time    0.0000: real time    0.0009
    --------------------------------------------
      LOOP:  cpu time    0.2000: real time    0.2093

 eigenvalue-minimisations  :   632
 total energy-change (2. order) :-0.1362821E-09  (-0.1148868E-08)
 number of electron       4.0000000 magnetization 
 augmentation part       -0.2429711 magnetization 

 Broyden mixing:
  rms(total) = 0.27934E+00    rms(broyden)= 0.27934E+00
  rms(prec ) = 0.40665E+00
  weight for this iteration     100.00

 Free energy of the ion-electron system (eV)
  ---------------------------------------------------
  alpha Z        PSCENC =         2.39057823
  Ewald energy   TEWEN  =      -137.78496289
  -Hartree energ DENC   =        -0.54229904
  -exchange      EXHF   =         0.00000000
  -V(xc)+E(xc)   XCENC  =        -8.73348015
  PAW double counting   =        88.12379961      -70.53051779
  entropy T*S    EENTRO =        -0.00021064
  eigenvalues    EBANDS =        19.09172423
  atomic energy  EATOM  =       103.06562707
  Solvation  Ediel_sol  =         0.00000000
  ---------------------------------------------------
  free energy    TOTEN  =        -4.91974137 eV

  energy without entropy =       -4.91953073  energy(sigma->0) =       -4.91963605


--------------------------------------------------------------------------------------------------------




--------------------------------------- Iteration      1(   6)  ---------------------------------------


    POTLOK:  cpu time    0.0150: real time    0.0231
    SETDIJ:  cpu time    0.1650: real time    0.1649
     EDDAV:  cpu time    0.1790: real time    0.1787
       DOS:  cpu time    0.0000: real time    0.0010
    CHARGE:  cpu time    0.0180: real time    0.0187
    MIXING:  cpu time    0.0020: real time    0.0010
    --------------------------------------------
      LOOP:  cpu time    0.3779: real time    0.3875

 eigenvalue-minimisations  :   640
 total energy-change (2. order) : 0.1296028E-01  (-0.3768522E-03)
 number of electron       4.0000000 magnetization 
 augmentation part       -0.2450981 magnetization 

 Broyden mixing:
  rms(total) = 0.15480E+00    rms(broyden)= 0.15480E+00
  rms(prec ) = 0.23479E+00
  weight for this iteration     100.00

 eigenvalues of (default mixing * dielectric matrix)
  average eigenvalue GAMMA=   2.2335
  2.2335

 Free energy of the ion-electron system (eV)
  ---------------------------------------------------
  alpha Z        PSCENC =         2.39057823
  Ewald energy   TEWEN  =      -137.78496289
  -Hartree energ DENC   =        -0.47286955
  -exchange      EXHF   =         0.00000000
  -V(xc)+E(xc)   XCENC  =        -8.71245640
  PAW double counting   =       172.19534925     -154.60346919
  entropy T*S    EENTRO =        -0.00021295
  eigenvalues    EBANDS =        19.01563535
  atomic energy  EATOM  =       103.06562707
  Solvation  Ediel_sol  =         0.00000000
  ---------------------------------------------------
  free energy    TOTEN  =        -4.90678108 eV

  energy without entropy =       -4.90656813  energy(sigma->0) =       -4.90667461


--------------------------------------------------------------------------------------------------------




--------------------------------------- Iteration      1(   7)  ---------------------------------------


    POTLOK:  cpu time    0.0140: real time    0.0229
    SETDIJ:  cpu time    0.1670: real time    0.1663
     EDDAV:  cpu time    0.1930: real time    0.1935
       DOS:  cpu time    0.0000: real time    0.0009
    CHARGE:  cpu time    0.0190: real time    0.0188
    MIXING:  cpu time    0.0000: real time    0.0007
    --------------------------------------------
      LOOP:  cpu time    0.3939: real time    0.4030

 eigenvalue-minimisations  :   672
 total energy-change (2. order) : 0.7434742E-02  (-0.7570394E-03)
 number of electron       4.0000000 magnetization 
 augmentation part       -0.2481735 magnetization 

 Broyden mixing:
  rms(total) = 0.12471E-01    rms(broyden)= 0.12471E-01
  rms(prec ) = 0.16702E-01
  weight for this iteration     100.00

 eigenvalues of (default mixing * dielectric matrix)
  average eigenvalue GAMMA=   2.3853
  2.3853  2.3853

 Free energy of the ion-electron system (eV)
  ---------------------------------------------------
  alpha Z        PSCENC =         2.39057823
  Ewald energy   TEWEN  =      -137.78496289
  -Hartree energ DENC   =        -0.40109775
  -exchange      EXHF   =         0.00000000
  -V(xc)+E(xc)   XCENC  =        -8.67799949
  PAW double counting   =       334.10405266     -316.51823622
  entropy T*S    EENTRO =        -0.00021814
  eigenvalues    EBANDS =        18.92291018
  atomic energy  EATOM  =       103.06562707
  Solvation  Ediel_sol  =         0.00000000
  ---------------------------------------------------
  free energy    TOTEN  =        -4.89934634 eV

  energy without entropy =       -4.89912820  energy(sigma->0) =       -4.89923727


--------------------------------------------------------------------------------------------------------




--------------------------------------- Iteration      1(   8)  ---------------------------------------


    POTLOK:  cpu time    0.0160: real time    0.0252
    SETDIJ:  cpu time    0.1650: real time    0.1650
     EDDAV:  cpu time    0.2290: real time    0.2299
       DOS:  cpu time    0.0000: real time    0.0009
    CHARGE:  cpu time    0.0200: real time    0.0194
    MIXING:  cpu time    0.0010: real time    0.0010
    --------------------------------------------
      LOOP:  cpu time    0.4299: real time    0.4415

 eigenvalue-minimisations  :   824
 total energy-change (2. order) : 0.3733029E-04  (-0.2297152E-05)
 number of electron       4.0000000 magnetization 
 augmentation part       -0.2482669 magnetization 

 Broyden mixing:
  rms(total) = 0.14285E-02    rms(broyden)= 0.14285E-02
  rms(prec ) = 0.21465E-02
  weight for this iteration     100.00

 eigenvalues of (default mixing * dielectric matrix)
  average eigenvalue GAMMA=   2.0145
  1.0057  2.4118  2.6260

 Free energy of the ion-electron system (eV)
  ---------------------------------------------------
  alpha Z        PSCENC =         2.39057823
  Ewald energy   TEWEN  =      -137.78496289
  -Hartree energ DENC   =        -0.40244967
  -exchange      EXHF   =         0.00000000
  -V(xc)+E(xc)   XCENC  =        -8.67418650
  PAW double counting   =       320.44273331     -302.86330660
  entropy T*S    EENTRO =        -0.00021829
  eigenvalues    EBANDS =        18.92687633
  atomic energy  EATOM  =       103.06562707
  Solvation  Ediel_sol  =         0.00000000
  ---------------------------------------------------
  free energy    TOTEN  =        -4.89930901 eV

  energy without entropy =       -4.89909073  energy(sigma->0) =       -4.89919987


--------------------------------------------------------------------------------------------------------




--------------------------------------- Iteration      1(   9)  ---------------------------------------


    POTLOK:  cpu time    0.0150: real time    0.0243
    SETDIJ:  cpu time    0.1660: real time    0.1657
     EDDAV:  cpu time    0.2210: real time    0.2223
       DOS:  cpu time    0.0010: real time    0.0010
    --------------------------------------------
      LOOP:  cpu time    0.4039: real time    0.4130

 eigenvalue-minimisations  :   696
 total energy-change (2. order) :-0.3404453E-06  (-0.2982772E-07)
 number of electron       4.0000000 magnetization 
 augmentation part       -0.2482669 magnetization 

 Free energy of the ion-electron system (eV)
  ---------------------------------------------------
  alpha Z        PSCENC =         2.39057823
  Ewald energy   TEWEN  =      -137.78496289
  -Hartree energ DENC   =        -0.40253689
  -exchange      EXHF   =         0.00000000
  -V(xc)+E(xc)   XCENC  =        -8.67364306
  PAW double counting   =       318.67258292     -301.09386368
  entropy T*S    EENTRO =        -0.00021832
  eigenvalues    EBANDS =        18.92712727
  atomic energy  EATOM  =       103.06562707
  Solvation  Ediel_sol  =         0.00000000
  ---------------------------------------------------
  free energy    TOTEN  =        -4.89930935 eV

  energy without entropy =       -4.89909103  energy(sigma->0) =       -4.89920019


--------------------------------------------------------------------------------------------------------




 average (electrostatic) potential at core
  the test charge radii are     0.9892
  (the norm of the test charge is              1.0000)
       1 -79.5272
 
 
 
 E-fermi :  10.4123     XC(G=0): -11.3059     alpha+bet :-17.0325

 Fermi energy:        10.4122540031

 k-point     1 :       0.0000    0.0000    0.0000
  band No.  band energies     occupation 
      1      -4.1752      2.00000
      2      22.0101      0.00000
      3      22.0101      0.00000
      4      22.0101      0.00000
      5      22.5965      0.00000
      6      22.5965      0.00000
      7      22.5965      0.00000
      8      27.9673      0.00000

 k-point     2 :       0.1111    0.0000    0.0000
  band No.  band energies     occupation 
      1      -3.8090      2.00000
      2      17.7946      0.00000
      3      20.7107      0.00000
      4      20.7107      0.00000
      5      24.0186      0.00000
      6      24.2961      0.00000
      7      24.2961      0.00000
      8      28.2146      0.00000

 k-point     3 :       0.2222    0.0000    0.0000
  band No.  band energies     occupation 
      1      -2.7147      2.00000
      2      13.0051      0.00000
      3      19.7324      0.00000
      4      19.7324      0.00000
      5      23.9414      0.00000
      6      24.5943      0.00000
      7      24.5943      0.00000
      8      28.2607      0.00000

 k-point     4 :       0.3333    0.0000    0.0000
  band No.  band energies     occupation 
      1      -0.9050      2.00000
      2       8.6230      2.00000
      3      19.3162      0.00000
      4      19.3162      0.00000
      5      22.8720      0.00000
      6      22.8720      0.00000
      7      23.8835      0.00000
      8      28.0782      0.00000

 k-point     5 :       0.4444    0.0000    0.0000
  band No.  band energies     occupation 
      1       1.5900      2.00000
      2       4.8220      2.00000
      3      19.3205      0.00000
      4      19.3205      0.00000
      5      21.6605      0.00000
      6      21.6605      0.00000
      7      24.0821      0.00000
      8      26.6931      0.00000

 k-point     6 :       0.1111    0.1111    0.0000
  band No.  band energies     occupation 
      1      -3.6871      2.00000
      2      18.9885      0.00000
      3      18.9885      0.00000
      4      20.5377      0.00000
      5      20.9553      0.00000
      6      25.5972      0.00000
      7      26.2143      0.00000
      8      26.2143      0.00000

 k-point     7 :       0.2222    0.1111    0.0000
  band No.  band energies     occupation 
      1      -2.8358      2.00000
      2      14.8245      0.00000
      3      17.8292      0.00000
      4      19.6530      0.00000
      5      21.5078      0.00000
      6      23.8266      0.00000
      7      27.0607      0.00000
      8      27.4704      0.00000

 k-point     8 :       0.3333    0.1111    0.0000
  band No.  band energies     occupation 
      1      -1.2649      2.00000
      2      10.3181      1.99227
      3      17.2910      0.00000
      4      18.5669      0.00000
      5      20.3336      0.00000
      6      25.6626      0.00000
      7      26.0068      0.00000
      8      27.6351      0.00000

 k-point     9 :       0.4444    0.1111    0.0000
  band No.  band energies     occupation 
      1       1.0049      2.00000
      2       6.3231      2.00000
      3      17.2107      0.00000
      4      17.3726      0.00000
      5      20.0537      0.00000
      6      24.4171      0.00000
      7      26.2576      0.00000
      8      29.5058      0.00000

 k-point    10 :      -0.4444    0.1111    0.0000
  band No.  band energies     occupation 
      1       2.8508      2.00000
      2       4.0415      2.00000
      3      16.1316      0.00000
      4      18.0524      0.00000
      5      20.7332      0.00000
      6      23.3633      0.00000
      7      26.0287      0.00000
      8      29.4670      0.00000

 k-point    11 :      -0.3333    0.1111    0.0000
  band No.  band energies     occupation 
      1       0.1727      2.00000
      2       7.5868      2.00000
      3      15.6212      0.00000
      4      19.2614      0.00000
      5      22.1217      0.00000
      6      23.0007      0.00000
      7      25.6529      0.00000
      8      30.3253      0.00000

 k-point    12 :      -0.2222    0.1111    0.0000
  band No.  band energies     occupation 
      1      -1.8676      2.00000
      2      11.7627      0.00000
      3      15.7489      0.00000
      4      20.7771      0.00000
      5      23.4567      0.00000
      6      24.0693      0.00000
      7      25.4304      0.00000
      8      26.9163      0.00000

 k-point    13 :      -0.1111    0.1111    0.0000
  band No.  band energies     occupation 
      1      -3.2002      2.00000
      2      16.1404      0.00000
      3      16.7588      0.00000
      4      22.0139      0.00000
      5      23.5351      0.00000
      6      24.9364      0.00000
      7      25.8425      0.00000
      8      25.8579      0.00000

 k-point    14 :       0.2222    0.2222    0.0000
  band No.  band energies     occupation 
      1      -2.2296      2.00000
      2      16.4643      0.00000
      3      16.4643      0.00000
      4      17.8718      0.00000
      5      17.9022      0.00000
      6      20.6653      0.00000
      7      30.3048      0.00000
      8      30.3048      0.00000

 k-point    15 :       0.3333    0.2222    0.0000
  band No.  band energies     occupation 
      1      -0.9031      2.00000
      2      12.6067      0.00000
      3      15.6329      0.00000
      4      15.7200      0.00000
      5      18.1658      0.00000
      6      21.4161      0.00000
      7      29.7461      0.00000
      8      31.1762      0.00000

 k-point    16 :       0.4444    0.2222    0.0000
  band No.  band energies     occupation 
      1       1.1275      2.00000
      2       8.4914      2.00000
      3      13.6281      0.00000
      4      15.6086      0.00000
      5      18.1623      0.00000
      6      24.7392      0.00000
      7      28.1650      0.00000
      8      30.9077      0.00000

 k-point    17 :      -0.4444    0.2222    0.0000
  band No.  band energies     occupation 
      1       3.7964      2.00000
      2       4.9638      2.00000
      3      12.2030      0.00000
      4      16.1260      0.00000
      5      18.7538      0.00000
      6      26.9377      0.00000
      7      28.0758      0.00000
      8      30.6185      0.00000

 k-point    18 :      -0.3333    0.2222    0.0000
  band No.  band energies     occupation 
      1       1.9557      2.00000
      2       7.2151      2.00000
      3      11.4470      0.00000
      4      17.2576      0.00000
      5      20.0122      0.00000
      6      26.2802      0.00000
      7      28.5401      0.00000
      8      30.0555      0.00000

 k-point    19 :      -0.2222    0.2222    0.0000
  band No.  band energies     occupation 
      1      -0.3041      2.00000
      2      10.7596      0.00000
      3      11.7611      0.00000
      4      18.9479      0.00000
      5      21.8768      0.00000
      6      26.2106      0.00000
      7      26.3268      0.00000
      8      27.4678      0.00000

 k-point    20 :       0.3333    0.3333    0.0000
  band No.  band energies     occupation 
      1       0.1759      2.00000
      2      12.7199      0.00000
      3      14.7656      0.00000
      4      14.7656      0.00000
      5      15.9721      0.00000
      6      18.5385      0.00000
      7      33.2295      0.00000
      8      33.9787      0.00000

 k-point    21 :       0.4444    0.3333    0.0000
  band No.  band energies     occupation 
      1       1.9574      2.00000
      2      10.3494      1.92439
      3      11.3279      0.00000
      4      14.4455      0.00000
      5      16.7211      0.00000
      6      20.1493      0.00000
      7      32.2689      0.00000
      8      34.4289      0.00000

 k-point    22 :      -0.4444    0.3333    0.0000
  band No.  band energies     occupation 
      1       4.4014      2.00000
      2       7.5344      2.00000
      3       8.7744      2.00000
      4      14.7606      0.00000
      5      17.2352      0.00000
      6      24.0209      0.00000
      7      31.0045      0.00000
      8      33.3063      0.00000

 k-point    23 :      -0.3333    0.3333    0.0000
  band No.  band energies     occupation 
      1       4.4158      2.00000
      2       7.1050      2.00000
      3       8.1698      2.00000
      4      15.7054      0.00000
      5      18.3139      0.00000
      6      28.2815      0.00000
      7      29.8168      0.00000
      8      30.7842      0.00000

 k-point    24 :       0.4444    0.4444    0.0000
  band No.  band energies     occupation 
      1       3.4733      2.00000
      2       7.7872      2.00000
      3      13.9140      0.00000
      4      13.9140      0.00000
      5      15.0109      0.00000
      6      17.6250      0.00000
      7      35.1864      0.00000
      8      36.7014      0.00000

 k-point    25 :      -0.4444    0.4444    0.0000
  band No.  band energies     occupation 
      1       5.2720      2.00000
      2       6.2392      2.00000
      3      10.8397      0.00000
      4      14.0197      0.00000
      5      16.2492      0.00000
      6      19.7233      0.00000
      7      34.3992      0.00000
      8      35.9351      0.00000

 k-point    26 :       0.3333    0.2222    0.1111
  band No.  band energies     occupation 
      1      -1.7465      2.00000
      2      13.4723      0.00000
      3      14.2805      0.00000
      4      18.6790      0.00000
      5      21.6867      0.00000
      6      22.9144      0.00000
      7      26.8617      0.00000
      8      29.0550      0.00000

 k-point    27 :       0.4444    0.2222    0.1111
  band No.  band energies     occupation 
      1       0.0549      2.00000
      2       9.5012      2.00000
      3      13.6068      0.00000
      4      16.5817      0.00000
      5      21.8658      0.00000
      6      24.5553      0.00000
      7      26.0327      0.00000
      8      29.7715      0.00000

 k-point    28 :      -0.4444    0.2222    0.1111
  band No.  band energies     occupation 
      1       2.5394      2.00000
      2       5.7430      2.00000
      3      13.8685      0.00000
      4      15.0260      0.00000
      5      22.0557      0.00000
      6      23.4787      0.00000
      7      28.6632      0.00000
      8      30.5587      0.00000

 k-point    29 :       0.4444    0.3333    0.1111
  band No.  band energies     occupation 
      1       0.6527      2.00000
      2      11.6673      0.00000
      3      12.4145      0.00000
      4      13.3915      0.00000
      5      19.9498      0.00000
      6      21.3204      0.00000
      7      28.9575      0.00000
      8      33.5220      0.00000

 k-point    30 :      -0.4444    0.3333    0.1111
  band No.  band energies     occupation 
      1       2.8986      2.00000
      2       8.1220      2.00000
      3      11.2575      0.00000
      4      12.4079      0.00000
      5      20.6576      0.00000
      6      24.4305      0.00000
      7      27.5473      0.00000
      8      33.0425      0.00000

 k-point    31 :      -0.3333    0.3333    0.1111
  band No.  band energies     occupation 
      1       4.7379      2.00000
      2       5.8577      2.00000
      3      10.0887      2.00000
      4      13.1145      0.00000
      5      21.4440      0.00000
      6      26.0938      0.00000
      7      28.6489      0.00000
      8      29.9784      0.00000

 k-point    32 :      -0.2222    0.3333    0.1111
  band No.  band energies     occupation 
      1       2.0757      2.00000
      2       8.9359      2.00000
      3       9.9708      2.00000
      4      14.5392      0.00000
      5      22.7357      0.00000
      6      25.2407      0.00000
      7      26.1832      0.00000
      8      32.3383      0.00000

 k-point    33 :      -0.4444    0.4444    0.1111
  band No.  band energies     occupation 
      1       3.9401      2.00000
      2       8.2334      2.00000
      3      10.7601      0.00000
      4      11.7478      0.00000
      5      19.0569      0.00000
      6      20.5171      0.00000
      7      31.7405      0.00000
      8      34.5440      0.00000

 k-point    34 :      -0.3333    0.4444    0.1111
  band No.  band energies     occupation 
      1       6.1888      2.00000
      2       7.0410      2.00000
      3       7.8198      2.00000
      4      11.9022      0.00000
      5      20.2352      0.00000
      6      24.1152      0.00000
      7      30.3688      0.00000
      8      30.8569      0.00000

 k-point    35 :      -0.3333    0.4444    0.2222
  band No.  band energies     occupation 
      1       5.3288      2.00000
      2       8.0216      2.00000
      3       8.8958      2.00000
      4       9.8583      2.00000
      5      24.4073      0.00000
      6      24.5646      0.00000
      7      26.4687      0.00000
      8      29.8375      0.00000


--------------------------------------------------------------------------------------------------------


 soft charge-density along one line, spin component           1
         0         1         2         3         4         5         6         7         8         9
 total charge-density along one line
 
 pseudopotential strength for first ion, spin component:           1
 17.925  25.006   0.000   0.000   0.000   0.000   0.000   0.000
 25.006  34.889   0.000   0.000   0.000   0.000   0.000   0.000
  0.000   0.000   4.090  -0.000  -0.000   7.619  -0.000  -0.000
  0.000   0.000  -0.000   4.090  -0.000  -0.000   7.619  -0.000
  0.000   0.000  -0.000  -0.000   4.090  -0.000  -0.000   7.619
  0.000   0.000   7.619  -0.000  -0.000  14.204  -0.000  -0.000
  0.000   0.000  -0.000   7.619  -0.000  -0.000  14.204  -0.000
  0.000   0.000  -0.000  -0.000   7.619  -0.000  -0.000  14.204
 total augmentation occupancy for first ion, spin component:           1
  5.094  -2.192   0.000   0.000   0.000   0.000   0.000   0.000
 -2.192   1.429   0.000   0.000   0.000   0.000   0.000   0.000
  0.000   0.000   2.400  -0.000  -0.000  -0.581   0.000   0.000
  0.000   0.000  -0.000   2.400  -0.000   0.000  -0.581   0.000
  0.000   0.000  -0.000  -0.000   2.400   0.000   0.000  -0.581
  0.000   0.000  -0.581   0.000   0.000   0.154  -0.000  -0.000
  0.000   0.000   0.000  -0.581   0.000  -0.000   0.154  -0.000
  0.000   0.000   0.000   0.000  -0.581  -0.000  -0.000   0.154


------------------------ aborting loop because EDIFF is reached ----------------------------------------


    CHARGE:  cpu time    0.0190: real time    0.0202
    FORLOC:  cpu time    0.0000: real time    0.0007
    FORNL :  cpu time    0.0590: real time    0.0595
    STRESS:  cpu time    0.2410: real time    0.2413
    FORCOR:  cpu time    0.0140: real time    0.0138
    FORHAR:  cpu time    0.0020: real time    0.0026
    MIXING:  cpu time    0.0000: real time    0.0006
    OFIELD:  cpu time    0.0000: real time    0.0001

  FORCE on cell =-STRESS in cart. coord.  units (eV):
  Direction    XX          YY          ZZ          XY          YZ          ZX
  --------------------------------------------------------------------------------------
  Alpha Z     2.39058     2.39058     2.39058
  Ewald     -45.92833   -45.92832   -45.92832     0.00000     0.00001     0.00001
  Hartree     0.13416     0.13416     0.13416     0.00000     0.00000     0.00000
  E(xc)     -12.78886   -12.78886   -12.78886    -0.00000    -0.00000    -0.00000
  Local      -4.78268    -4.78269    -4.78268     0.00000     0.00000     0.00001
  n-local    36.27658    38.75600    40.90038    -0.32350    -0.03827    -0.08307
  augment    -6.32099    -6.32099    -6.32099    -0.00000    -0.00000    -0.00000
  Kinetic    53.21036    27.86027     5.81078    -2.94002     1.55341    -0.38352
  Fock        0.00000     0.00000     0.00000     0.00000     0.00000     0.00000
  -------------------------------------------------------------------------------------
  Total       0.30868     0.30868     0.30868    -0.00000    -0.00000    -0.00000
  in kB      35.12096    35.12095    35.12095    -0.00000    -0.00001    -0.00001
  external pressure =       35.12 kB  Pullay stress =        0.00 kB


 VOLUME and BASIS-vectors are now :
 -----------------------------------------------------------------------------
  energy-cutoff  :      350.00
  volume of cell :       14.08
      direct lattice vectors                 reciprocal lattice vectors
     2.347395000  0.000000000  1.355268000     0.426004145 -0.150615226  0.000000000
     0.782465000  2.213145000  1.355268000     0.000000000  0.451845677  0.000000000
     0.000000000  0.000000000  2.710538000    -0.213001915 -0.150615114  0.368930448

  length of vectors
     2.710537703  2.710537515  2.710538000     0.451845635  0.451845677  0.451845554


 FORCES acting on ions
    electron-ion (+dipol)            ewald-force                    non-local-force                 convergence-correction
 -----------------------------------------------------------------------------------------------
   -.193E-15 0.111E-14 0.116E-14   0.159E-15 -.845E-16 -.358E-16   -.827E-24 0.000E+00 0.331E-23   0.116E-17 0.535E-17 -.503E-17
 -----------------------------------------------------------------------------------------------
   -.193E-15 0.111E-14 0.116E-14   0.159E-15 -.845E-16 -.358E-16   -.827E-24 0.000E+00 0.331E-23   0.116E-17 0.535E-17 -.503E-17
 
 
 POSITION                                       TOTAL-FORCE (eV/Angst)
 -----------------------------------------------------------------------------------
      0.00000      0.00000      0.00000         0.000000      0.000000     -0.000000
 -----------------------------------------------------------------------------------
    total drift:                               -0.000000      0.000000      0.000000


--------------------------------------------------------------------------------------------------------



  FREE ENERGIE OF THE ION-ELECTRON SYSTEM (eV)
  ---------------------------------------------------
  free  energy   TOTEN  =        -4.89930935 eV

  energy  without entropy=       -4.89909103  energy(sigma->0) =       -4.89920019
 


--------------------------------------------------------------------------------------------------------


    POTLOK:  cpu time    0.1810: real time    0.1891


--------------------------------------------------------------------------------------------------------




--------------------------------------------------------------------------------------------------------


    WAVPRE:  cpu time    0.0040: real time    0.0163
    FEWALD:  cpu time    0.0010: real time    0.0002
    GENKIN:  cpu time    0.0070: real time    0.0080
    ORTHCH:  cpu time    0.0050: real time    0.0041
     LOOP+:  cpu time    3.7424: real time    3.9028


--------------------------------------- Iteration      2(   1)  ---------------------------------------


    POTLOK:  cpu time    0.0130: real time    0.0173
    SETDIJ:  cpu time    0.1660: real time    0.1659
     EDDAV:  cpu time    0.1690: real time    0.1696
       DOS:  cpu time    0.0010: real time    0.0010
    CHARGE:  cpu time    0.0180: real time    0.0186
    MIXING:  cpu time    0.0010: real time    0.0007
    --------------------------------------------
      LOOP:  cpu time    0.3679: real time    0.3736

 eigenvalue-minimisations  :   608
 total energy-change (2. order) :-0.9165276E-02  (-0.2132068E-01)
 number of electron       4.0000000 magnetization 
 augmentation part       -0.2517415 magnetization 

 Broyden mixing:
  rms(total) = 0.43071E-01    rms(broyden)= 0.43070E-01
  rms(prec ) = 0.12808E+00
  weight for this iteration     100.00

 Free energy of the ion-electron system (eV)
  ---------------------------------------------------
  alpha Z        PSCENC =         2.28688390
  Ewald energy   TEWEN  =      -135.76324469
  -Hartree energ DENC   =        -0.39658223
  -exchange      EXHF   =         0.00000000
  -V(xc)+E(xc)   XCENC  =        -8.78908271
  PAW double counting   =       318.70105477     -301.12206750
  entropy T*S    EENTRO =        -0.00020836
  eigenvalues    EBANDS =        17.10914546
  atomic energy  EATOM  =       103.06562707
  Solvation  Ediel_sol  =         0.00000000
  ---------------------------------------------------
  free energy    TOTEN  =        -4.90847429 eV

  energy without entropy =       -4.90826592  energy(sigma->0) =       -4.90837011


--------------------------------------------------------------------------------------------------------




--------------------------------------- Iteration      2(   2)  ---------------------------------------


    POTLOK:  cpu time    0.0150: real time    0.0268
    SETDIJ:  cpu time    0.1640: real time    0.1648
     EDDAV:  cpu time    0.1990: real time    0.1986
       DOS:  cpu time    0.0010: real time    0.0011
    CHARGE:  cpu time    0.0180: real time    0.0189
    MIXING:  cpu time    0.0010: real time    0.0009
    --------------------------------------------
      LOOP:  cpu time    0.3979: real time    0.4111

 eigenvalue-minimisations  :   696
 total energy-change (2. order) : 0.2280370E-02  (-0.1145140E-03)
 number of electron       4.0000000 magnetization 
 augmentation part       -0.2512040 magnetization 

 Broyden mixing:
  rms(total) = 0.24249E-01    rms(broyden)= 0.24249E-01
  rms(prec ) = 0.75549E-01
  weight for this iteration     100.00

 eigenvalues of (default mixing * dielectric matrix)
  average eigenvalue GAMMA=   2.2507
  2.2507

 Free energy of the ion-electron system (eV)
  ---------------------------------------------------
  alpha Z        PSCENC =         2.28688390
  Ewald energy   TEWEN  =      -135.76324469
  -Hartree energ DENC   =        -0.42480779
  -exchange      EXHF   =         0.00000000
  -V(xc)+E(xc)   XCENC  =        -8.79439232
  PAW double counting   =       302.09832779     -284.51807666
  entropy T*S    EENTRO =        -0.00020880
  eigenvalues    EBANDS =        17.14369758
  atomic energy  EATOM  =       103.06562707
  Solvation  Ediel_sol  =         0.00000000
  ---------------------------------------------------
  free energy    TOTEN  =        -4.90619392 eV

  energy without entropy =       -4.90598511  energy(sigma->0) =       -4.90608952


--------------------------------------------------------------------------------------------------------




--------------------------------------- Iteration      2(   3)  ---------------------------------------


    POTLOK:  cpu time    0.0150: real time    0.0231
    SETDIJ:  cpu time    0.1650: real time    0.1648
     EDDAV:  cpu time    0.1760: real time    0.1763
       DOS:  cpu time    0.0000: real time    0.0010
    CHARGE:  cpu time    0.0190: real time    0.0186
    MIXING:  cpu time    0.0010: real time    0.0009
    --------------------------------------------
      LOOP:  cpu time    0.3759: real time    0.3848

 eigenvalue-minimisations  :   632
 total energy-change (2. order) : 0.1336278E-02  (-0.1542034E-03)
 number of electron       4.0000000 magnetization 
 augmentation part       -0.2498181 magnetization 

 Broyden mixing:
  rms(total) = 0.70855E-02    rms(broyden)= 0.70855E-02
  rms(prec ) = 0.71652E-02
  weight for this iteration     100.00

 eigenvalues of (default mixing * dielectric matrix)
  average eigenvalue GAMMA=   1.2949
  2.1745  0.4153

 Free energy of the ion-electron system (eV)
  ---------------------------------------------------
  alpha Z        PSCENC =         2.28688390
  Ewald energy   TEWEN  =      -135.76324469
  -Hartree energ DENC   =        -0.46864956
  -exchange      EXHF   =         0.00000000
  -V(xc)+E(xc)   XCENC  =        -8.80292004
  PAW double counting   =       280.36963285     -262.78545230
  entropy T*S    EENTRO =        -0.00020971
  eigenvalues    EBANDS =        17.19347485
  atomic energy  EATOM  =       103.06562707
  Solvation  Ediel_sol  =         0.00000000
  ---------------------------------------------------
  free energy    TOTEN  =        -4.90485764 eV

  energy without entropy =       -4.90464793  energy(sigma->0) =       -4.90475278


--------------------------------------------------------------------------------------------------------




--------------------------------------- Iteration      2(   4)  ---------------------------------------


    POTLOK:  cpu time    0.0150: real time    0.0266
    SETDIJ:  cpu time    0.1640: real time    0.1649
     EDDAV:  cpu time    0.3539: real time    0.3536
       DOS:  cpu time    0.0010: real time    0.0013
    CHARGE:  cpu time    0.0270: real time    0.0278
    MIXING:  cpu time    0.0010: real time    0.0012
    --------------------------------------------
      LOOP:  cpu time    0.5619: real time    0.5754

 eigenvalue-minimisations  :   760
 total energy-change (2. order) : 0.1511592E-05  (-0.2799529E-06)
 number of electron       4.0000000 magnetization 
 augmentation part       -0.2498202 magnetization 

 Broyden mixing:
  rms(total) = 0.59323E-02    rms(broyden)= 0.59323E-02
  rms(prec ) = 0.60396E-02
  weight for this iteration     100.00

 eigenvalues of (default mixing * dielectric matrix)
  average eigenvalue GAMMA=   2.2220
  0.9607  3.2961  2.4093

 Free energy of the ion-electron system (eV)
  ---------------------------------------------------
  alpha Z        PSCENC =         2.28688390
  Ewald energy   TEWEN  =      -135.76324469
  -Hartree energ DENC   =        -0.46848576
  -exchange      EXHF   =         0.00000000
  -V(xc)+E(xc)   XCENC  =        -8.80301275
  PAW double counting   =       281.98994221     -264.40524840
  entropy T*S    EENTRO =        -0.00020971
  eigenvalues    EBANDS =        17.19289200
  atomic energy  EATOM  =       103.06562707
  Solvation  Ediel_sol  =         0.00000000
  ---------------------------------------------------
  free energy    TOTEN  =        -4.90485613 eV

  energy without entropy =       -4.90464642  energy(sigma->0) =       -4.90475127


--------------------------------------------------------------------------------------------------------




--------------------------------------- Iteration      2(   5)  ---------------------------------------


    POTLOK:  cpu time    0.0150: real time    0.0221
    SETDIJ:  cpu time    0.1660: real time    0.1651
     EDDAV:  cpu time    0.1760: real time    0.1772
       DOS:  cpu time    0.0000: real time    0.0010
    CHARGE:  cpu time    0.0180: real time    0.0183
    MIXING:  cpu time    0.0010: real time    0.0010
    --------------------------------------------
      LOOP:  cpu time    0.3759: real time    0.3847

 eigenvalue-minimisations  :   624
 total energy-change (2. order) : 0.6453380E-05  (-0.5277599E-07)
 number of electron       4.0000000 magnetization 
 augmentation part       -0.2498118 magnetization 

 Broyden mixing:
  rms(total) = 0.10602E-02    rms(broyden)= 0.10602E-02
  rms(prec ) = 0.10737E-02
  weight for this iteration     100.00

 eigenvalues of (default mixing * dielectric matrix)
  average eigenvalue GAMMA=   1.6974
  2.6589  2.3598  1.0106  0.7605

 Free energy of the ion-electron system (eV)
  ---------------------------------------------------
  alpha Z        PSCENC =         2.28688390
  Ewald energy   TEWEN  =      -135.76324469
  -Hartree energ DENC   =        -0.46883493
  -exchange      EXHF   =         0.00000000
  -V(xc)+E(xc)   XCENC  =        -8.80368047
  PAW double counting   =       290.85537871     -273.26796637
  entropy T*S    EENTRO =        -0.00020971
  eigenvalues    EBANDS =        17.19119681
  atomic energy  EATOM  =       103.06562707
  Solvation  Ediel_sol  =         0.00000000
  ---------------------------------------------------
  free energy    TOTEN  =        -4.90484968 eV

  energy without entropy =       -4.90463997  energy(sigma->0) =       -4.90474482


--------------------------------------------------------------------------------------------------------




--------------------------------------- Iteration      2(   6)  ---------------------------------------


    POTLOK:  cpu time    0.0150: real time    0.0219
    SETDIJ:  cpu time    0.1660: real time    0.1662
     EDDAV:  cpu time    0.1130: real time    0.1129
       DOS:  cpu time    0.0000: real time    0.0011
    --------------------------------------------
      LOOP:  cpu time    0.2950: real time    0.3020

 eigenvalue-minimisations  :   336
 total energy-change (2. order) :-0.3301954E-06  (-0.1081778E-08)
 number of electron       4.0000000 magnetization 
 augmentation part       -0.2498118 magnetization 

 Free energy of the ion-electron system (eV)
  ---------------------------------------------------
  alpha Z        PSCENC =         2.28688390
  Ewald energy   TEWEN  =      -135.76324469
  -Hartree energ DENC   =        -0.46881719
  -exchange      EXHF   =         0.00000000
  -V(xc)+E(xc)   XCENC  =        -8.80361122
  PAW double counting   =       289.69114602     -272.10405748
  entropy T*S    EENTRO =        -0.00020971
  eigenvalues    EBANDS =        17.19143330
  atomic energy  EATOM  =       103.06562707
  Solvation  Ediel_sol  =         0.00000000
  ---------------------------------------------------
  free energy    TOTEN  =        -4.90485001 eV

  energy without entropy =       -4.90464030  energy(sigma->0) =       -4.90474515


--------------------------------------------------------------------------------------------------------




 average (electrostatic) potential at core
  the test charge radii are     0.9892
  (the norm of the test charge is              1.0000)
       1 -80.1312
 
 
 
 E-fermi :   9.8010     XC(G=0): -11.1263     alpha+bet :-16.2937

 Fermi energy:         9.8009815556

 k-point     1 :       0.0000    0.0000    0.0000
  band No.  band energies     occupation 
      1      -4.3513      2.00000
      2      20.8796      0.00000
      3      20.8796      0.00000
      4      20.8796      0.00000
      5      21.8408      0.00000
      6      21.8408      0.00000
      7      21.8408      0.00000
      8      27.1066      0.00000

 k-point     2 :       0.1111    0.0000    0.0000
  band No.  band energies     occupation 
      1      -3.9961      2.00000
      2      16.9880      0.00000
      3      19.7590      0.00000
      4      19.7590      0.00000
      5      23.0376      0.00000
      6      23.3373      0.00000
      7      23.3373      0.00000
      8      27.2765      0.00000

 k-point     3 :       0.2222    0.0000    0.0000
  band No.  band energies     occupation 
      1      -2.9345      2.00000
      2      12.3484      0.00000
      3      18.8079      0.00000
      4      18.8079      0.00000
      5      22.9520      0.00000
      6      23.6662      0.00000
      7      23.6662      0.00000
      8      27.2861      0.00000

 k-point     4 :       0.3333    0.0000    0.0000
  band No.  band energies     occupation 
      1      -1.1793      2.00000
      2       8.0930      2.00000
      3      18.3778      0.00000
      4      18.3779      0.00000
      5      22.0516      0.00000
      6      22.0516      0.00000
      7      22.8705      0.00000
      8      27.1410      0.00000

 k-point     5 :       0.4444    0.0000    0.0000
  band No.  band energies     occupation 
      1       1.2331      2.00000
      2       4.4098      2.00000
      3      18.3359      0.00000
      4      18.3359      0.00000
      5      20.9247      0.00000
      6      20.9248      0.00000
      7      23.0150      0.00000
      8      25.8409      0.00000

 k-point     6 :       0.1111    0.1111    0.0000
  band No.  band energies     occupation 
      1      -3.8778      2.00000
      2      18.1180      0.00000
      3      18.1180      0.00000
      4      19.8259      0.00000
      5      19.8551      0.00000
      6      24.7420      0.00000
      7      25.1735      0.00000
      8      25.1735      0.00000

 k-point     7 :       0.2222    0.1111    0.0000
  band No.  band energies     occupation 
      1      -3.0519      2.00000
      2      14.1148      0.00000
      3      16.9932      0.00000
      4      18.7002      0.00000
      5      20.6513      0.00000
      6      22.9771      0.00000
      7      26.0103      0.00000
      8      26.4056      0.00000

 k-point     8 :       0.3333    0.1111    0.0000
  band No.  band energies     occupation 
      1      -1.5279      2.00000
      2       9.7395      1.91780
      3      16.4653      0.00000
      4      17.6002      0.00000
      5      19.6429      0.00000
      6      24.6005      0.00000
      7      25.0386      0.00000
      8      26.6224      0.00000

 k-point     9 :       0.4444    0.1111    0.0000
  band No.  band energies     occupation 
      1       0.6715      2.00000
      2       5.8617      2.00000
      3      16.3359      0.00000
      4      16.5354      0.00000
      5      19.3249      0.00000
      6      23.5114      0.00000
      7      25.1265      0.00000
      8      28.5592      0.00000

 k-point    10 :      -0.4444    0.1111    0.0000
  band No.  band energies     occupation 
      1       2.4303      2.00000
      2       3.6790      2.00000
      3      15.3245      0.00000
      4      17.1789      0.00000
      5      19.9474      0.00000
      6      22.5049      0.00000
      7      24.9168      0.00000
      8      28.5189      0.00000

 k-point    11 :      -0.3333    0.1111    0.0000
  band No.  band energies     occupation 
      1      -0.1342      2.00000
      2       7.0881      2.00000
      3      14.8446      0.00000
      4      18.3198      0.00000
      5      21.2781      0.00000
      6      22.1842      0.00000
      7      24.5857      0.00000
      8      29.3076      0.00000

 k-point    12 :      -0.2222    0.1111    0.0000
  band No.  band energies     occupation 
      1      -2.1126      2.00000
      2      11.1464      0.00000
      3      14.9739      0.00000
      4      19.7348      0.00000
      5      22.6698      0.00000
      6      23.1543      0.00000
      7      24.3858      0.00000
      8      25.9643      0.00000

 k-point    13 :      -0.1111    0.1111    0.0000
  band No.  band energies     occupation 
      1      -3.4055      2.00000
      2      15.4386      0.00000
      3      15.9138      0.00000
      4      20.8643      0.00000
      5      22.7496      0.00000
      6      23.8990      0.00000
      7      24.8226      0.00000
      8      25.0010      0.00000

 k-point    14 :       0.2222    0.2222    0.0000
  band No.  band energies     occupation 
      1      -2.4635      2.00000
      2      15.6716      0.00000
      3      15.6716      0.00000
      4      16.8892      0.00000
      5      17.2730      0.00000
      6      19.9063      0.00000
      7      29.1309      0.00000
      8      29.1309      0.00000

 k-point    15 :       0.3333    0.2222    0.0000
  band No.  band energies     occupation 
      1      -1.1761      2.00000
      2      11.9580      0.00000
      3      14.8148      0.00000
      4      14.9469      0.00000
      5      17.4983      0.00000
      6      20.5245      0.00000
      7      28.6654      0.00000
      8      29.9763      0.00000

 k-point    16 :       0.4444    0.2222    0.0000
  band No.  band energies     occupation 
      1       0.7937      2.00000
      2       7.9634      2.00000
      3      12.9049      0.00000
      4      14.8358      0.00000
      5      17.4516      0.00000
      6      23.7476      0.00000
      7      27.1394      0.00000
      8      29.7163      0.00000

 k-point    17 :      -0.4444    0.2222    0.0000
  band No.  band energies     occupation 
      1       3.3527      2.00000
      2       4.5705      2.00000
      3      11.5331      0.00000
      4      15.3343      0.00000
      5      18.0068      0.00000
      6      25.9506      0.00000
      7      26.9576      0.00000
      8      29.4838      0.00000

 k-point    18 :      -0.3333    0.2222    0.0000
  band No.  band energies     occupation 
      1       1.5944      2.00000
      2       6.7344      2.00000
      3      10.7981      0.00000
      4      16.4251      0.00000
      5      19.2205      0.00000
      6      25.3158      0.00000
      7      27.4098      0.00000
      8      29.0107      0.00000

 k-point    19 :      -0.2222    0.2222    0.0000
  band No.  band energies     occupation 
      1      -0.5957      2.00000
      2      10.2282      0.00000
[...]




 average (electrostatic) potential at core
  the test charge radii are     0.9892
  (the norm of the test charge is              1.0000)
       1 -80.0389
 
 
 
 E-fermi :   9.8899     XC(G=0): -11.1539     alpha+bet :-16.4058

 Fermi energy:         9.8899163312

 k-point     1 :       0.0000    0.0000    0.0000
  band No.  band energies     occupation 
      1      -4.3246      2.00000
      2      21.0517      0.00000
      3      21.0517      0.00000
      4      21.0517      0.00000
      5      21.9560      0.00000
      6      21.9560      0.00000
      7      21.9561      0.00000
      8      27.2381      0.00000

 k-point     2 :       0.1111    0.0000    0.0000
  band No.  band energies     occupation 
      1      -3.9677      2.00000
      2      17.1117      0.00000
      3      19.9053      0.00000
      4      19.9053      0.00000
      5      23.1865      0.00000
      6      23.4820      0.00000
      7      23.4820      0.00000
      8      27.4195      0.00000

 k-point     3 :       0.2222    0.0000    0.0000
  band No.  band energies     occupation 
      1      -2.9011      2.00000
      2      12.4488      0.00000
      3      18.9496      0.00000
      4      18.9496      0.00000
      5      23.1027      0.00000
      6      23.8070      0.00000
      7      23.8070      0.00000
      8      27.4344      0.00000

 k-point     4 :       0.3333    0.0000    0.0000
  band No.  band energies     occupation 
      1      -1.1375      2.00000
      2       8.1738      2.00000
      3      18.5214      0.00000
      4      18.5214      0.00000
      5      22.1761      0.00000
      6      22.1761      0.00000
      7      23.0250      0.00000
      8      27.2836      0.00000

 k-point     5 :       0.4444    0.0000    0.0000
  band No.  band energies     occupation 
      1       1.2878      2.00000
      2       4.4723      2.00000
      3      18.4860      0.00000
      4      18.4860      0.00000
      5      21.0368      0.00000
      6      21.0368      0.00000
      7      23.1775      0.00000
      8      25.9709      0.00000

 k-point     6 :       0.1111    0.1111    0.0000
  band No.  band energies     occupation 
      1      -3.8488      2.00000
      2      18.2512      0.00000
      3      18.2512      0.00000
      4      19.9593      0.00000
      5      19.9978      0.00000
      6      24.8724      0.00000
      7      25.3314      0.00000
      8      25.3314      0.00000

 k-point     7 :       0.2222    0.1111    0.0000
  band No.  band energies     occupation 
      1      -3.0190      2.00000
      2      14.2235      0.00000
      3      17.1210      0.00000
      4      18.8469      0.00000
      5      20.7804      0.00000
      6      23.1062      0.00000
      7      26.1701      0.00000
      8      26.5676      0.00000

 k-point     8 :       0.3333    0.1111    0.0000
  band No.  band energies     occupation 
      1      -1.4878      2.00000
      2       9.8279      1.92053
      3      16.5914      0.00000
      4      17.7474      0.00000
      5      19.7484      0.00000
      6      24.7621      0.00000
      7      25.1860      0.00000
      8      26.7766      0.00000

 k-point     9 :       0.4444    0.1111    0.0000
  band No.  band energies     occupation 
      1       0.7225      2.00000
      2       5.9319      2.00000
      3      16.4696      0.00000
      4      16.6633      0.00000
      5      19.4354      0.00000
      6      23.6490      0.00000
      7      25.2986      0.00000
      8      28.7039      0.00000

 k-point    10 :      -0.4444    0.1111    0.0000
  band No.  band energies     occupation 
      1       2.4951      2.00000
      2       3.7336      2.00000
      3      15.4479      0.00000
      4      17.3124      0.00000
      5      20.0665      0.00000
      6      22.6353      0.00000
      7      25.0862      0.00000
      8      28.6635      0.00000

 k-point    11 :      -0.3333    0.1111    0.0000
  band No.  band energies     occupation 
      1      -0.0874      2.00000
      2       7.1641      2.00000
      3      14.9633      0.00000
      4      18.4638      0.00000
      5      21.4062      0.00000
      6      22.3082      0.00000
      7      24.7484      0.00000
      8      29.4627      0.00000

 k-point    12 :      -0.2222    0.1111    0.0000
  band No.  band energies     occupation 
      1      -2.0753      2.00000
      2      11.2406      0.00000
      3      15.0922      0.00000
      4      19.8939      0.00000
      5      22.7897      0.00000
      6      23.2935      0.00000
      7      24.5449      0.00000
      8      26.1090      0.00000

 k-point    13 :      -0.1111    0.1111    0.0000
  band No.  band energies     occupation 
      1      -3.3743      2.00000
      2      15.5460      0.00000
      3      16.0430      0.00000
      4      21.0392      0.00000
      5      22.8695      0.00000
      6      24.0568      0.00000
      7      24.9775      0.00000
      8      25.1317      0.00000

 k-point    14 :       0.2222    0.2222    0.0000
  band No.  band energies     occupation 
      1      -2.4279      2.00000
      2      15.7926      0.00000
      3      15.7926      0.00000
      4      17.0443      0.00000
      5      17.3643      0.00000
      6      20.0210      0.00000
      7      29.3095      0.00000
      8      29.3095      0.00000

 k-point    15 :       0.3333    0.2222    0.0000
  band No.  band energies     occupation 
      1      -1.1345      2.00000
      2      12.0575      0.00000
      3      14.9400      0.00000
      4      15.0648      0.00000
      5      17.5996      0.00000
      6      20.6596      0.00000
      7      28.8301      0.00000
      8      30.1590      0.00000

 k-point    16 :       0.4444    0.2222    0.0000
  band No.  band energies     occupation 
      1       0.8447      2.00000
      2       8.0441      2.00000
      3      13.0155      0.00000
      4      14.9537      0.00000
      5      17.5593      0.00000
      6      23.8984      0.00000
      7      27.2956      0.00000
      8      29.8978      0.00000

 k-point    17 :      -0.4444    0.2222    0.0000
  band No.  band energies     occupation 
      1       3.4212      2.00000
      2       4.6298      2.00000
      3      11.6354      0.00000
      4      15.4550      0.00000
      5      18.1201      0.00000
      6      26.1009      0.00000
      7      27.1280      0.00000
      8      29.6568      0.00000

 k-point    18 :      -0.3333    0.2222    0.0000
  band No.  band energies     occupation 
      1       1.6497      2.00000
      2       6.8077      2.00000
      3      10.8970      0.00000
      4      16.5522      0.00000
      5      19.3407      0.00000
      6      25.4627      0.00000
      7      27.5821      0.00000
      8      29.1697      0.00000

 k-point    19 :      -0.2222    0.2222    0.0000
  band No.  band energies     occupation 
      1      -0.5512      2.00000
      2      10.3093      0.00000
      3      11.1590      0.00000
      4      18.1816      0.00000
      5      21.1574      0.00000
      6      25.3545      0.00000
      7      25.5873      0.00000
      8      26.5390      0.00000

 k-point    20 :       0.3333    0.3333    0.0000
  band No.  band energies     occupation 
      1      -0.0818      2.00000
      2      12.1071      0.00000
      3      14.1333      0.00000
      4      14.1333      0.00000
      5      15.5126      0.00000
      6      17.8157      0.00000
      7      32.2816      0.00000
      8      32.9135      0.00000

 k-point    21 :       0.4444    0.3333    0.0000
  band No.  band energies     occupation 
      1       1.6567      2.00000
      2       9.7878      1.99614
      3      10.8540      0.00000
      4      13.8199      0.00000
      5      16.1604      0.00000
      6      19.3999      0.00000
      7      31.3065      0.00000
      8      33.3635      0.00000

 k-point    22 :      -0.4444    0.3333    0.0000
  band No.  band energies     occupation 
      1       4.0407      2.00000
      2       7.0838      2.00000
      3       8.3235      2.00000
      4      14.1262      0.00000
      5      16.6382      0.00000
      6      23.1979      0.00000
      7      30.0644      0.00000
      8      32.2692      0.00000

 k-point    23 :      -0.3333    0.3333    0.0000
  band No.  band energies     occupation 
      1       4.0407      2.00000
      2       6.7423      2.00000
      3       7.6693      2.00000
      4      15.0461      0.00000
      5      17.6839      0.00000
      6      27.3614      0.00000
      7      28.8672      0.00000
      8      29.9229      0.00000

 k-point    24 :       0.4444    0.4444    0.0000
  band No.  band energies     occupation 
      1       3.1414      2.00000
      2       7.3122      2.00000
      3      13.3007      0.00000
      4      13.3007      0.00000
      5      14.5759      0.00000
      6      16.8956      0.00000
      7      34.1741      0.00000
      8      35.6246      0.00000

 k-point    25 :      -0.4444    0.4444    0.0000
  band No.  band energies     occupation 
      1       4.9514      2.00000
      2       5.7439      2.00000
      3      10.3576      0.00000
      4      13.4036      0.00000
      5      15.6952      0.00000
      6      18.9790      0.00000
      7      33.3805      0.00000
      8      34.9114      0.00000

 k-point    26 :       0.3333    0.2222    0.1111
  band No.  band energies     occupation 
      1      -1.9571      2.00000
      2      12.9507      0.00000
      3      13.6173      0.00000
      4      17.9176      0.00000
      5      21.0091      0.00000
      6      22.1330      0.00000
      7      26.0060      0.00000
      8      28.1230      0.00000

 k-point    27 :       0.4444    0.2222    0.1111
  band No.  band energies     occupation 
      1      -0.2012      2.00000
      2       9.0348      2.00000
      3      12.9962      0.00000
      4      15.9189      0.00000
      5      21.1379      0.00000
      6      23.7326      0.00000
      7      25.2086      0.00000
      8      28.8231      0.00000

 k-point    28 :      -0.4444    0.2222    0.1111
  band No.  band energies     occupation 
      1       2.2149      2.00000
      2       5.3707      2.00000
      3      13.2297      0.00000
      4      14.4363      0.00000
      5      21.2894      0.00000
      6      22.7330      0.00000
      7      27.7051      0.00000
      8      29.6103      0.00000

 k-point    29 :       0.4444    0.3333    0.1111
  band No.  band energies     occupation 
      1       0.3828      2.00000
      2      11.1914      0.00000
      3      11.7405      0.00000
      4      12.8705      0.00000
      5      19.3120      0.00000
      6      20.5214      0.00000
      7      28.0588      0.00000
      8      32.4806      0.00000

 k-point    30 :      -0.4444    0.3333    0.1111
  band No.  band energies     occupation 
      1       2.5719      2.00000
      2       7.6845      2.00000
      3      10.6859      0.00000
      4      11.8932      0.00000
      5      19.9519      0.00000
      6      23.5912      0.00000
      7      26.6927      0.00000
      8      32.0170      0.00000

 k-point    31 :      -0.3333    0.3333    0.1111
  band No.  band energies     occupation 
      1       4.3399      2.00000
      2       5.5048      2.00000
      3       9.5672      2.00000
      4      12.5575      0.00000
      5      20.7036      0.00000
      6      25.2573      0.00000
      7      27.7448      0.00000
      8      29.0353      0.00000

 k-point    32 :      -0.2222    0.3333    0.1111
  band No.  band energies     occupation 
      1       1.7683      2.00000
      2       8.5299      2.00000
      3       9.4086      2.00000
      4      13.9404      0.00000
      5      21.9469      0.00000
      6      24.4676      0.00000
      7      25.3195      0.00000
      8      31.3471      0.00000

 k-point    33 :      -0.4444    0.4444    0.1111
  band No.  band energies     occupation 
      1       3.5955      2.00000
      2       7.7361      2.00000
      3      10.3066      0.00000
      4      11.1957      0.00000
      5      18.4399      0.00000
      6      19.7246      0.00000
      7      30.7809      0.00000
      8      33.5217      0.00000

 k-point    34 :      -0.3333    0.4444    0.1111
  band No.  band energies     occupation 
      1       5.8473      2.00000
      2       6.4711      2.00000
      3       7.4589      2.00000
      4      11.3694      0.00000
      5      19.5388      0.00000
      6      23.2843      0.00000
      7      29.4646      0.00000
      8      29.8898      0.00000

 k-point    35 :      -0.3333    0.4444    0.2222
  band No.  band energies     occupation 
      1       4.9407      2.00000
      2       7.6372      2.00000
      3       8.2961      2.00000
      4       9.4483      2.00000
      5      23.6536      0.00000
      6      23.6697      0.00000
      7      25.6472      0.00000
      8      28.9086      0.00000


--------------------------------------------------------------------------------------------------------


 soft charge-density along one line, spin component           1
         0         1         2         3         4         5         6         7         8         9
 total charge-density along one line
 
 pseudopotential strength for first ion, spin component:           1
 17.982  25.086   0.000   0.000   0.000   0.000   0.000   0.000
 25.086  35.001   0.000   0.000   0.000   0.000   0.000   0.000
  0.000   0.000   4.098  -0.000  -0.000   7.634  -0.000  -0.000
  0.000   0.000  -0.000   4.098  -0.000  -0.000   7.634  -0.000
  0.000   0.000  -0.000  -0.000   4.098  -0.000  -0.000   7.634
  0.000   0.000   7.634  -0.000  -0.000  14.233  -0.000  -0.000
  0.000   0.000  -0.000   7.634  -0.000  -0.000  14.233  -0.000
  0.000   0.000  -0.000  -0.000   7.634  -0.000  -0.000  14.233
 total augmentation occupancy for first ion, spin component:           1
  4.794  -2.014   0.000   0.000   0.000   0.000   0.000   0.000
 -2.014   1.336   0.000   0.000   0.000   0.000   0.000   0.000
  0.000   0.000   2.278  -0.000   0.000  -0.540   0.000  -0.000
  0.000   0.000  -0.000   2.278  -0.000   0.000  -0.540   0.000
  0.000   0.000   0.000  -0.000   2.278  -0.000   0.000  -0.540
  0.000   0.000  -0.540   0.000  -0.000   0.141  -0.000   0.000
  0.000   0.000   0.000  -0.540   0.000  -0.000   0.141  -0.000
  0.000   0.000  -0.000   0.000  -0.540   0.000  -0.000   0.141


------------------------ aborting loop because EDIFF is reached ----------------------------------------


    CHARGE:  cpu time    0.0180: real time    0.0186
    FORLOC:  cpu time    0.0010: real time    0.0006
    FORNL :  cpu time    0.0530: real time    0.0530
    STRESS:  cpu time    0.2240: real time    0.2244
    FORCOR:  cpu time    0.0140: real time    0.0138
    FORHAR:  cpu time    0.0030: real time    0.0027
    MIXING:  cpu time    0.0000: real time    0.0007
    OFIELD:  cpu time    0.0000: real time    0.0001

  FORCE on cell =-STRESS in cart. coord.  units (eV):
  Direction    XX          YY          ZZ          XY          YZ          ZX
  --------------------------------------------------------------------------------------
  Alpha Z     2.30262     2.30262     2.30262
  Ewald     -45.35796   -45.35796   -45.35796     0.00000     0.00001     0.00001
  Hartree     0.15260     0.15260     0.15260     0.00000     0.00000     0.00000
  E(xc)     -12.66774   -12.66774   -12.66774    -0.00000    -0.00000    -0.00000
  Local      -5.09954    -5.09954    -5.09954     0.00000     0.00000     0.00001
  n-local    36.55767    38.68379    40.60357    -0.33221    -0.04641    -0.06570
  augment    -6.35840    -6.35840    -6.35840    -0.00000    -0.00000    -0.00001
  Kinetic    51.99993    27.34600     5.89672    -2.90807     1.52404    -0.38436
  Fock        0.00000     0.00000     0.00000     0.00000     0.00000     0.00000
  -------------------------------------------------------------------------------------
  Total       0.00079     0.00079     0.00079    -0.00000    -0.00000    -0.00000
  in kB       0.08695     0.08695     0.08695    -0.00000    -0.00000    -0.00000
  external pressure =        0.09 kB  Pullay stress =        0.00 kB


 VOLUME and BASIS-vectors are now :
 -----------------------------------------------------------------------------
  energy-cutoff  :      350.00
  volume of cell :       14.62
      direct lattice vectors                 reciprocal lattice vectors
     2.376912710 -0.000000005  1.372310032     0.420713808 -0.148744809  0.000000002
     0.792304232  2.240974557  1.372310032     0.000000000  0.446234427  0.000000002
    -0.000000015 -0.000000010  2.744622114    -0.210356747 -0.148744698  0.364348881

  length of vectors
     2.744621805  2.744621610  2.744622114     0.446234385  0.446234427  0.446234303


 FORCES acting on ions
    electron-ion (+dipol)            ewald-force                    non-local-force                 convergence-correction
 -----------------------------------------------------------------------------------------------
   0.118E-14 0.662E-15 0.640E-15   0.548E-15 0.842E-16 0.332E-16   0.154E-24 -.735E-25 -.465E-24   0.474E-16 -.208E-16 -.286E-16
 -----------------------------------------------------------------------------------------------
   0.118E-14 0.662E-15 0.640E-15   0.548E-15 0.842E-16 0.332E-16   0.154E-24 -.735E-25 -.465E-24   0.474E-16 -.208E-16 -.286E-16
 
 
 POSITION                                       TOTAL-FORCE (eV/Angst)
 -----------------------------------------------------------------------------------
      0.00000      0.00000     -0.00000        -0.000000      0.000000     -0.000000
 -----------------------------------------------------------------------------------
    total drift:                                0.000000      0.000000      0.000000


--------------------------------------------------------------------------------------------------------



  FREE ENERGIE OF THE ION-ELECTRON SYSTEM (eV)
  ---------------------------------------------------
  free  energy   TOTEN  =        -4.90503317 eV

  energy  without entropy=       -4.90481934  energy(sigma->0) =       -4.90492625
 
 d Force = 0.0000000E+00[ 0.000E+00, 0.000E+00]  d Energy = 0.1831602E-03-0.183E-03
 d Force = 0.0000000E+00[ 0.000E+00, 0.000E+00]  d Ewald  = 0.3106343E+00-0.311E+00


--------------------------------------------------------------------------------------------------------


    POTLOK:  cpu time    0.1800: real time    0.1863


--------------------------------------------------------------------------------------------------------




--------------------------------------------------------------------------------------------------------


  
 reached required accuracy - stopping structural energy minimisation
     LOOP+:  cpu time    2.7446: real time    2.8754
    4ORBIT:  cpu time    0.0000: real time    0.0000

 total amount of memory used by VASP MPI-rank0    33348. kBytes
=======================================================================

   base      :      30000. kBytes
   nonl-proj :        496. kBytes
   fftplans  :       1775. kBytes
   grid      :        819. kBytes
   one-center:          3. kBytes
   wavefun   :        255. kBytes
 
  
  
 General timing and accounting informations for this job:
 ========================================================
  
                  Total CPU time used (sec):       10.203
                            User time (sec):        9.933
                          System time (sec):        0.270
                         Elapsed time (sec):       11.252
  
                   Maximum memory used (kb):       55920.
                   Average memory used (kb):          N/A
  
                          Minor page faults:         9740
                          Major page faults:            1
                 Voluntary context switches:        12142
