<?xml version="1.0" encoding="ISO-8859-1"?>
<modeling>
 <generator>
  <i name="program" type="string">vasp </i>
  <i name="version" type="string">6.2.0  </i>
  <i name="subversion" type="string">18Jan21 (build Aug 12 2022 13:00:08) complex                          parallel </i>
  <i name="platform" type="string">LinuxIFC </i>
  <i name="date" type="string">2024 11 03 </i>
  <i name="time" type="string">21:53:48 </i>
 </generator>
 <incar>
  <i type="int" name="ISTART">     0</i>
  <i type="string" name="PREC">Accurate      (Accurate strictly avoids</i>
  <i type="logical" name="ADDGRID"> T  </i>
  <i type="int" name="ISPIN">     1</i>
  <i type="int" name="NELM">    90</i>
  <i type="int" name="NELMIN">     6</i>
  <i type="int" name="IBRION">     2</i>
  <i name="EDIFF">      0.00000100</i>
  <i name="EDIFFG">     -0.00200000</i>
  <i type="int" name="NSW">   100</i>
  <i type="int" name="ISIF">     3</i>
  <i type="int" name="ISYM">     2</i>
  <i name="ENCUT">    350.00000000</i>
  <i type="logical" name="LREAL"> F  </i>
  <i type="int" name="ISMEAR">     0</i>
  <i name="SIGMA">      0.05000000</i>
  <i type="logical" name="LWAVE"> F  </i>
  <i type="logical" name="LCHARG"> F  </i>
  <i type="logical" name="LASPH"> T  </i>
 </incar>
 <primitive_cell>
  <structure name="primitive_cell" >
   <crystal>
    <varray name="basis" >
     <v>       2.34739500       0.00000000       1.35526800 </v>
     <v>       0.78246500       2.21314500       1.35526800 </v>
     <v>       0.00000000       0.00000000       2.71053800 </v>
    </varray>
    <i name="volume">     14.08158510 </i>
    <varray name="rec_basis" >
     <v>       0.42600415      -0.15061523       0.00000000 </v>
     <v>       0.00000000       0.45184568       0.00000000 </v>
     <v>      -0.21300192      -0.15061511       0.36893045 </v>
    </varray>
   </crystal>
   <varray name="positions" >
    <v>       0.00000000       0.00000000       0.00000000 </v>
   </varray>
  </structure>
  <varray name="primitive_index" >
   <v type="int" >        1 </v>
  </varray>
 </primitive_cell>
 <kpoints>
  <generation param="Monkhorst-Pack">
   <v type="int" name="divisions">       9        9        9 </v>
   <v name="usershift">      0.00000000       0.00000000       0.00000000 </v>
   <v name="genvec1">      0.11111111       0.00000000       0.00000000 </v>
   <v name="genvec2">      0.00000000       0.11111111       0.00000000 </v>
   <v name="genvec3">      0.00000000       0.00000000       0.11111111 </v>
   <v name="shift">      0.00000000       0.00000000       0.00000000 </v>
  </generation>
  <varray name="kpointlist" >
   <v>       0.00000000       0.00000000       0.00000000 </v>
   <v>       0.11111111       0.00000000       0.00000000 </v>
   <v>       0.22222222       0.00000000       0.00000000 </v>
   <v>       0.33333333       0.00000000       0.00000000 </v>
   <v>       0.44444444       0.00000000       0.00000000 </v>
   <v>       0.11111111       0.11111111       0.00000000 </v>
   <v>       0.22222222       0.11111111       0.00000000 </v>
   <v>       0.33333333       0.11111111       0.00000000 </v>
   <v>       0.44444444       0.11111111       0.00000000 </v>
   <v>      -0.44444444       0.11111111       0.00000000 </v>
   <v>      -0.33333333       0.11111111       0.00000000 </v>
   <v>      -0.22222222       0.11111111       0.00000000 </v>
   <v>      -0.11111111       0.11111111       0.00000000 </v>
   <v>       0.22222222       0.22222222       0.00000000 </v>
   <v>       0.33333333       0.22222222       0.00000000 </v>
   <v>       0.44444444       0.22222222       0.00000000 </v>
   <v>      -0.44444444       0.22222222       0.00000000 </v>
   <v>      -0.33333333       0.22222222       0.00000000 </v>
   <v>      -0.22222222       0.22222222       0.00000000 </v>
   <v>       0.33333333       0.33333333       0.00000000 </v>
   <v>       0.44444444       0.33333333       0.00000000 </v>
   <v>      -0.44444444       0.33333333       0.00000000 </v>
   <v>      -0.33333333       0.33333333       0.00000000 </v>
   <v>       0.44444444       0.44444444       0.00000000 </v>
   <v>      -0.44444444       0.44444444       0.00000000 </v>
   <v>       0.33333333       0.22222222       0.11111111 </v>
   <v>       0.44444444       0.22222222       0.11111111 </v>
   <v>      -0.44444444       0.22222222       0.11111111 </v>
   <v>       0.44444444       0.33333333       0.11111111 </v>
   <v>      -0.44444444       0.33333333       0.11111111 </v>
   <v>      -0.33333333       0.33333333       0.11111111 </v>
   <v>      -0.22222222       0.33333333       0.11111111 </v>
   <v>      -0.44444444       0.44444444       0.11111111 </v>
   <v>      -0.33333333       0.44444444       0.11111111 </v>
   <v>      -0.33333333       0.44444444       0.22222222 </v>
  </varray>
  <varray name="weights" >
   <v>       0.00137174 </v>
   <v>       0.01097394 </v>
   <v>       0.01097394 </v>
   <v>       0.01097394 </v>
   <v>       0.01097394 </v>
   <v>       0.00823045 </v>
   <v>       0.03292181 </v>
   <v>       0.03292181 </v>
   <v>       0.03292181 </v>
   <v>       0.03292181 </v>
   <v>       0.03292181 </v>
   <v>       0.03292181 </v>
   <v>       0.01646091 </v>
   <v>       0.00823045 </v>
   <v>       0.03292181 </v>
   <v>       0.03292181 </v>
   <v>       0.03292181 </v>
   <v>       0.03292181 </v>
   <v>       0.01646091 </v>
   <v>       0.00823045 </v>
   <v>       0.03292181 </v>
   <v>       0.03292181 </v>
   <v>       0.01646091 </v>
   <v>       0.00823045 </v>
   <v>       0.01646091 </v>
   <v>       0.03292181 </v>
   <v>       0.06584362 </v>
   <v>       0.06584362 </v>
   <v>       0.03292181 </v>
   <v>       0.06584362 </v>
   <v>       0.06584362 </v>
   <v>       0.03292181 </v>
   <v>       0.03292181 </v>
   <v>       0.03292181 </v>
   <v>       0.03292181 </v>
  </varray>
 </kpoints>
 <parameters>
  <separator name="general" >
   <i type="string" name="SYSTEM">unknown system</i>
   <i type="logical" name="LCOMPAT"> F  </i>
  </separator>
  <separator name="electronic" >
   <i type="string" name="PREC">accura</i>
   <i name="ENMAX">    350.00000000</i>
   <i name="ENAUG">    322.06900000</i>
   <i name="EDIFF">      0.00000100</i>
   <i type="int" name="IALGO">    38</i>
   <i type="int" name="IWAVPR">    11</i>
   <i type="int" name="NBANDS">     8</i>
   <i type="int" name="NBANDSLOW">    -1</i>
   <i type="int" name="NBANDSHIGH">    -1</i>
   <i name="NELECT">      4.00000000</i>
   <i type="int" name="TURBO">     0</i>
   <i type="int" name="IRESTART">     0</i>
   <i type="int" name="NREBOOT">     0</i>
   <i type="int" name="NMIN">     0</i>
   <i name="EREF">      0.00000000</i>
   <separator name="electronic smearing" >
    <i type="int" name="ISMEAR">     0</i>
    <i name="SIGMA">      0.05000000</i>
    <i name="KSPACING">      0.50000000</i>
    <i type="logical" name="KGAMMA"> T  </i>
    <i type="logical" name="KBLOWUP"> T  </i>
   </separator>
   <separator name="electronic projectors" >
    <i type="logical" name="LREAL"> F  </i>
    <v name="ROPT">      0.00000000</v>
    <i type="int" name="LMAXPAW">  -100</i>
    <i type="int" name="LMAXMIX">     2</i>
    <i type="logical" name="NLSPLINE"> F  </i>
   </separator>
   <separator name="electronic startup" >
    <i type="int" name="ISTART">     0</i>
    <i type="int" name="ICHARG">     2</i>
    <i type="int" name="INIWAV">     1</i>
   </separator>
   <separator name="electronic spin" >
    <i type="int" name="ISPIN">     1</i>
    <i type="logical" name="LNONCOLLINEAR"> F  </i>
    <v name="MAGMOM">      1.00000000</v>
    <i name="NUPDOWN">     -1.00000000</i>
    <i type="logical" name="LSORBIT"> F  </i>
    <v name="SAXIS">      0.00000000      0.00000000      1.00000000</v>
    <i type="logical" name="LSPIRAL"> F  </i>
    <v name="QSPIRAL">      0.00000000      0.00000000      0.00000000</v>
    <i type="logical" name="LZEROZ"> F  </i>
   </separator>
   <separator name="electronic exchange-correlation" >
    <i type="logical" name="LASPH"> T  </i>
    <i type="logical" name="LMETAGGA"> F  </i>
   </separator>
   <separator name="electronic convergence" >
    <i type="int" name="NELM">    90</i>
    <i type="int" name="NELMDL">    -5</i>
    <i type="int" name="NELMIN">     6</i>
    <i name="ENINI">    350.00000000</i>
    <separator name="electronic convergence detail" >
     <i type="logical" name="LDIAG"> T  </i>
     <i type="logical" name="LSUBROT"> F  </i>
     <i name="WEIMIN">      0.00100000</i>
     <i name="EBREAK">      0.00000003</i>
     <i name="DEPER">      0.30000000</i>
     <i type="int" name="NRMM">     4</i>
     <i name="TIME">      0.40000000</i>
    </separator>
   </separator>
   <separator name="electronic mixer" >
    <i name="AMIX">      0.40000000</i>
    <i name="BMIX">      1.00000000</i>
    <i name="AMIN">      0.10000000</i>
    <i name="AMIX_MAG">      1.60000000</i>
    <i name="BMIX_MAG">      1.00000000</i>
    <separator name="electronic mixer details" >
     <i type="int" name="IMIX">     4</i>
     <i type="logical" name="MIXFIRST"> F  </i>
     <i type="int" name="MAXMIX">   -45</i>
     <i name="WC">    100.00000000</i>
     <i type="int" name="INIMIX">     1</i>
     <i type="int" name="MIXPRE">     1</i>
     <i type="int" name="MREMOVE">     5</i>
    </separator>
   </separator>
   <separator name="electronic dipolcorrection" >
    <i type="logical" name="LDIPOL"> F  </i>
    <i type="logical" name="LMONO"> F  </i>
    <i type="int" name="IDIPOL">     0</i>
    <i name="EPSILON">      1.00000000</i>
    <v name="DIPOL">   -100.00000000   -100.00000000   -100.00000000</v>
    <i name="EFIELD">      0.00000000</i>
   </separator>
  </separator>
  <separator name="grids" >
   <i type="int" name="NGX">    18</i>
   <i type="int" name="NGY">    18</i>
   <i type="int" name="NGZ">    18</i>
   <i type="int" name="NGXF">    36</i>
   <i type="int" name="NGYF">    36</i>
   <i type="int" name="NGZF">    36</i>
   <i type="logical" name="ADDGRID"> T  </i>
  </separator>
  <separator name="ionic" >
   <i type="int" name="NSW">   100</i>
   <i type="int" name="IBRION">     2</i>
   <i type="int" name="MDALGO">     0</i>
   <i type="int" name="ISIF">     3</i>
   <i name="PSTRESS">      0.00000000</i>
   <i name="EDIFFG">     -0.00200000</i>
   <i type="int" name="NFREE">     1</i>
   <i name="POTIM">      0.50000000</i>
   <i name="SMASS">     -3.00000000</i>
   <i name="SCALEE">      1.00000000</i>
  </separator>
  <separator name="ionic md" >
   <i name="TEBEG">      0.00010000</i>
   <i name="TEEND">      0.00010000</i>
   <i type="int" name="NBLOCK">     1</i>
   <i type="int" name="KBLOCK">   100</i>
   <i type="int" name="NPACO">   256</i>
   <i name="APACO">     16.00000000</i>
  </separator>
  <separator name="symmetry" >
   <i type="int" name="ISYM">     2</i>
   <i name="SYMPREC">      0.00001000</i>
  </separator>
  <separator name="dos" >
   <i type="int" name="LORBIT">     0</i>
   <v name="RWIGS">     -1.00000000</v>
   <i type="int" name="NEDOS">   301</i>
   <i name="EMIN">     10.00000000</i>
   <i name="EMAX">    -10.00000000</i>
   <i name="EFERMI">      0.00000000</i>
  </separator>
  <separator name="writing" >
   <i type="int" name="NWRITE">     2</i>
   <i type="logical" name="LWAVE"> F  </i>
   <i type="logical" name="LDOWNSAMPLE"> F  </i>
   <i type="logical" name="LCHARG"> F  </i>
   <i type="logical" name="LPARD"> F  </i>
   <i type="logical" name="LVTOT"> F  </i>
   <i type="logical" name="LVHAR"> F  </i>
   <i type="logical" name="LELF"> F  </i>
   <i type="logical" name="LOPTICS"> F  </i>
   <v name="STM">      0.00000000      0.00000000      0.00000000      0.00000000      0.00000000      0.00000000      0.00000000</v>
  </separator>
  <separator name="performance" >
   <i type="int" name="NPAR">     4</i>
   <i type="int" name="NSIM">     4</i>
   <i type="int" name="NBLK">    -1</i>
   <i type="logical" name="LPLANE"> T  </i>
   <i type="logical" name="LSCALAPACK"> T  </i>
   <i type="logical" name="LSCAAWARE"> F  </i>
   <i type="logical" name="LSCALU"> F  </i>
   <i type="logical" name="LASYNC"> F  </i>
   <i type="logical" name="LORBITALREAL"> F  </i>
  </separator>
  <separator name="miscellaneous" >
   <i type="int" name="IDIOT">     3</i>
   <i type="int" name="PHON_NSTRUCT">    -1</i>
   <i type="logical" name="LMUSIC"> F  </i>
   <v name="POMASS">     28.08500000</v>
   <v name="DARWINR">      0.00000000</v>
   <v name="DARWINV">      1.00000000</v>
   <i type="logical" name="LCORR"> T  </i>
  </separator>
  <i type="logical" name="GGA_COMPAT"> T  </i>
  <i type="logical" name="LBERRY"> F  </i>
  <i type="int" name="ICORELEVEL">     0</i>
  <i type="logical" name="LDAU"> F  </i>
  <i type="int" name="I_CONSTRAINED_M">     0</i>
  <separator name="electronic exchange-correlation" >
   <i type="string" name="GGA">--</i>
   <i type="int" name="VOSKOWN">     0</i>
   <i type="logical" name="LHFCALC"> F  </i>
   <i type="string" name="PRECFOCK"></i>
   <i type="logical" name="LSYMGRAD"> F  </i>
   <i type="logical" name="LHFONE"> F  </i>
   <i type="logical" name="LRHFCALC"> F  </i>
   <i type="logical" name="LTHOMAS"> F  </i>
   <i type="logical" name="LMODELHF"> F  </i>
   <i type="logical" name="LFOCKACE"> F  </i>
   <i name="ENCUT4O">     -1.00000000</i>
   <i type="int" name="EXXOEP">     0</i>
   <i type="int" name="FOURORBIT">     0</i>
   <i name="AEXX">      0.00000000</i>
   <i name="HFALPHA">      0.00000000</i>
   <i name="MCALPHA">      0.00000000</i>
   <i name="ALDAX">      1.00000000</i>
   <i name="AGGAX">      1.00000000</i>
   <i name="ALDAC">      1.00000000</i>
   <i name="AGGAC">      1.00000000</i>
   <i type="int" name="NKREDX">     1</i>
   <i type="int" name="NKREDY">     1</i>
   <i type="int" name="NKREDZ">     1</i>
   <i type="logical" name="SHIFTRED"> F  </i>
   <i type="logical" name="ODDONLY"> F  </i>
   <i type="logical" name="EVENONLY"> F  </i>
   <i type="int" name="LMAXFOCK">     0</i>
   <i type="int" name="NMAXFOCKAE">     0</i>
   <i type="logical" name="LFOCKAEDFT"> F  </i>
   <i name="HFSCREEN">      0.00000000</i>
   <i name="HFSCREENC">      0.00000000</i>
   <i type="int" name="NBANDSGWLOW">     0</i>
  </separator>
  <separator name="vdW DFT" >
   <i type="logical" name="LUSE_VDW"> F  </i>
   <i name="Zab_VDW">     -0.84910000</i>
   <i name="PARAM1">      0.12340000</i>
   <i name="PARAM2">      1.00000000</i>
   <i name="PARAM3">      0.00000000</i>
  </separator>
  <separator name="model GW" >
   <i type="int" name="MODEL_GW">     0</i>
   <i name="MODEL_EPS0">      8.44895106</i>
   <i name="MODEL_ALPHA">      1.00000000</i>
  </separator>
  <separator name="linear response parameters" >
   <i type="logical" name="LEPSILON"> F  </i>
   <i type="logical" name="LRPA"> F  </i>
   <i type="logical" name="LNABLA"> F  </i>
   <i type="logical" name="LVEL"> F  </i>
   <i type="int" name="KINTER">     0</i>
   <i name="CSHIFT">      0.10000000</i>
   <i name="OMEGAMAX">     -1.00000000</i>
   <i name="DEG_THRESHOLD">      0.00200000</i>
   <i name="RTIME">     -0.10000000</i>
   <i name="WPLASMAI">      0.00000000</i>
   <v name="DFIELD">      0.00000000      0.00000000      0.00000000</v>
   <v name="WPLASMA">      0.00000000      0.00000000      0.00000000      0.00000000      0.00000000      0.00000000      0.00000000      0.00000000      0.00000000</v>
  </separator>
  <separator name="orbital magnetization" >
   <i type="logical" name="NUCIND"> F  </i>
   <v name="MAGPOS">      0.00000000      0.00000000      0.00000000</v>
   <i type="logical" name="LNICSALL"> T  </i>
   <i type="logical" name="ORBITALMAG"> F  </i>
   <i type="logical" name="LMAGBLOCH"> F  </i>
   <i type="logical" name="LCHIMAG"> F  </i>
   <i type="logical" name="LGAUGE"> T  </i>
   <i type="int" name="MAGATOM">     0</i>
   <v name="MAGDIPOL">      0.00000000      0.00000000      0.00000000</v>
   <v name="AVECCONST">      0.00000000      0.00000000      0.00000000</v>
  </separator>
  <separator name="response functions" >
   <i type="logical" name="LFINITE_TEMPERATURE"> F  </i>
   <i type="logical" name="LADDER"> F  </i>
   <i type="logical" name="LRPAFORCE"> F  </i>
   <i type="logical" name="LFXC"> F  </i>
   <i type="logical" name="LHARTREE"> T  </i>
   <i type="int" name="IBSE">     0</i>
   <v type="int" name="KPOINT">    -1     0     0     0</v>
   <i type="logical" name="LTCTC"> F  </i>
   <i type="logical" name="LTCTE"> F  </i>
   <i type="logical" name="LTETE"> F  </i>
   <i type="logical" name="LTRIPLET"> F  </i>
   <i type="logical" name="LFXCEPS"> F  </i>
   <i type="logical" name="LFXHEG"> F  </i>
   <i type="int" name="NATURALO">     2</i>
   <i type="logical" name="LHOLEGF"> F  </i>
   <i type="logical" name="L2ORDER"> F  </i>
   <i type="logical" name="LDMP1"> F  </i>
   <i type="logical" name="LMP2LT"> F  </i>
   <i type="logical" name="LSMP2LT"> F  </i>
   <i type="logical" name="LGWLF"> F  </i>
   <i name="ENCUTGW">     -2.00000000</i>
   <i name="ENCUTGWSOFT">     -2.00000000</i>
   <i name="ENCUTLF">     -1.00000000</i>
   <i type="logical" name="LESF_SPLINES"> F  </i>
   <i type="int" name="LMAXMP2">    -1</i>
   <i name="SCISSOR">      0.00000000</i>
   <i type="int" name="NOMEGA">     0</i>
   <i type="int" name="NOMEGAR">     0</i>
   <i type="int" name="NBANDSGW">    -1</i>
   <i type="int" name="NBANDSO">    -1</i>
   <i type="int" name="NBANDSV">    -1</i>
   <i type="int" name="NELM">    90</i>
   <i type="int" name="NELMHF">     1</i>
   <i type="int" name="DIM">     3</i>
   <i type="int" name="IESPILON">     4</i>
   <i type="int" name="ANTIRES">     0</i>
   <i name="OMEGAMAX">    -30.00000000</i>
   <i name="OMEGAMIN">    -30.00000000</i>
   <i name="OMEGATL">   -200.00000000</i>
   <i type="int" name="OMEGAGRID">     0</i>
   <i name="CSHIFT">     -0.10000000</i>
   <i type="logical" name="LSELFENERGY"> F  </i>
   <i type="logical" name="LSPECTRAL"> F  </i>
   <i type="logical" name="LSPECTRALGW"> F  </i>
   <i type="logical" name="LSINGLES"> F  </i>
   <i type="logical" name="LFERMIGW"> F  </i>
   <i type="logical" name="ODDONLYGW"> F  </i>
   <i type="logical" name="EVENONLYGW"> F  </i>
   <i type="int" name="NKREDLFX">     1</i>
   <i type="int" name="NKREDLFY">     1</i>
   <i type="int" name="NKREDLFZ">     1</i>
   <i type="int" name="MAXMEM">  2800</i>
   <i type="int" name="TELESCOPE">     0</i>
   <i type="int" name="NTAUPAR">    -1</i>
   <i type="int" name="NOMEGAPAR">    -1</i>
   <i name="DAMP_NEWTON">      0.80000001</i>
   <i name="LAMBDA">      1.00000000</i>
  </separator>
  <separator name="External order field" >
   <i name="OFIELD_KAPPA">      0.00000000</i>
   <v name="OFIELD_K">      0.00000000      0.00000000      0.00000000</v>
   <i name="OFIELD_Q6_NEAR">      0.00000000</i>
   <i name="OFIELD_Q6_FAR">      0.00000000</i>
   <i name="OFIELD_A">      0.00000000</i>
  </separator>
 </parameters>
 <atominfo>
  <atoms>       1 </atoms>
  <types>       1 </types>
  <array name="atoms" >
   <dimension dim="1">ion</dimension>
   <field type="string">element</field>
   <field type="int">atomtype</field>
   <set>
    <rc><c>Si</c><c>   1</c></rc>
   </set>
  </array>
  <array name="atomtypes" >
   <dimension dim="1">type</dimension>
   <field type="int">atomspertype</field>
   <field type="string">element</field>
   <field>mass</field>
   <field>valence</field>
   <field type="string">pseudopotential</field>
   <set>
    <rc><c>   1</c><c>Si</c><c>     28.08500000</c><c>      4.00000000</c><c>  PAW_PBE Si 05Jan2001                  </c></rc>
   </set>
  </array>
 </atominfo>
 <structure name="initialpos" >
  <crystal>
   <varray name="basis" >
    <v>       2.34739500       0.00000000       1.35526800 </v>
    <v>       0.78246500       2.21314500       1.35526800 </v>
    <v>       0.00000000       0.00000000       2.71053800 </v>
   </varray>
   <i name="volume">     14.08158510 </i>
   <varray name="rec_basis" >
    <v>       0.42600415      -0.15061523       0.00000000 </v>
    <v>       0.00000000       0.45184568       0.00000000 </v>
    <v>      -0.21300192      -0.15061511       0.36893045 </v>
   </varray>
  </crystal>
  <varray name="positions" >
   <v>       0.00000000       0.00000000       0.00000000 </v>
  </varray>
 </structure>
 <calculation>
  <scstep>
   <time name="dav">    0.17    0.17</time>
   <time name="total">    0.35    0.36</time>
   <energy>
    <i name="alphaZ">      2.39057823 </i>
    <i name="ewald">   -137.78496289 </i>
    <i name="hartreedc">     -0.54229904 </i>
    <i name="XCdc">     -8.73348015 </i>
    <i name="pawpsdc">     88.12379961 </i>
    <i name="pawaedc">    -70.53051779 </i>
    <i name="eentropy">     -0.00155794 </i>
    <i name="bandstr">     20.62715612 </i>
    <i name="atom">    103.06562707 </i>
    <i name="e_fr_energy">     -3.38565678 </i>
    <i name="e_wo_entrp">     -3.38409884 </i>
    <i name="e_0_energy">     -3.38487781 </i>
   </energy>
  </scstep>
  <scstep>
   <time name="dav">    0.39    0.40</time>
   <time name="total">    0.39    0.40</time>
   <energy>
    <i name="e_fr_energy">     -4.91259070 </i>
    <i name="e_wo_entrp">     -4.91237922 </i>
    <i name="e_0_energy">     -4.91248496 </i>
   </energy>
  </scstep>
  <scstep>
   <time name="dav">    0.21    0.22</time>
   <time name="total">    0.21    0.22</time>
   <energy>
    <i name="e_fr_energy">     -4.91973739 </i>
    <i name="e_wo_entrp">     -4.91952675 </i>
    <i name="e_0_energy">     -4.91963207 </i>
   </energy>
  </scstep>
  <scstep>
   <time name="dav">    0.26    0.27</time>
   <time name="total">    0.26    0.27</time>
   <energy>
    <i name="e_fr_energy">     -4.91974137 </i>
    <i name="e_wo_entrp">     -4.91953073 </i>
    <i name="e_0_energy">     -4.91963605 </i>
   </energy>
  </scstep>
  <scstep>
   <time name="dav">    0.18    0.19</time>
   <time name="total">    0.20    0.21</time>
   <energy>
    <i name="e_fr_energy">     -4.91974137 </i>
    <i name="e_wo_entrp">     -4.91953073 </i>
    <i name="e_0_energy">     -4.91963605 </i>
   </energy>
  </scstep>
  <scstep>
   <time name="dav">    0.18    0.18</time>
   <time name="total">    0.38    0.39</time>
   <energy>
    <i name="e_fr_energy">     -4.90678108 </i>
    <i name="e_wo_entrp">     -4.90656813 </i>
    <i name="e_0_energy">     -4.90667461 </i>
   </energy>
  </scstep>
  <scstep>
   <time name="dav">    0.19    0.19</time>
   <time name="total">    0.39    0.40</time>
   <energy>
    <i name="e_fr_energy">     -4.89934634 </i>
    <i name="e_wo_entrp">     -4.89912820 </i>
    <i name="e_0_energy">     -4.89923727 </i>
   </energy>
  </scstep>
  <scstep>
   <time name="dav">    0.23    0.23</time>
   <time name="total">    0.43    0.44</time>
   <energy>
    <i name="e_fr_energy">     -4.89930901 </i>
    <i name="e_wo_entrp">     -4.89909073 </i>
    <i name="e_0_energy">     -4.89919987 </i>
   </energy>
  </scstep>
  <scstep>
   <time name="dav">    0.22    0.22</time>
   <time name="total">    0.40    0.41</time>
   <energy>
    <i name="alphaZ">      2.39057823 </i>
    <i name="ewald">   -137.78496289 </i>
    <i name="hartreedc">     -0.40253689 </i>
    <i name="XCdc">     -8.67364306 </i>
    <i name="pawpsdc">    318.67258292 </i>
    <i name="pawaedc">   -301.09386368 </i>
    <i name="eentropy">     -0.00021832 </i>
    <i name="bandstr">     18.92712727 </i>
    <i name="atom">    103.06562707 </i>
    <i name="e_fr_energy">     -4.89930935 </i>
    <i name="e_wo_entrp">     -4.89909103 </i>
    <i name="e_0_energy">     -4.89920019 </i>
   </energy>
  </scstep>
  <structure>
   <crystal>
    <varray name="basis" >
     <v>       2.34739500       0.00000000       1.35526800 </v>
     <v>       0.78246500       2.21314500       1.35526800 </v>
     <v>       0.00000000       0.00000000       2.71053800 </v>
    </varray>
    <i name="volume">     14.08158510 </i>
    <varray name="rec_basis" >
     <v>       0.42600415      -0.15061523       0.00000000 </v>
     <v>       0.00000000       0.45184568       0.00000000 </v>
     <v>      -0.21300192      -0.15061511       0.36893045 </v>
    </varray>
   </crystal>
   <varray name="positions" >
    <v>       0.00000000       0.00000000       0.00000000 </v>
   </varray>
  </structure>
  <varray name="forces" >
   <v>       0.00000000       0.00000000      -0.00000000 </v>
  </varray>
  <varray name="stress" >
   <v>      35.12095503      -0.00000000      -0.00001496 </v>
   <v>      -0.00000000      35.12094773      -0.00001058 </v>
   <v>      -0.00001496      -0.00001058      35.12094803 </v>
  </varray>
  <energy>
   <i name="e_fr_energy">     -4.89930935 </i>
   <i name="e_wo_entrp">     -4.89909103 </i>
   <i name="e_0_energy">     -4.89920019 </i>
  </energy>
  <time name="totalsc">    3.74    3.90</time>
 </calculation>
 <calculation>
  <scstep>
   <time name="dav">    0.17    0.17</time>
   <time name="total">    0.37    0.37</time>
   <energy>
    <i name="alphaZ">      2.28688390 </i>
    <i name="ewald">   -135.76324469 </i>
    <i name="hartreedc">     -0.39658223 </i>
    <i name="XCdc">     -8.78908271 </i>
    <i name="pawpsdc">    318.70105477 </i>
    <i name="pawaedc">   -301.12206750 </i>
    <i name="eentropy">     -0.00020836 </i>
    <i name="bandstr">     17.10914546 </i>
    <i name="atom">    103.06562707 </i>
    <i name="e_fr_energy">     -4.90847429 </i>
    <i name="e_wo_entrp">     -4.90826592 </i>
    <i name="e_0_energy">     -4.90837011 </i>
   </energy>
  </scstep>
  <scstep>
   <time name="dav">    0.20    0.20</time>
   <time name="total">    0.40    0.41</time>
   <energy>
    <i name="e_fr_energy">     -4.90619392 </i>
    <i name="e_wo_entrp">     -4.90598511 </i>
    <i name="e_0_energy">     -4.90608952 </i>
   </energy>
  </scstep>
  <scstep>
   <time name="dav">    0.18    0.18</time>
   <time name="total">    0.38    0.38</time>
   <energy>
    <i name="e_fr_energy">     -4.90485764 </i>
    <i name="e_wo_entrp">     -4.90464793 </i>
    <i name="e_0_energy">     -4.90475278 </i>
   </energy>
  </scstep>
  <scstep>
   <time name="dav">    0.35    0.35</time>
   <time name="total">    0.56    0.58</time>
   <energy>
    <i name="e_fr_energy">     -4.90485613 </i>
    <i name="e_wo_entrp">     -4.90464642 </i>
    <i name="e_0_energy">     -4.90475127 </i>
   </energy>
  </scstep>
  <scstep>
   <time name="dav">    0.18    0.18</time>
   <time name="total">    0.38    0.38</time>
   <energy>
    <i name="e_fr_energy">     -4.90484968 </i>
    <i name="e_wo_entrp">     -4.90463997 </i>
    <i name="e_0_energy">     -4.90474482 </i>
   </energy>
  </scstep>
  <scstep>
   <time name="dav">    0.11    0.11</time>
   <time name="total">    0.29    0.30</time>
   <energy>
    <i name="alphaZ">      2.28688390 </i>
    <i name="ewald">   -135.76324469 </i>
    <i name="hartreedc">     -0.46881719 </i>
    <i name="XCdc">     -8.80361122 </i>
    <i name="pawpsdc">    289.69114602 </i>
    <i name="pawaedc">   -272.10405748 </i>
    <i name="eentropy">     -0.00020971 </i>
    <i name="bandstr">     17.19143330 </i>
    <i name="atom">    103.06562707 </i>
    <i name="e_fr_energy">     -4.90485001 </i>
    <i name="e_wo_entrp">     -4.90464030 </i>
    <i name="e_0_energy">     -4.90474515 </i>
   </energy>
  </scstep>
  <structure>
   <crystal>
    <varray name="basis" >
     <v>       2.38235123      -0.00000001       1.37544996 </v>
     <v>       0.79411707       2.24610204       1.37544996 </v>
     <v>      -0.00000002      -0.00000001       2.75090197 </v>
    </varray>
    <i name="volume">     14.72008739 </i>
    <varray name="rec_basis" >
     <v>       0.41975339      -0.14840525       0.00000000 </v>
     <v>       0.00000000       0.44521575       0.00000000 </v>
     <v>      -0.20987654      -0.14840514       0.36351713 </v>
    </varray>
   </crystal>
   <varray name="positions" >
    <v>       0.00000000       0.00000000      -0.00000000 </v>
   </varray>
  </structure>
  <varray name="forces" >
   <v>       0.00000000       0.00000000       0.00000000 </v>
  </varray>
  <varray name="stress" >
   <v>      -5.83193354      -0.00000000       0.00000256 </v>
   <v>       0.00000000      -5.83193229       0.00000181 </v>
   <v>       0.00000256       0.00000181      -5.83193234 </v>
  </varray>
  <energy>
   <i name="e_fr_energy">     -4.90485001 </i>
   <i name="e_wo_entrp">     -4.90464030 </i>
   <i name="e_0_energy">     -4.90474515 </i>
  </energy>
  <time name="totalsc">    3.06    3.21</time>
 </calculation>
 <calculation>
  <scstep>
   <time name="dav">    0.17    0.17</time>
   <time name="total">    0.37    0.38</time>
   <energy>
    <i name="alphaZ">      2.30261742 </i>
    <i name="ewald">   -136.07387902 </i>
    <i name="hartreedc">     -0.46988254 </i>
    <i name="XCdc">     -8.78607744 </i>
    <i name="pawpsdc">    289.51130575 </i>
    <i name="pawaedc">   -271.92423170 </i>
    <i name="eentropy">     -0.00021448 </i>
    <i name="bandstr">     17.46961482 </i>
    <i name="atom">    103.06562707 </i>
    <i name="e_fr_energy">     -4.90512011 </i>
    <i name="e_wo_entrp">     -4.90490563 </i>
    <i name="e_0_energy">     -4.90501287 </i>
   </energy>
  </scstep>
  <scstep>
   <time name="dav">    0.20    0.20</time>
   <time name="total">    0.40    0.42</time>
   <energy>
    <i name="e_fr_energy">     -4.90506418 </i>
    <i name="e_wo_entrp">     -4.90484997 </i>
    <i name="e_0_energy">     -4.90495708 </i>
   </energy>
  </scstep>
  <scstep>
   <time name="dav">    0.18    0.18</time>
   <time name="total">    0.38    0.39</time>
   <energy>
    <i name="e_fr_energy">     -4.90503274 </i>
    <i name="e_wo_entrp">     -4.90481892 </i>
    <i name="e_0_energy">     -4.90492583 </i>
   </energy>
  </scstep>
  <scstep>
   <time name="dav">    0.13    0.13</time>
   <time name="total">    0.33    0.34</time>
   <energy>
    <i name="e_fr_energy">     -4.90503279 </i>
    <i name="e_wo_entrp">     -4.90481896 </i>
    <i name="e_0_energy">     -4.90492588 </i>
   </energy>
  </scstep>
  <scstep>
   <time name="dav">    0.11    0.11</time>
   <time name="total">    0.31    0.32</time>
   <energy>
    <i name="e_fr_energy">     -4.90503322 </i>
    <i name="e_wo_entrp">     -4.90481940 </i>
    <i name="e_0_energy">     -4.90492631 </i>
   </energy>
  </scstep>
  <scstep>
   <time name="dav">    0.11    0.11</time>
   <time name="total">    0.29    0.30</time>
   <energy>
    <i name="alphaZ">      2.30261742 </i>
    <i name="ewald">   -136.07387902 </i>
    <i name="hartreedc">     -0.45778719 </i>
    <i name="XCdc">     -8.78378053 </i>
    <i name="pawpsdc">    293.64823899 </i>
    <i name="pawaedc">   -276.06237839 </i>
    <i name="eentropy">     -0.00021382 </i>
    <i name="bandstr">     17.45652232 </i>
    <i name="atom">    103.06562707 </i>
    <i name="e_fr_energy">     -4.90503317 </i>
    <i name="e_wo_entrp">     -4.90481934 </i>
    <i name="e_0_energy">     -4.90492625 </i>
   </energy>
  </scstep>
  <structure>
   <crystal>
    <varray name="basis" >
     <v>       2.37691271      -0.00000001       1.37231003 </v>
     <v>       0.79230423       2.24097456       1.37231003 </v>
     <v>      -0.00000001      -0.00000001       2.74462211 </v>
    </varray>
    <i name="volume">     14.61950672 </i>
    <varray name="rec_basis" >
     <v>       0.42071381      -0.14874481       0.00000000 </v>
     <v>       0.00000000       0.44623443       0.00000000 </v>
     <v>      -0.21035675      -0.14874470       0.36434888 </v>
    </varray>
   </crystal>
   <varray name="positions" >
    <v>       0.00000000       0.00000000      -0.00000000 </v>
   </varray>
  </structure>
  <varray name="forces" >
   <v>      -0.00000000       0.00000000      -0.00000000 </v>
  </varray>
  <varray name="stress" >
   <v>       0.08695157       0.00000000      -0.00000004 </v>
   <v>      -0.00000000       0.08695155      -0.00000003 </v>
   <v>      -0.00000004      -0.00000003       0.08695155 </v>
  </varray>
  <energy>
   <i name="e_fr_energy">     -4.90503317 </i>
   <i name="e_wo_entrp">     -4.90481934 </i>
   <i name="e_0_energy">     -4.90492625 </i>
  </energy>
  <time name="totalsc">    2.74    2.88</time>
  <eigenvalues>
   <array>
    <dimension dim="1">band</dimension>
    <dimension dim="2">kpoint</dimension>
    <dimension dim="3">spin</dimension>
    <field>eigene</field>
    <field>occ</field>
    <set>
     <set comment="spin 1">
      <set comment="kpoint 1">
       <r>   -4.3246    1.0000 </r>
       <r>   21.0517    0.0000 </r>
       <r>   21.0517    0.0000 </r>
       <r>   21.0517    0.0000 </r>
       <r>   21.9560    0.0000 </r>
       <r>   21.9560    0.0000 </r>
       <r>   21.9561    0.0000 </r>
       <r>   27.2381    0.0000 </r>
      </set>
      <set comment="kpoint 2">
       <r>   -3.9677    1.0000 </r>
       <r>   17.1117    0.0000 </r>
       <r>   19.9053    0.0000 </r>
       <r>   19.9053    0.0000 </r>
       <r>   23.1865    0.0000 </r>
       <r>   23.4820    0.0000 </r>
       <r>   23.4820    0.0000 </r>
       <r>   27.4195    0.0000 </r>
      </set>
      <set comment="kpoint 3">
       <r>   -2.9011    1.0000 </r>
       <r>   12.4488    0.0000 </r>
       <r>   18.9496    0.0000 </r>
       <r>   18.9496    0.0000 </r>
       <r>   23.1027    0.0000 </r>
       <r>   23.8070    0.0000 </r>
       <r>   23.8070    0.0000 </r>
       <r>   27.4344    0.0000 </r>
      </set>
      <set comment="kpoint 4">
       <r>   -1.1375    1.0000 </r>
       <r>    8.1738    1.0000 </r>
       <r>   18.5214    0.0000 </r>
       <r>   18.5214    0.0000 </r>
       <r>   22.1761    0.0000 </r>
       <r>   22.1761    0.0000 </r>
       <r>   23.0250    0.0000 </r>
       <r>   27.2836    0.0000 </r>
      </set>
      <set comment="kpoint 5">
       <r>    1.2878    1.0000 </r>
       <r>    4.4723    1.0000 </r>
       <r>   18.4860    0.0000 </r>
       <r>   18.4860    0.0000 </r>
       <r>   21.0368    0.0000 </r>
       <r>   21.0368    0.0000 </r>
       <r>   23.1775    0.0000 </r>
       <r>   25.9709    0.0000 </r>
      </set>
      <set comment="kpoint 6">
       <r>   -3.8488    1.0000 </r>
       <r>   18.2512    0.0000 </r>
       <r>   18.2512    0.0000 </r>
       <r>   19.9593    0.0000 </r>
       <r>   19.9978    0.0000 </r>
       <r>   24.8724    0.0000 </r>
       <r>   25.3314    0.0000 </r>
       <r>   25.3314    0.0000 </r>
      </set>
      <set comment="kpoint 7">
       <r>   -3.0190    1.0000 </r>
       <r>   14.2235    0.0000 </r>
       <r>   17.1210    0.0000 </r>
       <r>   18.8469    0.0000 </r>
       <r>   20.7804    0.0000 </r>
       <r>   23.1062    0.0000 </r>
       <r>   26.1701    0.0000 </r>
       <r>   26.5676    0.0000 </r>
      </set>
      <set comment="kpoint 8">
       <r>   -1.4878    1.0000 </r>
       <r>    9.8279    0.9603 </r>
       <r>   16.5914    0.0000 </r>
       <r>   17.7474    0.0000 </r>
       <r>   19.7484    0.0000 </r>
       <r>   24.7621    0.0000 </r>
       <r>   25.1860    0.0000 </r>
       <r>   26.7766    0.0000 </r>
      </set>
      <set comment="kpoint 9">
       <r>    0.7225    1.0000 </r>
       <r>    5.9319    1.0000 </r>
       <r>   16.4696    0.0000 </r>
       <r>   16.6633    0.0000 </r>
       <r>   19.4354    0.0000 </r>
       <r>   23.6490    0.0000 </r>
       <r>   25.2986    0.0000 </r>
       <r>   28.7039    0.0000 </r>
      </set>
      <set comment="kpoint 10">
       <r>    2.4951    1.0000 </r>
       <r>    3.7336    1.0000 </r>
       <r>   15.4479    0.0000 </r>
       <r>   17.3124    0.0000 </r>
       <r>   20.0665    0.0000 </r>
       <r>   22.6353    0.0000 </r>
       <r>   25.0862    0.0000 </r>
       <r>   28.6635    0.0000 </r>
      </set>
      <set comment="kpoint 11">
       <r>   -0.0874    1.0000 </r>
       <r>    7.1641    1.0000 </r>
       <r>   14.9633    0.0000 </r>
       <r>   18.4638    0.0000 </r>
       <r>   21.4062    0.0000 </r>
       <r>   22.3082    0.0000 </r>
       <r>   24.7484    0.0000 </r>
       <r>   29.4627    0.0000 </r>
      </set>
      <set comment="kpoint 12">
       <r>   -2.0753    1.0000 </r>
       <r>   11.2406    0.0000 </r>
       <r>   15.0922    0.0000 </r>
       <r>   19.8939    0.0000 </r>
       <r>   22.7897    0.0000 </r>
       <r>   23.2935    0.0000 </r>
       <r>   24.5449    0.0000 </r>
       <r>   26.1090    0.0000 </r>
      </set>
      <set comment="kpoint 13">
       <r>   -3.3743    1.0000 </r>
       <r>   15.5460    0.0000 </r>
       <r>   16.0430    0.0000 </r>
       <r>   21.0392    0.0000 </r>
       <r>   22.8695    0.0000 </r>
       <r>   24.0568    0.0000 </r>
       <r>   24.9775    0.0000 </r>
       <r>   25.1317    0.0000 </r>
      </set>
      <set comment="kpoint 14">
       <r>   -2.4279    1.0000 </r>
       <r>   15.7926    0.0000 </r>
       <r>   15.7926    0.0000 </r>
       <r>   17.0443    0.0000 </r>
       <r>   17.3643    0.0000 </r>
       <r>   20.0210    0.0000 </r>
       <r>   29.3095    0.0000 </r>
       <r>   29.3095    0.0000 </r>
      </set>
      <set comment="kpoint 15">
       <r>   -1.1345    1.0000 </r>
       <r>   12.0575    0.0000 </r>
       <r>   14.9400    0.0000 </r>
       <r>   15.0648    0.0000 </r>
       <r>   17.5996    0.0000 </r>
       <r>   20.6596    0.0000 </r>
       <r>   28.8301    0.0000 </r>
       <r>   30.1590    0.0000 </r>
      </set>
      <set comment="kpoint 16">
       <r>    0.8447    1.0000 </r>
       <r>    8.0441    1.0000 </r>
       <r>   13.0155    0.0000 </r>
       <r>   14.9537    0.0000 </r>
       <r>   17.5593    0.0000 </r>
       <r>   23.8984    0.0000 </r>
       <r>   27.2956    0.0000 </r>
       <r>   29.8978    0.0000 </r>
      </set>
      <set comment="kpoint 17">
       <r>    3.4212    1.0000 </r>
       <r>    4.6298    1.0000 </r>
       <r>   11.6354    0.0000 </r>
       <r>   15.4550    0.0000 </r>
       <r>   18.1201    0.0000 </r>
       <r>   26.1009    0.0000 </r>
       <r>   27.1280    0.0000 </r>
       <r>   29.6568    0.0000 </r>
      </set>
      <set comment="kpoint 18">
       <r>    1.6497    1.0000 </r>
       <r>    6.8077    1.0000 </r>
       <r>   10.8970    0.0000 </r>
       <r>   16.5522    0.0000 </r>
       <r>   19.3407    0.0000 </r>
       <r>   25.4627    0.0000 </r>
       <r>   27.5821    0.0000 </r>
       <r>   29.1697    0.0000 </r>
      </set>
      <set comment="kpoint 19">
       <r>   -0.5512    1.0000 </r>
       <r>   10.3093    0.0000 </r>
       <r>   11.1590    0.0000 </r>
       <r>   18.1816    0.0000 </r>
       <r>   21.1574    0.0000 </r>
       <r>   25.3545    0.0000 </r>
       <r>   25.5873    0.0000 </r>
       <r>   26.5390    0.0000 </r>
      </set>
      <set comment="kpoint 20">
       <r>   -0.0818    1.0000 </r>
       <r>   12.1071    0.0000 </r>
       <r>   14.1333    0.0000 </r>
       <r>   14.1333    0.0000 </r>
       <r>   15.5126    0.0000 </r>
       <r>   17.8157    0.0000 </r>
       <r>   32.2816    0.0000 </r>
       <r>   32.9135    0.0000 </r>
      </set>
      <set comment="kpoint 21">
       <r>    1.6567    1.0000 </r>
       <r>    9.7878    0.9981 </r>
       <r>   10.8540    0.0000 </r>
       <r>   13.8199    0.0000 </r>
       <r>   16.1604    0.0000 </r>
       <r>   19.3999    0.0000 </r>
       <r>   31.3065    0.0000 </r>
       <r>   33.3635    0.0000 </r>
      </set>
      <set comment="kpoint 22">
       <r>    4.0407    1.0000 </r>
       <r>    7.0838    1.0000 </r>
       <r>    8.3235    1.0000 </r>
       <r>   14.1262    0.0000 </r>
       <r>   16.6382    0.0000 </r>
       <r>   23.1979    0.0000 </r>
       <r>   30.0644    0.0000 </r>
       <r>   32.2692    0.0000 </r>
      </set>
      <set comment="kpoint 23">
       <r>    4.0407    1.0000 </r>
       <r>    6.7423    1.0000 </r>
       <r>    7.6693    1.0000 </r>
       <r>   15.0461    0.0000 </r>
       <r>   17.6839    0.0000 </r>
       <r>   27.3614    0.0000 </r>
       <r>   28.8672    0.0000 </r>
       <r>   29.9229    0.0000 </r>
      </set>
      <set comment="kpoint 24">
       <r>    3.1414    1.0000 </r>
       <r>    7.3122    1.0000 </r>
       <r>   13.3007    0.0000 </r>
       <r>   13.3007    0.0000 </r>
       <r>   14.5759    0.0000 </r>
       <r>   16.8956    0.0000 </r>
       <r>   34.1741    0.0000 </r>
       <r>   35.6246    0.0000 </r>
      </set>
      <set comment="kpoint 25">
       <r>    4.9514    1.0000 </r>
       <r>    5.7439    1.0000 </r>
       <r>   10.3576    0.0000 </r>
       <r>   13.4036    0.0000 </r>
       <r>   15.6952    0.0000 </r>
       <r>   18.9790    0.0000 </r>
       <r>   33.3805    0.0000 </r>
       <r>   34.9114    0.0000 </r>
      </set>
      <set comment="kpoint 26">
       <r>   -1.9571    1.0000 </r>
       <r>   12.9507    0.0000 </r>
       <r>   13.6173    0.0000 </r>
       <r>   17.9176    0.0000 </r>
       <r>   21.0091    0.0000 </r>
       <r>   22.1330    0.0000 </r>
       <r>   26.0060    0.0000 </r>
       <r>   28.1230    0.0000 </r>
      </set>
      <set comment="kpoint 27">
       <r>   -0.2012    1.0000 </r>
       <r>    9.0348    1.0000 </r>
       <r>   12.9962    0.0000 </r>
       <r>   15.9189    0.0000 </r>
       <r>   21.1379    0.0000 </r>
       <r>   23.7326    0.0000 </r>
       <r>   25.2086    0.0000 </r>
       <r>   28.8231    0.0000 </r>
      </set>
      <set comment="kpoint 28">
       <r>    2.2149    1.0000 </r>
       <r>    5.3707    1.0000 </r>
       <r>   13.2297    0.0000 </r>
       <r>   14.4363    0.0000 </r>
       <r>   21.2894    0.0000 </r>
       <r>   22.7330    0.0000 </r>
       <r>   27.7051    0.0000 </r>
       <r>   29.6103    0.0000 </r>
      </set>
      <set comment="kpoint 29">
       <r>    0.3828    1.0000 </r>
       <r>   11.1914    0.0000 </r>
       <r>   11.7405    0.0000 </r>
       <r>   12.8705    0.0000 </r>
       <r>   19.3120    0.0000 </r>
       <r>   20.5214    0.0000 </r>
       <r>   28.0588    0.0000 </r>
       <r>   32.4806    0.0000 </r>
      </set>
      <set comment="kpoint 30">
       <r>    2.5719    1.0000 </r>
       <r>    7.6845    1.0000 </r>
       <r>   10.6859    0.0000 </r>
       <r>   11.8932    0.0000 </r>
       <r>   19.9519    0.0000 </r>
       <r>   23.5912    0.0000 </r>
       <r>   26.6927    0.0000 </r>
       <r>   32.0170    0.0000 </r>
      </set>
      <set comment="kpoint 31">
       <r>    4.3399    1.0000 </r>
       <r>    5.5048    1.0000 </r>
       <r>    9.5672    1.0000 </r>
       <r>   12.5575    0.0000 </r>
       <r>   20.7036    0.0000 </r>
       <r>   25.2573    0.0000 </r>
       <r>   27.7448    0.0000 </r>
       <r>   29.0353    0.0000 </r>
      </set>
      <set comment="kpoint 32">
       <r>    1.7683    1.0000 </r>
       <r>    8.5299    1.0000 </r>
       <r>    9.4086    1.0000 </r>
       <r>   13.9404    0.0000 </r>
       <r>   21.9469    0.0000 </r>
       <r>   24.4676    0.0000 </r>
       <r>   25.3195    0.0000 </r>
       <r>   31.3471    0.0000 </r>
      </set>
      <set comment="kpoint 33">
       <r>    3.5955    1.0000 </r>
       <r>    7.7361    1.0000 </r>
       <r>   10.3066    0.0000 </r>
       <r>   11.1957    0.0000 </r>
       <r>   18.4399    0.0000 </r>
       <r>   19.7246    0.0000 </r>
       <r>   30.7809    0.0000 </r>
       <r>   33.5217    0.0000 </r>
      </set>
      <set comment="kpoint 34">
       <r>    5.8473    1.0000 </r>
       <r>    6.4711    1.0000 </r>
       <r>    7.4589    1.0000 </r>
       <r>   11.3694    0.0000 </r>
       <r>   19.5388    0.0000 </r>
       <r>   23.2843    0.0000 </r>
       <r>   29.4646    0.0000 </r>
       <r>   29.8898    0.0000 </r>
      </set>
      <set comment="kpoint 35">
       <r>    4.9407    1.0000 </r>
       <r>    7.6372    1.0000 </r>
       <r>    8.2961    1.0000 </r>
       <r>    9.4483    1.0000 </r>
       <r>   23.6536    0.0000 </r>
       <r>   23.6697    0.0000 </r>
       <r>   25.6472    0.0000 </r>
       <r>   28.9086    0.0000 </r>
      </set>
     </set>
    </set>
   </array>
  </eigenvalues>
  <separator name="orbital magnetization" >
   <v name="MAGDIPOLOUT">      0.00000000      0.00000000      0.00000000</v>
  </separator>
  <dos>
   <i name="efermi">      9.88991633 </i>
   <total>
    <array>
     <dimension dim="1">gridpoints</dimension>
     <dimension dim="2">spin</dimension>
     <field>energy</field>
     <field>total</field>
     <field>integrated</field>
     <set>
      <set comment="spin 1">
       <r>    -6.3220     0.0000     0.0000 </r>
       <r>    -6.1756     0.0000     0.0000 </r>
       <r>    -6.0291     0.0000     0.0000 </r>
       <r>    -5.8826     0.0000     0.0000 </r>
       <r>    -5.7361     0.0000     0.0000 </r>
       <r>    -5.5896     0.0000     0.0000 </r>
       <r>    -5.4432     0.0000     0.0000 </r>
       <r>    -5.2967     0.0000     0.0000 </r>
       <r>    -5.1502     0.0000     0.0000 </r>
       <r>    -5.0037     0.0000     0.0000 </r>
       <r>    -4.8572     0.0000     0.0000 </r>
       <r>    -4.7108     0.0000     0.0000 </r>
       <r>    -4.5643     0.0000     0.0000 </r>
       <r>    -4.4178     0.0001     0.0000 </r>
       <r>    -4.2713     0.0174     0.0026 </r>
       <r>    -4.1248     0.0012     0.0027 </r>
       <r>    -3.9784     0.0572     0.0111 </r>
       <r>    -3.8319     0.1695     0.0360 </r>
       <r>    -3.6854     0.0355     0.0412 </r>
       <r>    -3.5389     0.0000     0.0412 </r>
       <r>    -3.3924     0.0683     0.0512 </r>
       <r>    -3.2459     0.1564     0.0741 </r>
       <r>    -3.0995     0.0052     0.0748 </r>
       <r>    -2.9530     0.4411     0.1394 </r>
       <r>    -2.8065     0.1526     0.1618 </r>
       <r>    -2.6600     0.0006     0.1619 </r>
       <r>    -2.5135     0.0009     0.1620 </r>
       <r>    -2.3671     0.1067     0.1776 </r>
       <r>    -2.2206     0.0048     0.1783 </r>
       <r>    -2.0741     0.2311     0.2122 </r>
       <r>    -1.9276     0.5769     0.2967 </r>
       <r>    -1.7811     0.0910     0.3100 </r>
       <r>    -1.6347     0.0000     0.3100 </r>
       <r>    -1.4882     0.2229     0.3427 </r>
       <r>    -1.3417     0.2266     0.3759 </r>
       <r>    -1.1952     0.0270     0.3798 </r>
       <r>    -1.0487     0.5680     0.4630 </r>
       <r>    -0.9023     0.0043     0.4636 </r>
       <r>    -0.7558     0.0000     0.4636 </r>
       <r>    -0.6093     0.0113     0.4653 </r>
       <r>    -0.4628     0.2121     0.4964 </r>
       <r>    -0.3163     0.0019     0.4966 </r>
       <r>    -0.1699     0.7347     0.6043 </r>
       <r>    -0.0234     0.7043     0.7074 </r>
       <r>     0.1231     0.0214     0.7106 </r>
       <r>     0.2696     0.0003     0.7106 </r>
       <r>     0.4161     0.3713     0.7650 </r>
       <r>     0.5625     0.0779     0.7764 </r>
       <r>     0.7090     0.1582     0.7996 </r>
       <r>     0.8555     0.5698     0.8830 </r>
       <r>     1.0020     0.1710     0.9081 </r>
       <r>     1.1485     0.0000     0.9081 </r>
       <r>     1.2949     0.0869     0.9208 </r>
       <r>     1.4414     0.0629     0.9300 </r>
       <r>     1.5879     0.0297     0.9344 </r>
       <r>     1.7344     0.9350     1.0713 </r>
       <r>     1.8809     0.3835     1.1275 </r>
       <r>     2.0273     0.0003     1.1276 </r>
       <r>     2.1738     0.1101     1.1437 </r>
       <r>     2.3203     0.7876     1.2591 </r>
       <r>     2.4668     0.0977     1.2734 </r>
       <r>     2.6133     1.1432     1.4408 </r>
       <r>     2.7597     0.1089     1.4568 </r>
       <r>     2.9062     0.0000     1.4568 </r>
       <r>     3.0527     0.0007     1.4569 </r>
       <r>     3.1992     0.1059     1.4724 </r>
       <r>     3.3457     0.0131     1.4743 </r>
       <r>     3.4921     0.4329     1.5377 </r>
       <r>     3.6386     0.4104     1.5979 </r>
       <r>     3.7851     0.4653     1.6660 </r>
       <r>     3.9316     0.0333     1.6709 </r>
       <r>     4.0781     0.5755     1.7552 </r>
       <r>     4.2246     0.0985     1.7696 </r>
       <r>     4.3710     0.7287     1.8764 </r>
       <r>     4.5175     0.3049     1.9210 </r>
       <r>     4.6640     0.3893     1.9780 </r>
       <r>     4.8105     0.0750     1.9890 </r>
       <r>     4.9570     0.4305     2.0521 </r>
       <r>     5.1034     0.2437     2.0878 </r>
       <r>     5.2499     0.0003     2.0878 </r>
       <r>     5.3964     0.6893     2.1888 </r>
       <r>     5.5429     0.9819     2.3326 </r>
       <r>     5.6894     0.1404     2.3532 </r>
       <r>     5.8358     0.3790     2.4087 </r>
       <r>     5.9823     0.6963     2.5107 </r>
       <r>     6.1288     0.0347     2.5158 </r>
       <r>     6.2753     0.0000     2.5158 </r>
       <r>     6.4218     0.0366     2.5211 </r>
       <r>     6.5682     0.4116     2.5814 </r>
       <r>     6.7147     0.0522     2.5891 </r>
       <r>     6.8612     0.5941     2.6761 </r>
       <r>     7.0077     0.0364     2.6814 </r>
       <r>     7.1542     0.6069     2.7703 </r>
       <r>     7.3006     0.3268     2.8182 </r>
       <r>     7.4471     0.2369     2.8529 </r>
       <r>     7.5936     0.3404     2.9027 </r>
       <r>     7.7401     1.7031     3.1522 </r>
       <r>     7.8866     0.2625     3.1907 </r>
       <r>     8.0330     0.1697     3.2155 </r>
       <r>     8.1795     0.3645     3.2689 </r>
       <r>     8.3260     0.6628     3.3660 </r>
       <r>     8.4725     0.3248     3.4136 </r>
       <r>     8.6190     0.4234     3.4756 </r>
       <r>     8.7654     0.0026     3.4760 </r>
       <r>     8.9119     0.0002     3.4760 </r>
       <r>     9.0584     0.6721     3.5745 </r>
       <r>     9.2049     0.2266     3.6077 </r>
       <r>     9.3514     0.0251     3.6114 </r>
       <r>     9.4978     0.8574     3.7370 </r>
       <r>     9.6443     0.9024     3.8691 </r>
       <r>     9.7908     0.3194     3.9159 </r>
       <r>     9.9373     0.5923     4.0027 </r>
       <r>    10.0838     0.0004     4.0027 </r>
       <r>    10.2302     0.0098     4.0042 </r>
       <r>    10.3767     0.8061     4.1223 </r>
       <r>    10.5232     0.0831     4.1344 </r>
       <r>    10.6697     0.2909     4.1770 </r>
       <r>    10.8162     0.6769     4.2762 </r>
       <r>    10.9627     0.8156     4.3956 </r>
       <r>    11.1091     0.0403     4.4016 </r>
       <r>    11.2556     1.3603     4.6008 </r>
       <r>    11.4021     0.5570     4.6824 </r>
       <r>    11.5486     0.0831     4.6946 </r>
       <r>    11.6951     0.4704     4.7635 </r>
       <r>    11.8415     0.4893     4.8351 </r>
       <r>    11.9880     0.8431     4.9586 </r>
       <r>    12.1345     0.5227     5.0352 </r>
       <r>    12.2810     0.0313     5.0398 </r>
       <r>    12.4275     0.0410     5.0458 </r>
       <r>    12.5739     0.7189     5.1511 </r>
       <r>    12.7204     0.2890     5.1934 </r>
       <r>    12.8669     0.2104     5.2242 </r>
       <r>    13.0134     1.5030     5.4444 </r>
       <r>    13.1599     0.5558     5.5258 </r>
       <r>    13.3063     0.9911     5.6710 </r>
       <r>    13.4528     0.3174     5.7175 </r>
       <r>    13.5993     0.1559     5.7403 </r>
       <r>    13.7458     0.3201     5.7872 </r>
       <r>    13.8923     0.4712     5.8562 </r>
       <r>    14.0387     0.4224     5.9181 </r>
       <r>    14.1852     0.6971     6.0202 </r>
       <r>    14.3317     0.4250     6.0824 </r>
       <r>    14.4782     0.7924     6.1985 </r>
       <r>    14.6247     0.2087     6.2291 </r>
       <r>    14.7711     0.0095     6.2305 </r>
       <r>    14.9176     0.2320     6.2644 </r>
       <r>    15.0641     1.5882     6.4971 </r>
       <r>    15.2106     0.6519     6.5926 </r>
       <r>    15.3571     0.0037     6.5931 </r>
       <r>    15.5035     0.9019     6.7252 </r>
       <r>    15.6500     0.3529     6.7769 </r>
       <r>    15.7965     0.3247     6.8245 </r>
       <r>    15.9430     0.7796     6.9387 </r>
       <r>    16.0895     0.4357     7.0025 </r>
       <r>    16.2359     0.4533     7.0689 </r>
       <r>    16.3824     0.0104     7.0704 </r>
       <r>    16.5289     0.5578     7.1521 </r>
       <r>    16.6754     1.4523     7.3648 </r>
       <r>    16.8219     0.2365     7.3995 </r>
       <r>    16.9683     0.1099     7.4156 </r>
       <r>    17.1148     0.3842     7.4719 </r>
       <r>    17.2613     0.3614     7.5248 </r>
       <r>    17.4078     0.5145     7.6002 </r>
       <r>    17.5543     0.2583     7.6380 </r>
       <r>    17.7007     0.8493     7.7624 </r>
       <r>    17.8472     0.5804     7.8474 </r>
       <r>    17.9937     0.4541     7.9139 </r>
       <r>    18.1402     0.3558     7.9660 </r>
       <r>    18.2867     0.5144     8.0414 </r>
       <r>    18.4332     0.3353     8.0905 </r>
       <r>    18.5796     1.1825     8.2637 </r>
       <r>    18.7261     0.0165     8.2661 </r>
       <r>    18.8726     0.3490     8.3173 </r>
       <r>    19.0191     0.5885     8.4035 </r>
       <r>    19.1656     0.0363     8.4088 </r>
       <r>    19.3120     0.3216     8.4559 </r>
       <r>    19.4585     1.3442     8.6528 </r>
       <r>    19.6050     0.5681     8.7360 </r>
       <r>    19.7515     0.6032     8.8244 </r>
       <r>    19.8980     0.7421     8.9331 </r>
       <r>    20.0444     1.6283     9.1716 </r>
       <r>    20.1909     0.3738     9.2263 </r>
       <r>    20.3374     0.0001     9.2263 </r>
       <r>    20.4839     0.0650     9.2359 </r>
       <r>    20.6304     0.4931     9.3081 </r>
       <r>    20.7768     1.4291     9.5174 </r>
       <r>    20.9233     0.2641     9.5561 </r>
       <r>    21.0698     0.9198     9.6908 </r>
       <r>    21.2163     1.2249     9.8703 </r>
       <r>    21.3628     0.9364    10.0074 </r>
       <r>    21.5092     0.4166    10.0685 </r>
       <r>    21.6557     0.0008    10.0686 </r>
       <r>    21.8022     0.0000    10.0686 </r>
       <r>    21.9487     0.2571    10.1062 </r>
       <r>    22.0952     0.3159    10.1525 </r>
       <r>    22.2416     0.6853    10.2529 </r>
       <r>    22.3881     0.4408    10.3175 </r>
       <r>    22.5346     0.0064    10.3184 </r>
       <r>    22.6811     0.4689    10.3871 </r>
       <r>    22.8276     1.2874    10.5756 </r>
       <r>    22.9740     0.2764    10.6161 </r>
       <r>    23.1205     0.5567    10.6977 </r>
       <r>    23.2670     1.1591    10.8675 </r>
       <r>    23.4135     0.6783    10.9668 </r>
       <r>    23.5600     0.4620    11.0345 </r>
       <r>    23.7064     2.1636    11.3514 </r>
       <r>    23.8529     1.1277    11.5166 </r>
       <r>    23.9994     0.4452    11.5818 </r>
       <r>    24.1459     0.2126    11.6130 </r>
       <r>    24.2924     0.0013    11.6132 </r>
       <r>    24.4388     0.0941    11.6270 </r>
       <r>    24.5853     0.7479    11.7365 </r>
       <r>    24.7318     0.2883    11.7787 </r>
       <r>    24.8783     0.7316    11.8859 </r>
       <r>    25.0248     0.2716    11.9257 </r>
       <r>    25.1713     0.9326    12.0623 </r>
       <r>    25.3177     2.5961    12.4426 </r>
       <r>    25.4642     0.9755    12.5855 </r>
       <r>    25.6107     0.4526    12.6518 </r>
       <r>    25.7572     0.4384    12.7160 </r>
       <r>    25.9037     0.0056    12.7168 </r>
       <r>    26.0501     0.6003    12.8047 </r>
       <r>    26.1966     1.2359    12.9858 </r>
       <r>    26.3431     0.1065    13.0014 </r>
       <r>    26.4896     0.0243    13.0049 </r>
       <r>    26.6361     0.6865    13.1055 </r>
       <r>    26.7825     1.1120    13.2684 </r>
       <r>    26.9290     0.1999    13.2977 </r>
       <r>    27.0755     0.0309    13.3022 </r>
       <r>    27.2220     0.4374    13.3663 </r>
       <r>    27.3685     0.7351    13.4740 </r>
       <r>    27.5149     0.3992    13.5324 </r>
       <r>    27.6614     0.5390    13.6114 </r>
       <r>    27.8079     1.6628    13.8549 </r>
       <r>    27.9544     0.0358    13.8602 </r>
       <r>    28.1009     0.5155    13.9357 </r>
       <r>    28.2473     0.3827    13.9918 </r>
       <r>    28.3938     0.0001    13.9918 </r>
       <r>    28.5403     0.0001    13.9918 </r>
       <r>    28.6868     0.4760    14.0615 </r>
       <r>    28.8333     1.2597    14.2460 </r>
       <r>    28.9797     1.2280    14.4259 </r>
       <r>    29.1262     0.9016    14.5580 </r>
       <r>    29.2727     0.4376    14.6221 </r>
       <r>    29.4192     0.2856    14.6639 </r>
       <r>    29.5657     0.8990    14.7956 </r>
       <r>    29.7121     1.2268    14.9753 </r>
       <r>    29.8586     0.1810    15.0018 </r>
       <r>    30.0051     0.9888    15.1467 </r>
       <r>    30.1516     0.6156    15.2368 </r>
       <r>    30.2981     0.2654    15.2757 </r>
       <r>    30.4445     0.0000    15.2757 </r>
       <r>    30.5910     0.0000    15.2757 </r>
       <r>    30.7375     0.0493    15.2829 </r>
       <r>    30.8840     0.3994    15.3414 </r>
       <r>    31.0305     0.0008    15.3416 </r>
       <r>    31.1769     0.0001    15.3416 </r>
       <r>    31.3234     0.4207    15.4032 </r>
       <r>    31.4699     0.4781    15.4732 </r>
       <r>    31.6164     0.0001    15.4733 </r>
       <r>    31.7629     0.0000    15.4733 </r>
       <r>    31.9093     0.0010    15.4734 </r>
       <r>    32.0558     0.7754    15.5870 </r>
       <r>    32.2023     0.1370    15.6071 </r>
       <r>    32.3488     0.5387    15.6860 </r>
       <r>    32.4953     0.3058    15.7308 </r>
       <r>    32.6418     0.1523    15.7531 </r>
       <r>    32.7882     0.0000    15.7531 </r>
       <r>    32.9347     0.0816    15.7650 </r>
       <r>    33.0812     0.0308    15.7695 </r>
       <r>    33.2277     0.0000    15.7696 </r>
       <r>    33.3742     0.3746    15.8244 </r>
       <r>    33.5206     0.5190    15.9004 </r>
       <r>    33.6671     0.2301    15.9342 </r>
       <r>    33.8136     0.0000    15.9342 </r>
       <r>    33.9601     0.0000    15.9342 </r>
       <r>    34.1066     0.0031    15.9346 </r>
       <r>    34.2530     0.1078    15.9504 </r>
       <r>    34.3995     0.0014    15.9506 </r>
       <r>    34.5460     0.0000    15.9506 </r>
       <r>    34.6925     0.0000    15.9506 </r>
       <r>    34.8390     0.0046    15.9513 </r>
       <r>    34.9854     0.2161    15.9829 </r>
       <r>    35.1319     0.0041    15.9835 </r>
       <r>    35.2784     0.0000    15.9835 </r>
       <r>    35.4249     0.0000    15.9835 </r>
       <r>    35.5714     0.0074    15.9846 </r>
       <r>    35.7178     0.1045    15.9999 </r>
       <r>    35.8643     0.0005    16.0000 </r>
       <r>    36.0108     0.0000    16.0000 </r>
       <r>    36.1573     0.0000    16.0000 </r>
       <r>    36.3038     0.0000    16.0000 </r>
       <r>    36.4502     0.0000    16.0000 </r>
       <r>    36.5967     0.0000    16.0000 </r>
       <r>    36.7432     0.0000    16.0000 </r>
       <r>    36.8897     0.0000    16.0000 </r>
       <r>    37.0362     0.0000    16.0000 </r>
       <r>    37.1826     0.0000    16.0000 </r>
       <r>    37.3291     0.0000    16.0000 </r>
       <r>    37.4756     0.0000    16.0000 </r>
       <r>    37.6221     0.0000    16.0000 </r>
      </set>
     </set>
    </array>
   </total>
  </dos>
 </calculation>
 <structure name="finalpos" >
  <crystal>
   <varray name="basis" >
    <v>       2.37691271      -0.00000001       1.37231003 </v>
    <v>       0.79230423       2.24097456       1.37231003 </v>
    <v>      -0.00000001      -0.00000001       2.74462211 </v>
   </varray>
   <i name="volume">     14.61950672 </i>
   <varray name="rec_basis" >
    <v>       0.42071381      -0.14874481       0.00000000 </v>
    <v>       0.00000000       0.44623443       0.00000000 </v>
    <v>      -0.21035675      -0.14874470       0.36434888 </v>
   </varray>
  </crystal>
  <varray name="positions" >
   <v>       0.00000000       0.00000000      -0.00000000 </v>
  </varray>
 </structure>
</modeling>
