 running on    4 total cores
 distrk:  each k-point on    4 cores,    1 groups
 distr:  one band on    1 cores,    4 groups
 vasp.6.2.0 18Jan21 (build Aug 12 2022 13:00:08) complex                        
  
 POSCAR found type information on POSCAR Si
 POSCAR found :  1 types and       1 ions
 scaLAPACK will be used
 LDA part: xc-table for Pade appr. of Perdew
 POSCAR, INCAR and KPOINTS ok, starting setup
 FFT: planning ...
 WAVECAR not read
 entering main loop
       N       E                     dE             d eps       ncg     rms          rms(c)
DAV:   1    -0.338565678123E+01   -0.33857E+01   -0.13339E+03   592   0.267E+02
DAV:   2    -0.491259070074E+01   -0.15269E+01   -0.14882E+01   856   0.230E+01
DAV:   3    -0.491973738886E+01   -0.71467E-02   -0.71467E-02   600   0.166E+00
DAV:   4    -0.491974136662E+01   -0.39778E-05   -0.39767E-05   904   0.424E-02
DAV:   5    -0.491974136676E+01   -0.13628E-09   -0.11489E-08   632   0.484E-04    0.279E+00
DAV:   6    -0.490678108332E+01    0.12960E-01   -0.37685E-03   640   0.267E-01    0.155E+00
DAV:   7    -0.489934634177E+01    0.74347E-02   -0.75704E-03   672   0.378E-01    0.125E-01
DAV:   8    -0.489930901148E+01    0.37330E-04   -0.22972E-05   824   0.374E-02    0.143E-02
DAV:   9    -0.489930935192E+01   -0.34045E-06   -0.29828E-07   696   0.310E-03
   1 F= -.48993094E+01 E0= -.48992002E+01  d E =-.489931E+01
 curvature:   0.00 expect dE= 0.000E+00 dE for cont linesearch  0.000E+00
 trial: gam= 0.00000 g(F)=  0.116E-64 g(S)=  0.138E-01 ort = 0.000E+00 (trialstep = 0.100E+01)
 search vector abs. value=  0.138E-01
 bond charge predicted
       N       E                     dE             d eps       ncg     rms          rms(c)
DAV:   1    -0.490847428761E+01   -0.91653E-02   -0.21321E-01   608   0.180E+00    0.431E-01
DAV:   2    -0.490619391807E+01    0.22804E-02   -0.11451E-03   696   0.244E-01    0.242E-01
DAV:   3    -0.490485764035E+01    0.13363E-02   -0.15420E-03   632   0.164E-01    0.709E-02
DAV:   4    -0.490485612876E+01    0.15116E-05   -0.27995E-06   760   0.142E-02    0.593E-02
DAV:   5    -0.490484967538E+01    0.64534E-05   -0.52776E-07   624   0.496E-03    0.106E-02
DAV:   6    -0.490485000558E+01   -0.33020E-06   -0.10818E-08   336   0.866E-04
   2 F= -.49048500E+01 E0= -.49047452E+01  d E =-.554065E-02
 trial-energy change:   -0.005541  1 .order   -0.005698   -0.013790    0.002394
 step:   0.8444(harm=  0.8521)  dis= 0.00000  next Energy=    -4.905037 (dE=-0.573E-02)
 bond charge predicted
       N       E                     dE             d eps       ncg     rms          rms(c)
DAV:   1    -0.490512010741E+01   -0.27043E-03   -0.52203E-03   616   0.285E-01    0.663E-02
DAV:   2    -0.490506417767E+01    0.55930E-04   -0.27469E-05   712   0.378E-02    0.372E-02
DAV:   3    -0.490503274480E+01    0.31433E-04   -0.37646E-05   648   0.256E-02    0.116E-02
DAV:   4    -0.490503278843E+01   -0.43636E-07   -0.62352E-08   408   0.211E-03    0.981E-03
DAV:   5    -0.490503322413E+01   -0.43570E-06   -0.15896E-08   312   0.919E-04    0.149E-03
DAV:   6    -0.490503316574E+01    0.58395E-07   -0.50661E-10   312   0.189E-04
   3 F= -.49050332E+01 E0= -.49049263E+01  d E =-.572381E-02
 curvature:  -0.42 expect dE=-0.387E-07 dE for cont linesearch -0.387E-07
 trial: gam=-0.00256 g(F)=  0.206E-64 g(S)=  0.911E-07 ort = 0.354E-04 (trialstep = 0.969E+00)
 search vector abs. value=  0.101E-09
 reached required accuracy - stopping structural energy minimisation
