unknown system                          
           1
     2.347395    0.000000    1.355268
     0.782465    2.213145    1.355268
     0.000000    0.000000    2.710538
   Si
     1
Direct configuration=     1
   0.00000000  0.00000000  0.00000000
unknown system                          
           1
     2.382351   -0.000000    1.375450
     0.794117    2.246102    1.375450
    -0.000000   -0.000000    2.750902
   Si
     1
Direct configuration=     2
   0.00000000  0.00000000 -0.00000000
unknown system                          
           1
     2.376913   -0.000000    1.372310
     0.792304    2.240975    1.372310
    -0.000000   -0.000000    2.744622
   Si
     1
Direct configuration=     3
   0.00000000  0.00000000 -0.00000000
