   1   1   0   0
  0.1561251E+02  0.2805407E-09  0.2805406E-09  0.2805407E-09  0.5000000E-15
  1.000000000000000E-004
  CAR 
 unknown system                          
     35.99575941     -6.50472129  301      9.18352878      1.00000000
     -6.505  0.0000E+00  0.0000E+00
     -6.363  0.0000E+00  0.0000E+00
     -6.221  0.0000E+00  0.0000E+00
     -6.080  0.0000E+00  0.0000E+00
     -5.938  0.0000E+00  0.0000E+00
     -5.796  0.0000E+00  0.0000E+00
     -5.655  0.0000E+00  0.0000E+00
     -5.513  0.0000E+00  0.0000E+00
     -5.371  0.0000E+00  0.0000E+00
     -5.230  0.0000E+00  0.0000E+00
     -5.088  0.0000E+00  0.0000E+00
     -4.946  0.0000E+00  0.0000E+00
     -4.805  0.1149E-14  0.1628E-15
     -4.663  0.2254E-06  0.3193E-07
     -4.521  0.4607E-04  0.6558E-05
     -4.380  0.5225E-03  0.8058E-04
     -4.238  0.3523E-03  0.1305E-03
     -4.096  0.1099E-02  0.2862E-03
     -3.955  0.4859E-03  0.3551E-03
     -3.813  0.5836E-03  0.4378E-03
     -3.671  0.1641E-02  0.6702E-03
     -3.530  0.1023E-02  0.8152E-03
     -3.388  0.1302E-02  0.9996E-03
     -3.246  0.3781E-03  0.1053E-02
     -3.105  0.2507E-02  0.1408E-02
     -2.963  0.1162E-02  0.1573E-02
     -2.821  0.1340E-02  0.1763E-02
     -2.680  0.1414E-02  0.1963E-02
     -2.538  0.5549E-03  0.2042E-02
     -2.396  0.2730E-02  0.2428E-02
     -2.255  0.1813E-02  0.2685E-02
     -2.113  0.3111E-02  0.3126E-02
     -1.971  0.2610E-03  0.3163E-02
     -1.830  0.1392E-02  0.3360E-02
     -1.688  0.1933E-02  0.3634E-02
     -1.546  0.2050E-02  0.3925E-02
     -1.405  0.2625E-02  0.4296E-02
     -1.263  0.1114E-02  0.4454E-02
     -1.121  0.4651E-02  0.5113E-02
     -0.980  0.1051E-02  0.5262E-02
     -0.838  0.1988E-02  0.5544E-02
     -0.696  0.6087E-03  0.5630E-02
     -0.555  0.2684E-02  0.6010E-02
     -0.413  0.2434E-02  0.6355E-02
     -0.271  0.3463E-02  0.6846E-02
     -0.130  0.3641E-02  0.7361E-02
      0.012  0.1212E-03  0.7379E-02
      0.154  0.4544E-02  0.8022E-02
      0.295  0.1778E-02  0.8274E-02
      0.437  0.2405E-02  0.8615E-02
      0.579  0.3958E-03  0.8671E-02
      0.720  0.3743E-02  0.9201E-02
      0.862  0.4016E-02  0.9770E-02
      1.004  0.2590E-02  0.1014E-01
      1.145  0.4077E-02  0.1071E-01
      1.287  0.1473E-02  0.1092E-01
      1.429  0.2875E-02  0.1133E-01
      1.570  0.3278E-02  0.1180E-01
      1.712  0.3849E-02  0.1234E-01
      1.854  0.1344E-02  0.1253E-01
      1.995  0.2368E-02  0.1287E-01
      2.137  0.3679E-02  0.1339E-01
      2.279  0.4651E-02  0.1405E-01
      2.420  0.2545E-02  0.1441E-01
      2.562  0.3970E-02  0.1497E-01
      2.704  0.3592E-02  0.1548E-01
      2.845  0.1998E-02  0.1576E-01
      2.987  0.2010E-02  0.1605E-01
      3.129  0.1742E-02  0.1629E-01
      3.270  0.3137E-02  0.1674E-01
      3.412  0.1967E-02  0.1702E-01
      3.554  0.6959E-02  0.1800E-01
      3.695  0.4139E-02  0.1859E-01
      3.837  0.2314E-02  0.1892E-01
      3.979  0.1361E-02  0.1911E-01
      4.120  0.4214E-02  0.1971E-01
      4.262  0.4485E-02  0.2034E-01
      4.404  0.2454E-02  0.2069E-01
      4.545  0.2629E-02  0.2106E-01
      4.687  0.6507E-02  0.2198E-01
      4.829  0.3392E-02  0.2246E-01
      4.970  0.2163E-02  0.2277E-01
      5.112  0.1337E-02  0.2296E-01
      5.254  0.4342E-02  0.2357E-01
      5.395  0.3710E-02  0.2410E-01
      5.537  0.6663E-02  0.2504E-01
      5.679  0.4348E-02  0.2566E-01
      5.820  0.1771E-02  0.2591E-01
      5.962  0.4199E-02  0.2651E-01
      6.104  0.3880E-02  0.2706E-01
      6.245  0.5385E-02  0.2782E-01
      6.387  0.3042E-02  0.2825E-01
      6.529  0.5374E-02  0.2901E-01
      6.670  0.1724E-02  0.2926E-01
      6.812  0.3016E-02  0.2968E-01
      6.954  0.1902E-02  0.2995E-01
      7.095  0.3802E-02  0.3049E-01
      7.237  0.5474E-02  0.3127E-01
      7.379  0.1026E-01  0.3272E-01
      7.520  0.2837E-02  0.3312E-01
      7.662  0.1083E-02  0.3327E-01
      7.804  0.5766E-02  0.3409E-01
      7.945  0.3440E-02  0.3458E-01
      8.087  0.3176E-02  0.3503E-01
      8.229  0.3764E-02  0.3556E-01
      8.370  0.6262E-02  0.3645E-01
      8.512  0.3061E-02  0.3688E-01
      8.654  0.5805E-02  0.3770E-01
      8.795  0.1578E-02  0.3793E-01
      8.937  0.5691E-02  0.3873E-01
      9.079  0.2839E-02  0.3914E-01
      9.220  0.7703E-02  0.4023E-01
      9.362  0.4677E-02  0.4089E-01
      9.504  0.2182E-02  0.4120E-01
      9.645  0.4960E-02  0.4190E-01
      9.787  0.7035E-02  0.4290E-01
      9.929  0.5414E-02  0.4367E-01
     10.070  0.3347E-02  0.4414E-01
     10.212  0.5228E-02  0.4488E-01
     10.354  0.6382E-02  0.4579E-01
     10.495  0.1496E-02  0.4600E-01
     10.637  0.9463E-03  0.4613E-01
     10.779  0.6334E-02  0.4703E-01
     10.920  0.5392E-02  0.4779E-01
     11.062  0.9031E-02  0.4907E-01
     11.204  0.6733E-02  0.5003E-01
     11.345  0.4356E-02  0.5064E-01
     11.487  0.2840E-02  0.5104E-01
     11.629  0.5878E-02  0.5188E-01
     11.770  0.4254E-02  0.5248E-01
     11.912  0.6672E-02  0.5343E-01
     12.054  0.7273E-02  0.5446E-01
     12.195  0.2989E-02  0.5488E-01
     12.337  0.7502E-02  0.5594E-01
     12.479  0.5550E-02  0.5673E-01
     12.620  0.2546E-02  0.5709E-01
     12.762  0.8196E-02  0.5825E-01
     12.904  0.8323E-02  0.5943E-01
     13.045  0.2685E-02  0.5981E-01
     13.187  0.6915E-02  0.6079E-01
     13.329  0.6396E-02  0.6170E-01
     13.471  0.6133E-02  0.6256E-01
     13.612  0.2599E-02  0.6293E-01
     13.754  0.5102E-02  0.6366E-01
     13.896  0.4533E-02  0.6430E-01
     14.037  0.2203E-02  0.6461E-01
     14.179  0.6135E-02  0.6548E-01
     14.321  0.7388E-02  0.6653E-01
     14.462  0.6738E-02  0.6748E-01
     14.604  0.5941E-02  0.6832E-01
     14.746  0.3205E-02  0.6878E-01
     14.887  0.2931E-02  0.6919E-01
     15.029  0.5006E-02  0.6990E-01
     15.171  0.5625E-02  0.7070E-01
     15.312  0.2194E-02  0.7101E-01
     15.454  0.6670E-02  0.7195E-01
     15.596  0.6391E-02  0.7286E-01
     15.737  0.3569E-02  0.7336E-01
     15.879  0.3811E-02  0.7390E-01
     16.021  0.8029E-02  0.7504E-01
     16.162  0.5078E-02  0.7576E-01
     16.304  0.4923E-02  0.7646E-01
     16.446  0.3474E-02  0.7695E-01
     16.587  0.4227E-02  0.7755E-01
     16.729  0.8036E-02  0.7869E-01
     16.871  0.7184E-02  0.7971E-01
     17.012  0.4679E-02  0.8037E-01
     17.154  0.8399E-02  0.8156E-01
     17.296  0.3439E-02  0.8205E-01
     17.437  0.4975E-02  0.8275E-01
     17.579  0.5257E-02  0.8350E-01
     17.721  0.7270E-02  0.8452E-01
     17.862  0.4570E-02  0.8517E-01
     18.004  0.4141E-02  0.8576E-01
     18.146  0.3852E-02  0.8630E-01
     18.287  0.4558E-02  0.8695E-01
     18.429  0.3680E-02  0.8747E-01
     18.571  0.4953E-02  0.8817E-01
     18.712  0.8901E-02  0.8943E-01
     18.854  0.1092E-01  0.9098E-01
     18.996  0.3861E-02  0.9153E-01
     19.137  0.4701E-02  0.9219E-01
     19.279  0.7964E-02  0.9332E-01
     19.421  0.2167E-02  0.9363E-01
     19.562  0.6642E-02  0.9457E-01
     19.704  0.8091E-02  0.9572E-01
     19.846  0.6820E-02  0.9668E-01
     19.987  0.4620E-02  0.9734E-01
     20.129  0.5104E-02  0.9806E-01
     20.271  0.7666E-02  0.9915E-01
     20.412  0.6526E-02  0.1001E+00
     20.554  0.5640E-02  0.1009E+00
     20.696  0.1675E-02  0.1011E+00
     20.837  0.6110E-02  0.1020E+00
     20.979  0.6809E-02  0.1029E+00
     21.121  0.5884E-02  0.1038E+00
     21.262  0.5594E-02  0.1046E+00
     21.404  0.5898E-02  0.1054E+00
     21.546  0.3985E-02  0.1060E+00
     21.687  0.1290E-01  0.1078E+00
     21.829  0.1116E-01  0.1094E+00
     21.971  0.5645E-02  0.1102E+00
     22.112  0.8724E-02  0.1114E+00
     22.254  0.4752E-02  0.1121E+00
     22.396  0.8639E-02  0.1133E+00
     22.537  0.4591E-02  0.1140E+00
     22.679  0.4250E-02  0.1146E+00
     22.821  0.6234E-02  0.1154E+00
     22.962  0.7373E-02  0.1165E+00
     23.104  0.4797E-02  0.1172E+00
     23.246  0.3495E-02  0.1177E+00
     23.387  0.3880E-02  0.1182E+00
     23.529  0.1552E-01  0.1204E+00
     23.671  0.1092E-01  0.1220E+00
     23.812  0.6794E-02  0.1229E+00
     23.954  0.7879E-02  0.1240E+00
     24.096  0.4566E-02  0.1247E+00
     24.237  0.5668E-02  0.1255E+00
     24.379  0.6111E-02  0.1264E+00
     24.521  0.5473E-02  0.1271E+00
     24.662  0.5019E-02  0.1278E+00
     24.804  0.1183E-01  0.1295E+00
     24.946  0.4180E-02  0.1301E+00
     25.087  0.3107E-02  0.1305E+00
     25.229  0.4394E-02  0.1312E+00
     25.371  0.7542E-02  0.1322E+00
     25.512  0.8586E-02  0.1335E+00
     25.654  0.7757E-02  0.1346E+00
     25.796  0.1031E-01  0.1360E+00
     25.937  0.3763E-02  0.1365E+00
     26.079  0.1444E-02  0.1368E+00
     26.221  0.6997E-02  0.1377E+00
     26.362  0.1143E-01  0.1394E+00
     26.504  0.4617E-02  0.1400E+00
     26.646  0.3427E-02  0.1405E+00
     26.787  0.2004E-02  0.1408E+00
     26.929  0.5631E-02  0.1416E+00
     27.071  0.7402E-02  0.1426E+00
     27.212  0.4285E-02  0.1432E+00
     27.354  0.3114E-02  0.1437E+00
     27.496  0.3377E-02  0.1442E+00
     27.637  0.8430E-02  0.1454E+00
     27.779  0.1008E-01  0.1468E+00
     27.921  0.5866E-02  0.1476E+00
     28.062  0.7379E-02  0.1487E+00
     28.204  0.4476E-02  0.1493E+00
     28.346  0.3636E-02  0.1498E+00
     28.487  0.3189E-02  0.1503E+00
     28.629  0.4376E-02  0.1509E+00
     28.771  0.7682E-02  0.1520E+00
     28.912  0.2340E-02  0.1523E+00
     29.054  0.2723E-02  0.1527E+00
     29.196  0.6318E-02  0.1536E+00
     29.337  0.2729E-02  0.1540E+00
     29.479  0.4907E-02  0.1547E+00
     29.621  0.6194E-04  0.1547E+00
     29.762  0.1868E-02  0.1549E+00
     29.904  0.4136E-02  0.1555E+00
     30.046  0.1464E-02  0.1557E+00
     30.187  0.9492E-03  0.1559E+00
     30.329  0.1793E-02  0.1561E+00
     30.471  0.1414E-02  0.1563E+00
     30.612  0.3778E-02  0.1569E+00
     30.754  0.2612E-02  0.1572E+00
     30.896  0.1798E-02  0.1575E+00
     31.037  0.1029E-02  0.1576E+00
     31.179  0.1740E-02  0.1579E+00
     31.321  0.1563E-02  0.1581E+00
     31.462  0.2232E-02  0.1584E+00
     31.604  0.1756E-02  0.1587E+00
     31.746  0.1328E-02  0.1588E+00
     31.887  0.3958E-03  0.1589E+00
     32.029  0.1470E-03  0.1589E+00
     32.171  0.1851E-02  0.1592E+00
     32.312  0.4077E-03  0.1592E+00
     32.454  0.1155E-03  0.1593E+00
     32.596  0.1032E-02  0.1594E+00
     32.737  0.2288E-03  0.1594E+00
     32.879  0.1594E-02  0.1597E+00
     33.021  0.6496E-03  0.1598E+00
     33.162  0.8688E-03  0.1599E+00
     33.304  0.1332E-03  0.1599E+00
     33.446  0.1529E-09  0.1599E+00
     33.587  0.3484E-13  0.1599E+00
     33.729  0.4002E-05  0.1599E+00
     33.871  0.4703E-03  0.1600E+00
     34.012  0.4589E-04  0.1600E+00
     34.154  0.2314E-03  0.1600E+00
     34.296  0.1352E-05  0.1600E+00
     34.437  0.6895E-14  0.1600E+00
     34.579  0.0000E+00  0.1600E+00
     34.721  0.0000E+00  0.1600E+00
     34.862  0.0000E+00  0.1600E+00
     35.004  0.0000E+00  0.1600E+00
     35.146  0.0000E+00  0.1600E+00
     35.287  0.0000E+00  0.1600E+00
     35.429  0.0000E+00  0.1600E+00
     35.571  0.0000E+00  0.1600E+00
     35.712  0.0000E+00  0.1600E+00
     35.854  0.0000E+00  0.1600E+00
     35.996  0.0000E+00  0.1600E+00
