    1    1  100    1
  0.1561251E+02  0.2805407E-09  0.2805406E-09  0.2805407E-09  0.5000000E-15
  1.000000000000000E-004
  CAR 
 unknown system                          
      4    120      8
 
  0.0000000E+00  0.0000000E+00  0.0000000E+00  0.2962963E-03
    1       -4.572881   1.000000
    2       19.441427   0.000000
    3       19.441434   0.000000
    4       19.441441   0.000000
    5       20.833677   0.000000
    6       20.833684   0.000000
    7       20.833693   0.000000
    8       25.999302   0.000000
 
  0.6666667E-01  0.3469447E-17  0.0000000E+00  0.2370370E-02
    1       -4.450054   1.000000
    2       17.674173   0.000000
    3       18.970348   0.000000
    4       18.970359   0.000000
    5       21.448931   0.000000
    6       21.448945   0.000000
    7       21.567468   0.000000
    8       26.692934   0.000000
 
  0.1333333E+00  0.6938894E-17  0.0000000E+00  0.2370370E-02
    1       -4.082066   1.000000
    2       15.042576   0.000000
    3       18.296054   0.000000
    4       18.296064   0.000000
    5       21.804744   0.000000
    6       22.418279   0.000000
    7       22.418293   0.000000
    8       25.741072   0.000000
 
  0.2000000E+00  0.1387779E-16  0.0000000E+00  0.2370370E-02
    1       -3.470445   1.000000
    2       12.371052   0.000000
    3       17.752218   0.000000
    4       17.752227   0.000000
    5       21.720656   0.000000
    6       22.665545   0.000000
    7       22.665555   0.000000
    8       25.686632   0.000000
 
  0.2666667E+00  0.1387779E-16  0.0000000E+00  0.2370370E-02
    1       -2.617932   1.000000
    2        9.809247   0.000000
    3       17.378041   0.000000
    4       17.378049   0.000000
    5       21.605716   0.000000
    6       21.895791   0.000000
    7       21.895800   0.000000
    8       26.975461   0.000000
 
  0.3333333E+00  0.1387779E-16  0.0000000E+00  0.2370370E-02
    1       -1.529157   1.000000
    2        7.414500   1.000000
    3       17.167278   0.000000
    4       17.167284   0.000000
    5       20.989964   0.000000
    6       20.989974   0.000000
    7       21.560993   0.000000
    8       25.946862   0.000000
 
  0.4000000E+00  0.2775558E-16  0.0000000E+00  0.2370370E-02
    1       -0.213993   1.000000
    2        5.219902   1.000000
    3       17.088030   0.000000
    4       17.088034   0.000000
    5       20.272956   0.000000
    6       20.272967   0.000000
    7       21.598086   0.000000
    8       25.112512   0.000000
 
  0.4666667E+00  0.5551115E-16  0.0000000E+00  0.2370370E-02
    1        1.273428   1.000000
    2        3.290525   1.000000
    3       17.080253   0.000000
    4       17.080256   0.000000
    5       19.873017   0.000000
    6       19.873029   0.000000
    7       21.660035   0.000000
    8       24.639874   0.000000
 
  0.6666667E-01  0.6666667E-01  0.0000000E+00  0.1777778E-02
    1       -4.409118   1.000000
    2       18.095648   0.000000
    3       18.095648   0.000000
    4       19.039961   0.000000
    5       19.976753   0.000000
    6       22.380766   0.000000
    7       22.380766   0.000000
    8       25.639754   0.000000
 
  0.1333333E+00  0.6666667E-01  0.0000000E+00  0.7111111E-02
    1       -4.122874   1.000000
    2       15.986531   0.000000
    3       17.318056   0.000000
    4       18.686366   0.000000
    5       20.246722   0.000000
    6       23.051830   0.000000
    7       23.438953   0.000000
    8       24.267777   0.000000
 
  0.2000000E+00  0.6666667E-01  0.0000000E+00  0.7111111E-02
    1       -3.592483   1.000000
    2       13.338954   0.000000
    3       16.717400   0.000000
    4       18.103464   0.000000
    5       20.880449   0.000000
    6       22.906868   0.000000
    7       23.759311   0.000000
    8       24.028517   0.000000
 
  0.2666667E+00  0.6666667E-01  0.0000000E+00  0.7111111E-02
    1       -2.820242   1.000000
    2       10.741831   0.000000
    3       16.312479   0.000000
    4       17.589153   0.000000
    5       20.499910   0.000000
    6       22.636991   0.000000
    7       23.482171   0.000000
    8       24.711514   0.000000
 
  0.3333333E+00  0.6666667E-01  0.0000000E+00  0.7111111E-02
    1       -1.809997   1.000000
    2        8.291634   1.000000
    3       16.106930   0.000000
    4       17.138268   0.000000
    5       19.758789   0.000000
    6       22.538246   0.000000
    7       22.564012   0.000000
    8       26.226744   0.000000
 
  0.4000000E+00  0.6666667E-01  0.0000000E+00  0.7111111E-02
    1       -0.568991   1.000000
    2        6.029275   1.000000
    3       16.097014   0.000000
    4       16.686138   0.000000
    5       19.283188   0.000000
    6       21.654587   0.000000
    7       22.541092   0.000000
    8       26.263586   0.000000
 
  0.4666667E+00  0.6666667E-01  0.0000000E+00  0.7111111E-02
    1        0.877703   1.000000
    2        3.994927   1.000000
    3       16.217509   0.000000
    4       16.271559   0.000000
    5       19.207652   0.000000
    6       20.953713   0.000000
    7       22.528525   0.000000
    8       25.787060   0.000000
 
 -0.4666667E+00  0.6666667E-01  0.0000000E+00  0.7111111E-02
    1        1.810180   1.000000
    2        2.915129   1.000000
    3       15.801033   0.000000
    4       16.607770   0.000000
    5       19.493499   0.000000
    6       20.492042   0.000000
    7       22.468043   0.000000
    8       25.703366   0.000000
 
 -0.4000000E+00  0.6666667E-01  0.0000000E+00  0.7111111E-02
    1        0.376922   1.000000
    2        4.642871   1.000000
    3       15.511161   0.000000
    4       17.063506   0.000000
    5       20.071594   0.000000
    6       20.320186   0.000000
    7       22.360412   0.000000
    8       26.044142   0.000000
 
 -0.3333333E+00  0.6666667E-01  0.0000000E+00  0.7111111E-02
    1       -1.007590   1.000000
    2        6.760630   1.000000
    3       15.391416   0.000000
    4       17.575271   0.000000
    5       20.493285   0.000000
    6       20.888180   0.000000
    7       22.272701   0.000000
    8       26.696342   0.000000
 
 -0.2666667E+00  0.6666667E-01  0.0000000E+00  0.7111111E-02
    1       -2.172902   1.000000
    2        9.089036   0.996237
    3       15.462933   0.000000
    4       18.089824   0.000000
    5       21.024788   0.000000
    6       21.884150   0.000000
    7       22.254658   0.000000
    8       26.272024   0.000000
 
 -0.2000000E+00  0.6666667E-01  0.0000000E+00  0.7111111E-02
    1       -3.104371   1.000000
    2       11.593992   0.000000
    3       15.734584   0.000000
    4       18.610679   0.000000
    5       21.735456   0.000000
    6       22.276835   0.000000
    7       22.935794   0.000000
    8       24.721954   0.000000
 
 -0.1333333E+00  0.6666667E-01  0.0000000E+00  0.7111111E-02
    1       -3.796324   1.000000
    2       14.225625   0.000000
    3       16.207197   0.000000
    4       19.152459   0.000000
    5       21.786351   0.000000
    6       22.237114   0.000000
    7       23.449775   0.000000
    8       24.377774   0.000000
 
 -0.6666667E-01  0.6666667E-01  0.0000000E+00  0.3555556E-02
    1       -4.245522   1.000000
    2       16.819029   0.000000
    3       16.910436   0.000000
    4       19.497928   0.000000
    5       21.150054   0.000000
    6       21.900558   0.000000
    7       22.817958   0.000000
    8       25.422686   0.000000
 
  0.1333333E+00  0.1333333E+00  0.0000000E+00  0.1777778E-02
    1       -3.918568   1.000000
    2       16.466771   0.000000
    3       16.466772   0.000000
    4       17.974989   0.000000
    5       18.424228   0.000000
    6       22.567334   0.000000
    7       24.586224   0.000000
    8       24.586225   0.000000
 
  0.2000000E+00  0.1333333E+00  0.0000000E+00  0.7111111E-02
    1       -3.469990   1.000000
    2       14.434874   0.000000
    3       15.799462   0.000000
    4       17.381600   0.000000
    5       18.708202   0.000000
    6       21.312158   0.000000
    7       25.270373   0.000000
    8       25.493043   0.000000
 
  0.2666667E+00  0.1333333E+00  0.0000000E+00  0.7111111E-02
    1       -2.779021   1.000000
    2       11.867031   0.000000
    3       15.333258   0.000000
    4       16.662350   0.000000
    5       18.784265   0.000000
    6       21.479035   0.000000
    7       25.309534   0.000000
    8       25.446117   0.000000
 
  0.3333333E+00  0.1333333E+00  0.0000000E+00  0.7111111E-02
    1       -1.848877   1.000000
    2        9.382168   0.000000
    3       15.073710   0.000000
    4       15.890561   0.000000
    5       18.261633   0.000000
    6       22.779468   0.000000
    7       24.441071   0.000000
    8       25.619918   0.000000
 
  0.4000000E+00  0.1333333E+00  0.0000000E+00  0.7111111E-02
    1       -0.685181   1.000000
    2        7.063494   1.000000
    3       15.021532   0.000000
    4       15.081917   0.000000
    5       17.985057   0.000000
    6       23.524085   0.000000
    7       23.870594   0.000000
    8       26.345974   0.000000
 
  0.4666667E+00  0.1333333E+00  0.0000000E+00  0.7111111E-02
    1        0.697670   1.000000
    2        4.951184   1.000000
    3       14.330656   0.000000
    4       15.174249   0.000000
    5       18.038767   0.000000
    6       22.735989   0.000000
    7       24.185512   0.000000
    8       27.862862   0.000000
 
 -0.4666667E+00  0.1333333E+00  0.0000000E+00  0.7111111E-02
    1        2.132436   1.000000
    2        3.223229   1.000000
    3       13.717595   0.000000
    4       15.525827   0.000000
    5       18.379791   0.000000
    6       22.136601   0.000000
    7       24.112009   0.000000
    8       28.119574   0.000000
 
 -0.4000000E+00  0.1333333E+00  0.0000000E+00  0.7111111E-02
    1        1.197417   1.000000
    2        4.304816   1.000000
    3       13.285442   0.000000
    4       16.064646   0.000000
    5       18.974160   0.000000
    6       21.755836   0.000000
    7       23.922801   0.000000
    8       28.372920   0.000000
 
 -0.3333333E+00  0.1333333E+00  0.0000000E+00  0.7111111E-02
    1       -0.247815   1.000000
    2        6.334500   1.000000
    3       13.054854   0.000000
    4       16.768932   0.000000
    5       19.796885   0.000000
    6       21.616213   0.000000
    7       23.733081   0.000000
    8       27.817689   0.000000
 
 -0.2666667E+00  0.1333333E+00  0.0000000E+00  0.7111111E-02
    1       -1.487053   1.000000
    2        8.587633   1.000000
    3       13.036255   0.000000
    4       17.597077   0.000000
    5       20.818861   0.000000
    6       21.738846   0.000000
    7       23.574006   0.000000
    8       25.774061   0.000000
 
 -0.2000000E+00  0.1333333E+00  0.0000000E+00  0.7111111E-02
    1       -2.495760   1.000000
    2       11.017721   0.000000
    3       13.237591   0.000000
    4       18.466247   0.000000
    5       21.981862   0.000000
    6       22.108997   0.000000
    7       23.378191   0.000000
    8       24.015359   0.000000
 
 -0.1333333E+00  0.1333333E+00  0.0000000E+00  0.3555556E-02
    1       -3.266781   1.000000
    2       13.426197   0.000000
    3       13.808260   0.000000
    4       19.175491   0.000000
    5       22.094847   0.000000
    6       22.953531   0.000000
    7       23.095993   0.000000
    8       23.396152   0.000000
 
  0.2000000E+00  0.2000000E+00  0.0000000E+00  0.1777778E-02
    1       -3.103466   1.000000
    2       15.063789   0.000000
    3       15.063790   0.000000
    4       16.313177   0.000000
    5       16.933179   0.000000
    6       19.699585   0.000000
    7       26.862072   0.000000
    8       26.862072   0.000000
 
  0.2666667E+00  0.2000000E+00  0.0000000E+00  0.7111111E-02
    1       -2.494428   1.000000
    2       13.114087   0.000000
    3       14.529839   0.000000
    4       15.387634   0.000000
    5       17.110694   0.000000
    6       19.149075   0.000000
    7       27.239434   0.000000
    8       27.562894   0.000000
 
  0.3333333E+00  0.2000000E+00  0.0000000E+00  0.7111111E-02
    1       -1.645586   1.000000
    2       10.660373   0.000000
    3       14.204487   0.000000
    4       14.303790   0.000000
    5       17.013155   0.000000
    6       20.256487   0.000000
    7       26.528688   0.000000
    8       27.708479   0.000000
 
  0.4000000E+00  0.2000000E+00  0.0000000E+00  0.7111111E-02
    1       -0.561464   1.000000
    2        8.308472   1.000000
    3       13.247247   0.000000
    4       14.089903   0.000000
    5       16.855799   0.000000
    6       22.036159   0.000000
    7       25.631005   0.000000
    8       27.630277   0.000000
 
  0.4666667E+00  0.2000000E+00  0.0000000E+00  0.7111111E-02
    1        0.748404   1.000000
    2        6.136442   1.000000
    3       12.322327   0.000000
    4       14.185775   0.000000
    5       16.927452   0.000000
    6       23.914407   0.000000
    7       24.806704   0.000000
    8       27.541631   0.000000
 
 -0.4666667E+00  0.2000000E+00  0.0000000E+00  0.7111111E-02
    1        2.233470   1.000000
    2        4.216436   1.000000
    3       11.578758   0.000000
    4       14.489682   0.000000
    5       17.246284   0.000000
    6       24.139434   0.000000
    7       25.303040   0.000000
    8       27.909542   0.000000
 
 -0.4000000E+00  0.2000000E+00  0.0000000E+00  0.7111111E-02
    1        2.231209   1.000000
    2        4.218391   1.000000
    3       11.040178   0.000000
    4       14.996439   0.000000
    5       17.804166   0.000000
    6       23.665019   0.000000
    7       25.596040   0.000000
    8       29.040098   0.000000
 
 -0.3333333E+00  0.2000000E+00  0.0000000E+00  0.7111111E-02
    1        0.746049   1.000000
    2        6.136773   1.000000
    3       10.719536   0.000000
    4       15.695834   0.000000
    5       18.588980   0.000000
    6       23.402395   0.000000
    7       25.393551   0.000000
    8       27.652309   0.000000
 
 -0.2666667E+00  0.2000000E+00  0.0000000E+00  0.7111111E-02
    1       -0.563550   1.000000
    2        8.298611   1.000000
    3       10.630645   0.000000
    4       16.566327   0.000000
    5       19.582240   0.000000
    6       23.363866   0.000000
    7       25.018817   0.000000
    8       25.512376   0.000000
 
 -0.2000000E+00  0.2000000E+00  0.0000000E+00  0.3555556E-02
    1       -1.647316   1.000000
    2       10.426913   0.000000
    3       10.985632   0.000000
    4       17.553418   0.000000
    5       20.746950   0.000000
    6       23.507025   0.000000
    7       23.653112   0.000000
    8       24.378055   0.000000
 
  0.2666667E+00  0.2666667E+00  0.0000000E+00  0.1777778E-02
    1       -1.967636   1.000000
    2       13.884130   0.000000
    3       13.926645   0.000000
    4       13.926646   0.000000
    5       15.684248   0.000000
    6       17.768613   0.000000
    7       29.060918   0.000000
    8       29.061044   0.000000
 
  0.3333333E+00  0.2666667E+00  0.0000000E+00  0.7111111E-02
    1       -1.200901   1.000000
    2       11.961622   0.000000
    3       12.777259   0.000000
    4       13.532252   0.000000
    5       15.898552   0.000000
    6       17.861284   0.000000
    7       28.706505   0.000000
    8       29.707072   0.000000
 
  0.4000000E+00  0.2666667E+00  0.0000000E+00  0.7111111E-02
    1       -0.198033   1.000000
    2        9.707462   0.000000
    3       11.500381   0.000000
    4       13.349794   0.000000
    5       15.933456   0.000000
    6       19.387051   0.000000
    7       27.881384   0.000000
    8       29.720884   0.000000
 
  0.4666667E+00  0.2666667E+00  0.0000000E+00  0.7111111E-02
    1        1.033968   1.000000
    2        7.519670   1.000000
    3       10.427840   0.000000
    4       13.379943   0.000000
    5       16.001339   0.000000
    6       21.413573   0.000000
    7       27.057224   0.000000
    8       29.381522   0.000000
 
 -0.4666667E+00  0.2666667E+00  0.0000000E+00  0.7111111E-02
    1        2.472214   1.000000
    2        5.519822   1.000000
    3        9.569112   0.000000
    4       13.621710   0.000000
    5       16.276377   0.000000
    6       23.606406   0.000000
    7       26.348668   0.000000
    8       28.877983   0.000000
 
 -0.4000000E+00  0.2666667E+00  0.0000000E+00  0.7111111E-02
    1        3.408353   1.000000
    2        4.441350   1.000000
    3        8.933899   1.000000
    4       14.072243   0.000000
    5       16.780077   0.000000
    6       25.728707   0.000000
    7       25.803637   0.000000
    8       28.336298   0.000000
 
 -0.3333333E+00  0.2666667E+00  0.0000000E+00  0.7111111E-02
    1        1.966280   1.000000
    2        6.157181   1.000000
    3        8.537690   1.000000
    4       14.725477   0.000000
    5       17.509966   0.000000
    6       25.432474   0.000000
    7       26.952533   0.000000
    8       27.739400   0.000000
 
 -0.2666667E+00  0.2666667E+00  0.0000000E+00  0.3555556E-02
    1        0.592077   1.000000
    2        7.981557   1.000000
    3        8.619676   1.000000
    4       15.568238   0.000000
    5       18.453539   0.000000
    6       25.023389   0.000000
    7       25.790585   0.000000
    8       26.289102   0.000000
 
  0.3333333E+00  0.3333333E+00  0.0000000E+00  0.1777778E-02
    1       -0.516731   1.000000
    2       11.051967   0.000000
    3       13.067977   0.000000
    4       13.067978   0.000000
    5       14.728717   0.000000
    6       16.629444   0.000000
    7       30.628433   0.000000
    8       31.084188   0.000000
 
  0.4000000E+00  0.3333333E+00  0.0000000E+00  0.7111111E-02
    1        0.403684   1.000000
    2        9.676916   0.000000
    3       11.455255   0.000000
    4       12.815814   0.000000
    5       15.078544   0.000000
    6       17.049270   0.000000
    7       30.143562   0.000000
    8       31.600170   0.000000
 
  0.4666667E+00  0.3333333E+00  0.0000000E+00  0.7111111E-02
    1        1.554566   1.000000
    2        8.398495   1.000000
    3        9.399934   0.000000
    4       12.777144   0.000000
    5       15.266162   0.000000
    6       18.810427   0.000000
    7       29.384186   0.000000
    8       31.397006   0.000000
 
 -0.4666667E+00  0.3333333E+00  0.0000000E+00  0.7111111E-02
    1        2.922076   1.000000
    2        6.888073   1.000000
    3        7.908304   1.000000
    4       12.951781   0.000000
    5       15.509781   0.000000
    6       21.022336   0.000000
    7       28.661739   0.000000
    8       30.763705   0.000000
 
 -0.4000000E+00  0.3333333E+00  0.0000000E+00  0.7111111E-02
    1        4.364093   1.000000
    2        5.265965   1.000000
    3        7.083624   1.000000
    4       13.338086   0.000000
    5       15.956375   0.000000
    6       23.408278   0.000000
    7       28.027289   0.000000
    8       29.847982   0.000000
 
 -0.3333333E+00  0.3333333E+00  0.0000000E+00  0.3555556E-02
    1        3.390741   1.000000
    2        6.133658   1.000000
    3        6.836023   1.000000
    4       13.932208   0.000000
    5       16.624909   0.000000
    6       25.790843   0.000000
    7       27.245256   0.000000
    8       28.427802   0.000000
 
  0.4000000E+00  0.4000000E+00  0.0000000E+00  0.1777778E-02
    1        1.240711   1.000000
    2        8.257962   1.000000
    3       12.493431   0.000000
    4       12.493432   0.000000
    5       14.085420   0.000000
    6       15.947343   0.000000
    7       31.786291   0.000000
    8       32.847791   0.000000
 
  0.4666667E+00  0.4000000E+00  0.0000000E+00  0.7111111E-02
    1        2.307522   1.000000
    2        7.001909   1.000000
    3       10.973868   0.000000
    4       12.384728   0.000000
    5       14.593503   0.000000
    6       16.579141   0.000000
    7       31.525094   0.000000
    8       33.123023   0.000000
 
 -0.4666667E+00  0.4000000E+00  0.0000000E+00  0.7111111E-02
    1        3.589793   1.000000
    2        5.955461   1.000000
    3        8.958657   1.000000
    4       12.490116   0.000000
    5       14.938795   0.000000
    6       18.521302   0.000000
    7       30.850575   0.000000
    8       32.535150   0.000000
 
 -0.4000000E+00  0.4000000E+00  0.0000000E+00  0.3555556E-02
    1        4.897767   1.000000
    2        5.249634   1.000000
    3        7.143796   1.000000
    4       12.808745   0.000000
    5       15.347532   0.000000
    6       20.889635   0.000000
    7       29.884978   0.000000
    8       31.368659   0.000000
 
  0.4666667E+00  0.4666667E+00  0.0000000E+00  0.1777778E-02
    1        3.283253   1.000000
    2        5.675747   1.000000
    3       12.205634   0.000000
    4       12.205635   0.000000
    5       13.762256   0.000000
    6       15.617711   0.000000
    7       32.611492   0.000000
    8       34.063919   0.000000
 
 -0.4666667E+00  0.4666667E+00  0.0000000E+00  0.3555556E-02
    1        4.279035   1.000000
    2        4.762026   1.000000
    3       10.818754   0.000000
    4       12.240851   0.000000
    5       14.432323   0.000000
    6       16.423870   0.000000
    7       32.283670   0.000000
    8       33.814281   0.000000
 
  0.2000000E+00  0.1333333E+00  0.6666667E-01  0.7111111E-02
    1       -3.755441   1.000000
    2       15.144649   0.000000
    3       15.357723   0.000000
    4       18.822332   0.000000
    5       19.991300   0.000000
    6       22.872620   0.000000
    7       23.913892   0.000000
    8       24.232985   0.000000
 
  0.2666667E+00  0.1333333E+00  0.6666667E-01  0.1422222E-01
    1       -3.144723   1.000000
    2       12.634635   0.000000
    3       14.723024   0.000000
    4       18.294523   0.000000
    5       20.395091   0.000000
    6       22.324670   0.000000
    7       24.147372   0.000000
    8       24.369275   0.000000
 
  0.3333333E+00  0.1333333E+00  0.6666667E-01  0.1422222E-01
    1       -2.293455   1.000000
    2       10.098419   0.000000
    3       14.381922   0.000000
    4       17.523954   0.000000
    5       20.022098   0.000000
    6       22.714429   0.000000
    7       23.678222   0.000000
    8       24.797955   0.000000
 
  0.4000000E+00  0.1333333E+00  0.6666667E-01  0.1422222E-01
    1       -1.206247   1.000000
    2        7.715496   1.000000
    3       14.247044   0.000000
    4       16.703610   0.000000
    5       19.666830   0.000000
    6       22.067594   0.000000
    7       23.790594   0.000000
    8       26.149388   0.000000
 
  0.4666667E+00  0.1333333E+00  0.6666667E-01  0.1422222E-01
    1        0.107187   1.000000
    2        5.527486   1.000000
    3       14.304259   0.000000
    4       15.947657   0.000000
    5       19.574775   0.000000
    6       21.278198   0.000000
    7       23.887124   0.000000
    8       27.603986   0.000000
 
 -0.4666667E+00  0.1333333E+00  0.6666667E-01  0.1422222E-01
    1        1.593979   1.000000
    2        3.600750   1.000000
    3       14.486664   0.000000
    4       15.398832   0.000000
    5       19.657607   0.000000
    6       20.741942   0.000000
    7       23.944859   0.000000
    8       27.424078   0.000000
 
  0.2666667E+00  0.2000000E+00  0.6666667E-01  0.7111111E-02
    1       -2.941143   1.000000
    2       13.684174   0.000000
    3       13.954357   0.000000
    4       17.029291   0.000000
    5       18.587555   0.000000
    6       20.361826   0.000000
    7       25.744850   0.000000
    8       26.357557   0.000000
 
  0.3333333E+00  0.2000000E+00  0.6666667E-01  0.1422222E-01
    1       -2.171153   1.000000
    2       11.294528   0.000000
    3       13.421720   0.000000
    4       16.048475   0.000000
    5       18.786987   0.000000
    6       20.879829   0.000000
    7       25.113207   0.000000
    8       26.803702   0.000000
 
  0.4000000E+00  0.2000000E+00  0.6666667E-01  0.1422222E-01
    1       -1.163852   1.000000
    2        8.881693   1.000000
    3       13.195778   0.000000
    4       14.998992   0.000000
    5       18.606820   0.000000
    6       22.382301   0.000000
    7       24.288891   0.000000
    8       26.926594   0.000000
 
  0.4666667E+00  0.2000000E+00  0.6666667E-01  0.1422222E-01
    1        0.073672   1.000000
    2        6.637491   1.000000
    3       13.107932   0.000000
    4       14.138760   0.000000
    5       18.593655   0.000000
    6       22.949400   0.000000
    7       24.565602   0.000000
    8       27.134752   0.000000
 
 -0.4666667E+00  0.2000000E+00  0.6666667E-01  0.1422222E-01
    1        1.517359   1.000000
    2        4.612562   1.000000
    3       12.855211   0.000000
    4       13.831446   0.000000
    5       18.803650   0.000000
    6       22.352694   0.000000
    7       25.552472   0.000000
    8       27.945811   0.000000
 
 -0.4000000E+00  0.2000000E+00  0.6666667E-01  0.1422222E-01
    1        2.453153   1.000000
    2        3.530819   1.000000
    3       12.386745   0.000000
    4       14.151085   0.000000
    5       19.224908   0.000000
    6       21.844307   0.000000
    7       25.726649   0.000000
    8       29.036100   0.000000
 
 -0.3333333E+00  0.2000000E+00  0.6666667E-01  0.1422222E-01
    1        1.016550   1.000000
    2        5.258705   1.000000
    3       12.031850   0.000000
    4       14.773551   0.000000
    5       19.820800   0.000000
    6       21.562467   0.000000
    7       25.507743   0.000000
    8       27.950023   0.000000
 
 -0.2666667E+00  0.2000000E+00  0.6666667E-01  0.1422222E-01
    1       -0.364452   1.000000
    2        7.363222   1.000000
    3       11.873612   0.000000
    4       15.607224   0.000000
    5       20.485103   0.000000
    6       21.601452   0.000000
    7       24.817271   0.000000
    8       26.487474   0.000000
 
 -0.2000000E+00  0.2000000E+00  0.6666667E-01  0.1422222E-01
    1       -1.526328   1.000000
    2        9.662817   0.000000
    3       11.935563   0.000000
    4       16.601608   0.000000
    5       21.012637   0.000000
    6       21.987299   0.000000
    7       23.522478   0.000000
    8       25.833535   0.000000
 
 -0.1333333E+00  0.2000000E+00  0.6666667E-01  0.7111111E-02
    1       -2.454936   1.000000
    2       11.935081   0.000000
    3       12.401201   0.000000
    4       17.649981   0.000000
    5       21.143032   0.000000
    6       21.740274   0.000000
    7       23.497373   0.000000
    8       25.260533   0.000000
 
  0.3333333E+00  0.2666667E+00  0.6666667E-01  0.7111111E-02
    1       -1.806477   1.000000
    2       12.496097   0.000000
    3       12.722585   0.000000
    4       14.432370   0.000000
    5       17.401409   0.000000
    6       18.768525   0.000000
    7       27.102007   0.000000
    8       28.752637   0.000000
 
  0.4000000E+00  0.2666667E+00  0.6666667E-01  0.1422222E-01
    1       -0.880455   1.000000
    2       10.223281   0.000000
    3       12.251398   0.000000
    4       13.318280   0.000000
    5       17.654105   0.000000
    6       19.867073   0.000000
    7       26.308240   0.000000
    8       29.177018   0.000000
 
  0.4666667E+00  0.2666667E+00  0.6666667E-01  0.1422222E-01
    1        0.278067   1.000000
    2        7.953189   1.000000
    3       11.717817   0.000000
    4       12.697425   0.000000
    5       17.670261   0.000000
    6       21.740009   0.000000
    7       25.463825   0.000000
    8       29.093744   0.000000
 
 -0.4666667E+00  0.2666667E+00  0.6666667E-01  0.1422222E-01
    1        1.655302   1.000000
    2        5.864707   1.000000
    3       10.946141   0.000000
    4       12.728730   0.000000
    5       17.856745   0.000000
    6       23.591246   0.000000
    7       24.942578   0.000000
    8       28.767266   0.000000
 
 -0.4000000E+00  0.2666667E+00  0.6666667E-01  0.1422222E-01
    1        3.093795   1.000000
    2        4.138986   1.000000
    3       10.281562   0.000000
    4       13.084838   0.000000
    5       18.255030   0.000000
    6       23.792385   0.000000
    7       26.171288   0.000000
    8       28.214568   0.000000
 
 -0.3333333E+00  0.2666667E+00  0.6666667E-01  0.1422222E-01
    1        2.150731   1.000000
    2        5.224577   1.000000
    3        9.816500   0.000000
    4       13.679174   0.000000
    5       18.862977   0.000000
    6       23.440066   0.000000
    7       26.849705   0.000000
    8       27.742478   0.000000
 
 -0.2666667E+00  0.2666667E+00  0.6666667E-01  0.1422222E-01
    1        0.710786   1.000000
    2        7.226205   1.000000
    3        9.580203   0.000000
    4       14.486868   0.000000
    5       19.662216   0.000000
    6       23.225590   0.000000
    7       25.133568   0.000000
    8       27.701412   0.000000
 
 -0.2000000E+00  0.2666667E+00  0.6666667E-01  0.7111111E-02
    1       -0.522583   1.000000
    2        9.207284   0.250827
    3        9.801558   0.000000
    4       15.482613   0.000000
    5       20.597157   0.000000
    6       22.924985   0.000000
    7       23.524551   0.000000
    8       26.996785   0.000000
 
  0.4000000E+00  0.3333333E+00  0.6666667E-01  0.7111111E-02
    1       -0.357180   1.000000
    2       11.026671   0.000000
    3       11.597362   0.000000
    4       12.323389   0.000000
    5       16.491993   0.000000
    6       17.776454   0.000000
    7       28.494542   0.000000
    8       30.941870   0.000000
 
  0.4666667E+00  0.3333333E+00  0.6666667E-01  0.1422222E-01
    1        0.720143   1.000000
    2        9.319740   0.000058
    3       10.198223   0.000000
    4       11.872518   0.000000
    5       16.878504   0.000000
    6       19.155525   0.000000
    7       27.726296   0.000000
    8       31.173637   0.000000
 
 -0.4666667E+00  0.3333333E+00  0.6666667E-01  0.1422222E-01
    1        2.021621   1.000000
    2        7.289824   1.000000
    3        9.139451   0.893749
    4       11.924338   0.000000
    5       17.060554   0.000000
    6       21.246550   0.000000
    7       26.960781   0.000000
    8       30.620521   0.000000
 