       N       E                     dE             d eps       ncg     rms          rms(c)
DAV:   1    -0.155644922476E+01   -0.15564E+01   -0.21626E+03  1992   0.499E+02
DAV:   2    -0.485959830268E+01   -0.33031E+01   -0.31479E+01  2896   0.342E+01
DAV:   3    -0.488109937307E+01   -0.21501E-01   -0.21492E-01  2112   0.300E+00
DAV:   4    -0.488112569835E+01   -0.26325E-04   -0.26324E-04  3208   0.118E-01
DAV:   5    -0.488112570317E+01   -0.48223E-08   -0.59459E-08  2232   0.109E-03    0.228E+00
DAV:   6    -0.486966782261E+01    0.11458E-01   -0.40007E-03  2200   0.275E-01    0.125E+00
DAV:   7    -0.486328209190E+01    0.63857E-02   -0.79299E-03  2216   0.385E-01    0.123E-01
DAV:   8    -0.486325766549E+01    0.24426E-04   -0.31328E-05  3008   0.461E-02    0.150E-02
DAV:   9    -0.486325820069E+01   -0.53520E-06   -0.27684E-07  2336   0.317E-03
   1 F= -.48632582E+01 E0= -.48627355E+01  d E =-.486326E+01
