<?xml version="1.0" encoding="ISO-8859-1"?>
<modeling>
 <generator>
  <i name="program" type="string">vasp </i>
  <i name="version" type="string">6.2.0  </i>
  <i name="subversion" type="string">18Jan21 (build Aug 12 2022 13:00:08) complex                          parallel </i>
  <i name="platform" type="string">LinuxIFC </i>
  <i name="date" type="string">2024 11 05 </i>
  <i name="time" type="string">06:11:34 </i>
 </generator>
 <incar>
  <i type="int" name="ISTART">     0</i>
  <i type="string" name="PREC">Accurate      (Accurate strictly avoids</i>
  <i type="logical" name="ADDGRID"> T  </i>
  <i type="int" name="ISPIN">     1</i>
  <i type="int" name="NELM">    90</i>
  <i type="int" name="NELMIN">     6</i>
  <i type="int" name="IBRION">     2</i>
  <i name="EDIFF">      0.00000100</i>
  <i name="EDIFFG">     -0.00200000</i>
  <i type="int" name="NSW">   100</i>
  <i type="int" name="ISIF">     2</i>
  <i type="int" name="ISYM">     2</i>
  <i name="ENCUT">    700.00000000</i>
  <i type="logical" name="LREAL"> F  </i>
  <i type="int" name="ISMEAR">     0</i>
  <i name="SIGMA">      0.05000000</i>
  <i type="logical" name="LWAVE"> F  </i>
  <i type="logical" name="LCHARG"> F  </i>
  <i type="logical" name="LASPH"> T  </i>
 </incar>
 <primitive_cell>
  <structure name="primitive_cell" >
   <crystal>
    <varray name="basis" >
     <v>       2.42955382       0.00000000       1.40270238 </v>
     <v>       0.80985127       2.29060507       1.40270238 </v>
     <v>       0.00000000       0.00000000       2.80540683 </v>
    </varray>
    <i name="volume">     15.61250511 </i>
    <varray name="rec_basis" >
     <v>       0.41159821      -0.14552196       0.00000000 </v>
     <v>       0.00000000       0.43656587       0.00000000 </v>
     <v>      -0.20579895      -0.14552185       0.35645454 </v>
    </varray>
   </crystal>
   <varray name="positions" >
    <v>       0.00000000       0.00000000       0.00000000 </v>
   </varray>
  </structure>
  <varray name="primitive_index" >
   <v type="int" >        1 </v>
  </varray>
 </primitive_cell>
 <kpoints>
  <generation param="Monkhorst-Pack">
   <v type="int" name="divisions">      15       15       15 </v>
   <v name="usershift">      0.00000000       0.00000000       0.00000000 </v>
   <v name="genvec1">      0.06666667       0.00000000       0.00000000 </v>
   <v name="genvec2">      0.00000000       0.06666667       0.00000000 </v>
   <v name="genvec3">      0.00000000       0.00000000       0.06666667 </v>
   <v name="shift">      0.00000000       0.00000000       0.00000000 </v>
  </generation>
  <varray name="kpointlist" >
   <v>       0.00000000       0.00000000       0.00000000 </v>
   <v>       0.06666667       0.00000000       0.00000000 </v>
   <v>       0.13333333       0.00000000       0.00000000 </v>
   <v>       0.20000000       0.00000000       0.00000000 </v>
   <v>       0.26666667       0.00000000       0.00000000 </v>
   <v>       0.33333333       0.00000000       0.00000000 </v>
   <v>       0.40000000       0.00000000       0.00000000 </v>
   <v>       0.46666667       0.00000000       0.00000000 </v>
   <v>       0.06666667       0.06666667       0.00000000 </v>
   <v>       0.13333333       0.06666667       0.00000000 </v>
   <v>       0.20000000       0.06666667       0.00000000 </v>
   <v>       0.26666667       0.06666667       0.00000000 </v>
   <v>       0.33333333       0.06666667       0.00000000 </v>
   <v>       0.40000000       0.06666667       0.00000000 </v>
   <v>       0.46666667       0.06666667       0.00000000 </v>
   <v>      -0.46666667       0.06666667       0.00000000 </v>
   <v>      -0.40000000       0.06666667       0.00000000 </v>
   <v>      -0.33333333       0.06666667       0.00000000 </v>
   <v>      -0.26666667       0.06666667       0.00000000 </v>
   <v>      -0.20000000       0.06666667       0.00000000 </v>
   <v>      -0.13333333       0.06666667       0.00000000 </v>
   <v>      -0.06666667       0.06666667       0.00000000 </v>
   <v>       0.13333333       0.13333333       0.00000000 </v>
   <v>       0.20000000       0.13333333       0.00000000 </v>
   <v>       0.26666667       0.13333333       0.00000000 </v>
   <v>       0.33333333       0.13333333       0.00000000 </v>
   <v>       0.40000000       0.13333333       0.00000000 </v>
   <v>       0.46666667       0.13333333       0.00000000 </v>
   <v>      -0.46666667       0.13333333       0.00000000 </v>
   <v>      -0.40000000       0.13333333       0.00000000 </v>
   <v>      -0.33333333       0.13333333       0.00000000 </v>
   <v>      -0.26666667       0.13333333       0.00000000 </v>
   <v>      -0.20000000       0.13333333       0.00000000 </v>
   <v>      -0.13333333       0.13333333       0.00000000 </v>
   <v>       0.20000000       0.20000000       0.00000000 </v>
   <v>       0.26666667       0.20000000       0.00000000 </v>
   <v>       0.33333333       0.20000000       0.00000000 </v>
   <v>       0.40000000       0.20000000       0.00000000 </v>
   <v>       0.46666667       0.20000000       0.00000000 </v>
   <v>      -0.46666667       0.20000000       0.00000000 </v>
   <v>      -0.40000000       0.20000000       0.00000000 </v>
   <v>      -0.33333333       0.20000000       0.00000000 </v>
   <v>      -0.26666667       0.20000000       0.00000000 </v>
   <v>      -0.20000000       0.20000000       0.00000000 </v>
   <v>       0.26666667       0.26666667       0.00000000 </v>
   <v>       0.33333333       0.26666667       0.00000000 </v>
   <v>       0.40000000       0.26666667       0.00000000 </v>
   <v>       0.46666667       0.26666667       0.00000000 </v>
   <v>      -0.46666667       0.26666667       0.00000000 </v>
   <v>      -0.40000000       0.26666667       0.00000000 </v>
   <v>      -0.33333333       0.26666667       0.00000000 </v>
   <v>      -0.26666667       0.26666667       0.00000000 </v>
   <v>       0.33333333       0.33333333       0.00000000 </v>
   <v>       0.40000000       0.33333333       0.00000000 </v>
   <v>       0.46666667       0.33333333       0.00000000 </v>
   <v>      -0.46666667       0.33333333       0.00000000 </v>
   <v>      -0.40000000       0.33333333       0.00000000 </v>
   <v>      -0.33333333       0.33333333       0.00000000 </v>
   <v>       0.40000000       0.40000000       0.00000000 </v>
   <v>       0.46666667       0.40000000       0.00000000 </v>
   <v>      -0.46666667       0.40000000       0.00000000 </v>
   <v>      -0.40000000       0.40000000       0.00000000 </v>
   <v>       0.46666667       0.46666667       0.00000000 </v>
   <v>      -0.46666667       0.46666667       0.00000000 </v>
   <v>       0.20000000       0.13333333       0.06666667 </v>
   <v>       0.26666667       0.13333333       0.06666667 </v>
   <v>       0.33333333       0.13333333       0.06666667 </v>
   <v>       0.40000000       0.13333333       0.06666667 </v>
   <v>       0.46666667       0.13333333       0.06666667 </v>
   <v>      -0.46666667       0.13333333       0.06666667 </v>
   <v>       0.26666667       0.20000000       0.06666667 </v>
   <v>       0.33333333       0.20000000       0.06666667 </v>
   <v>       0.40000000       0.20000000       0.06666667 </v>
   <v>       0.46666667       0.20000000       0.06666667 </v>
   <v>      -0.46666667       0.20000000       0.06666667 </v>
   <v>      -0.40000000       0.20000000       0.06666667 </v>
   <v>      -0.33333333       0.20000000       0.06666667 </v>
   <v>      -0.26666667       0.20000000       0.06666667 </v>
   <v>      -0.20000000       0.20000000       0.06666667 </v>
   <v>      -0.13333333       0.20000000       0.06666667 </v>
   <v>       0.33333333       0.26666667       0.06666667 </v>
   <v>       0.40000000       0.26666667       0.06666667 </v>
   <v>       0.46666667       0.26666667       0.06666667 </v>
   <v>      -0.46666667       0.26666667       0.06666667 </v>
   <v>      -0.40000000       0.26666667       0.06666667 </v>
   <v>      -0.33333333       0.26666667       0.06666667 </v>
   <v>      -0.26666667       0.26666667       0.06666667 </v>
   <v>      -0.20000000       0.26666667       0.06666667 </v>
   <v>       0.40000000       0.33333333       0.06666667 </v>
   <v>       0.46666667       0.33333333       0.06666667 </v>
   <v>      -0.46666667       0.33333333       0.06666667 </v>
   <v>      -0.40000000       0.33333333       0.06666667 </v>
   <v>      -0.33333333       0.33333333       0.06666667 </v>
   <v>      -0.26666667       0.33333333       0.06666667 </v>
   <v>       0.46666667       0.40000000       0.06666667 </v>
   <v>      -0.46666667       0.40000000       0.06666667 </v>
   <v>      -0.40000000       0.40000000       0.06666667 </v>
   <v>      -0.33333333       0.40000000       0.06666667 </v>
   <v>      -0.46666667       0.46666667       0.06666667 </v>
   <v>      -0.40000000       0.46666667       0.06666667 </v>
   <v>       0.40000000       0.26666667       0.13333333 </v>
   <v>       0.46666667       0.26666667       0.13333333 </v>
   <v>      -0.46666667       0.26666667       0.13333333 </v>
   <v>      -0.40000000       0.26666667       0.13333333 </v>
   <v>       0.46666667       0.33333333       0.13333333 </v>
   <v>      -0.46666667       0.33333333       0.13333333 </v>
   <v>      -0.40000000       0.33333333       0.13333333 </v>
   <v>      -0.33333333       0.33333333       0.13333333 </v>
   <v>      -0.26666667       0.33333333       0.13333333 </v>
   <v>      -0.20000000       0.33333333       0.13333333 </v>
   <v>      -0.46666667       0.40000000       0.13333333 </v>
   <v>      -0.40000000       0.40000000       0.13333333 </v>
   <v>      -0.33333333       0.40000000       0.13333333 </v>
   <v>      -0.26666667       0.40000000       0.13333333 </v>
   <v>      -0.40000000       0.46666667       0.13333333 </v>
   <v>      -0.33333333       0.46666667       0.13333333 </v>
   <v>      -0.40000000       0.40000000       0.20000000 </v>
   <v>      -0.33333333       0.40000000       0.20000000 </v>
   <v>      -0.33333333       0.46666667       0.20000000 </v>
   <v>      -0.26666667       0.46666667       0.20000000 </v>
  </varray>
  <varray name="weights" >
   <v>       0.00029630 </v>
   <v>       0.00237037 </v>
   <v>       0.00237037 </v>
   <v>       0.00237037 </v>
   <v>       0.00237037 </v>
   <v>       0.00237037 </v>
   <v>       0.00237037 </v>
   <v>       0.00237037 </v>
   <v>       0.00177778 </v>
   <v>       0.00711111 </v>
   <v>       0.00711111 </v>
   <v>       0.00711111 </v>
   <v>       0.00711111 </v>
   <v>       0.00711111 </v>
   <v>       0.00711111 </v>
   <v>       0.00711111 </v>
   <v>       0.00711111 </v>
   <v>       0.00711111 </v>
   <v>       0.00711111 </v>
   <v>       0.00711111 </v>
   <v>       0.00711111 </v>
   <v>       0.00355556 </v>
   <v>       0.00177778 </v>
   <v>       0.00711111 </v>
   <v>       0.00711111 </v>
   <v>       0.00711111 </v>
   <v>       0.00711111 </v>
   <v>       0.00711111 </v>
   <v>       0.00711111 </v>
   <v>       0.00711111 </v>
   <v>       0.00711111 </v>
   <v>       0.00711111 </v>
   <v>       0.00711111 </v>
   <v>       0.00355556 </v>
   <v>       0.00177778 </v>
   <v>       0.00711111 </v>
   <v>       0.00711111 </v>
   <v>       0.00711111 </v>
   <v>       0.00711111 </v>
   <v>       0.00711111 </v>
   <v>       0.00711111 </v>
   <v>       0.00711111 </v>
   <v>       0.00711111 </v>
   <v>       0.00355556 </v>
   <v>       0.00177778 </v>
   <v>       0.00711111 </v>
   <v>       0.00711111 </v>
   <v>       0.00711111 </v>
   <v>       0.00711111 </v>
   <v>       0.00711111 </v>
   <v>       0.00711111 </v>
   <v>       0.00355556 </v>
   <v>       0.00177778 </v>
   <v>       0.00711111 </v>
   <v>       0.00711111 </v>
   <v>       0.00711111 </v>
   <v>       0.00711111 </v>
   <v>       0.00355556 </v>
   <v>       0.00177778 </v>
   <v>       0.00711111 </v>
   <v>       0.00711111 </v>
   <v>       0.00355556 </v>
   <v>       0.00177778 </v>
   <v>       0.00355556 </v>
   <v>       0.00711111 </v>
   <v>       0.01422222 </v>
   <v>       0.01422222 </v>
   <v>       0.01422222 </v>
   <v>       0.01422222 </v>
   <v>       0.01422222 </v>
   <v>       0.00711111 </v>
   <v>       0.01422222 </v>
   <v>       0.01422222 </v>
   <v>       0.01422222 </v>
   <v>       0.01422222 </v>
   <v>       0.01422222 </v>
   <v>       0.01422222 </v>
   <v>       0.01422222 </v>
   <v>       0.01422222 </v>
   <v>       0.00711111 </v>
   <v>       0.00711111 </v>
   <v>       0.01422222 </v>
   <v>       0.01422222 </v>
   <v>       0.01422222 </v>
   <v>       0.01422222 </v>
   <v>       0.01422222 </v>
   <v>       0.01422222 </v>
   <v>       0.00711111 </v>
   <v>       0.00711111 </v>
   <v>       0.01422222 </v>
   <v>       0.01422222 </v>
   <v>       0.01422222 </v>
   <v>       0.01422222 </v>
   <v>       0.00711111 </v>
   <v>       0.00711111 </v>
   <v>       0.01422222 </v>
   <v>       0.01422222 </v>
   <v>       0.00711111 </v>
   <v>       0.00711111 </v>
   <v>       0.00711111 </v>
   <v>       0.00711111 </v>
   <v>       0.01422222 </v>
   <v>       0.01422222 </v>
   <v>       0.01422222 </v>
   <v>       0.00711111 </v>
   <v>       0.01422222 </v>
   <v>       0.01422222 </v>
   <v>       0.01422222 </v>
   <v>       0.01422222 </v>
   <v>       0.00711111 </v>
   <v>       0.00711111 </v>
   <v>       0.01422222 </v>
   <v>       0.01422222 </v>
   <v>       0.00711111 </v>
   <v>       0.00711111 </v>
   <v>       0.00711111 </v>
   <v>       0.00711111 </v>
   <v>       0.01422222 </v>
   <v>       0.00711111 </v>
   <v>       0.00711111 </v>
  </varray>
 </kpoints>
 <parameters>
  <separator name="general" >
   <i type="string" name="SYSTEM">unknown system</i>
   <i type="logical" name="LCOMPAT"> F  </i>
  </separator>
  <separator name="electronic" >
   <i type="string" name="PREC">accura</i>
   <i name="ENMAX">    700.00000000</i>
   <i name="ENAUG">    322.06900000</i>
   <i name="EDIFF">      0.00000100</i>
   <i type="int" name="IALGO">    38</i>
   <i type="int" name="IWAVPR">    11</i>
   <i type="int" name="NBANDS">     8</i>
   <i type="int" name="NBANDSLOW">    -1</i>
   <i type="int" name="NBANDSHIGH">    -1</i>
   <i name="NELECT">      4.00000000</i>
   <i type="int" name="TURBO">     0</i>
   <i type="int" name="IRESTART">     0</i>
   <i type="int" name="NREBOOT">     0</i>
   <i type="int" name="NMIN">     0</i>
   <i name="EREF">      0.00000000</i>
   <separator name="electronic smearing" >
    <i type="int" name="ISMEAR">     0</i>
    <i name="SIGMA">      0.05000000</i>
    <i name="KSPACING">      0.50000000</i>
    <i type="logical" name="KGAMMA"> T  </i>
    <i type="logical" name="KBLOWUP"> T  </i>
   </separator>
   <separator name="electronic projectors" >
    <i type="logical" name="LREAL"> F  </i>
    <v name="ROPT">      0.00000000</v>
    <i type="int" name="LMAXPAW">  -100</i>
    <i type="int" name="LMAXMIX">     2</i>
    <i type="logical" name="NLSPLINE"> F  </i>
   </separator>
   <separator name="electronic startup" >
    <i type="int" name="ISTART">     0</i>
    <i type="int" name="ICHARG">     2</i>
    <i type="int" name="INIWAV">     1</i>
   </separator>
   <separator name="electronic spin" >
    <i type="int" name="ISPIN">     1</i>
    <i type="logical" name="LNONCOLLINEAR"> F  </i>
    <v name="MAGMOM">      1.00000000</v>
    <i name="NUPDOWN">     -1.00000000</i>
    <i type="logical" name="LSORBIT"> F  </i>
    <v name="SAXIS">      0.00000000      0.00000000      1.00000000</v>
    <i type="logical" name="LSPIRAL"> F  </i>
    <v name="QSPIRAL">      0.00000000      0.00000000      0.00000000</v>
    <i type="logical" name="LZEROZ"> F  </i>
   </separator>
   <separator name="electronic exchange-correlation" >
    <i type="logical" name="LASPH"> T  </i>
    <i type="logical" name="LMETAGGA"> F  </i>
   </separator>
   <separator name="electronic convergence" >
    <i type="int" name="NELM">    90</i>
    <i type="int" name="NELMDL">    -5</i>
    <i type="int" name="NELMIN">     6</i>
    <i name="ENINI">    700.00000000</i>
    <separator name="electronic convergence detail" >
     <i type="logical" name="LDIAG"> T  </i>
     <i type="logical" name="LSUBROT"> F  </i>
     <i name="WEIMIN">      0.00100000</i>
     <i name="EBREAK">      0.00000003</i>
     <i name="DEPER">      0.30000000</i>
     <i type="int" name="NRMM">     4</i>
     <i name="TIME">      0.40000000</i>
    </separator>
   </separator>
   <separator name="electronic mixer" >
    <i name="AMIX">      0.40000000</i>
    <i name="BMIX">      1.00000000</i>
    <i name="AMIN">      0.10000000</i>
    <i name="AMIX_MAG">      1.60000000</i>
    <i name="BMIX_MAG">      1.00000000</i>
    <separator name="electronic mixer details" >
     <i type="int" name="IMIX">     4</i>
     <i type="logical" name="MIXFIRST"> F  </i>
     <i type="int" name="MAXMIX">   -45</i>
     <i name="WC">    100.00000000</i>
     <i type="int" name="INIMIX">     1</i>
     <i type="int" name="MIXPRE">     1</i>
     <i type="int" name="MREMOVE">     5</i>
    </separator>
   </separator>
   <separator name="electronic dipolcorrection" >
    <i type="logical" name="LDIPOL"> F  </i>
    <i type="logical" name="LMONO"> F  </i>
    <i type="int" name="IDIPOL">     0</i>
    <i name="EPSILON">      1.00000000</i>
    <v name="DIPOL">   -100.00000000   -100.00000000   -100.00000000</v>
    <i name="EFIELD">      0.00000000</i>
   </separator>
  </separator>
  <separator name="grids" >
   <i type="int" name="NGX">    24</i>
   <i type="int" name="NGY">    24</i>
   <i type="int" name="NGZ">    24</i>
   <i type="int" name="NGXF">    48</i>
   <i type="int" name="NGYF">    48</i>
   <i type="int" name="NGZF">    48</i>
   <i type="logical" name="ADDGRID"> T  </i>
  </separator>
  <separator name="ionic" >
   <i type="int" name="NSW">   100</i>
   <i type="int" name="IBRION">     2</i>
   <i type="int" name="MDALGO">     0</i>
   <i type="int" name="ISIF">     2</i>
   <i name="PSTRESS">      0.00000000</i>
   <i name="EDIFFG">     -0.00200000</i>
   <i type="int" name="NFREE">     1</i>
   <i name="POTIM">      0.50000000</i>
   <i name="SMASS">     -3.00000000</i>
   <i name="SCALEE">      1.00000000</i>
  </separator>
  <separator name="ionic md" >
   <i name="TEBEG">      0.00010000</i>
   <i name="TEEND">      0.00010000</i>
   <i type="int" name="NBLOCK">     1</i>
   <i type="int" name="KBLOCK">   100</i>
   <i type="int" name="NPACO">   256</i>
   <i name="APACO">     16.00000000</i>
  </separator>
  <separator name="symmetry" >
   <i type="int" name="ISYM">     2</i>
   <i name="SYMPREC">      0.00001000</i>
  </separator>
  <separator name="dos" >
   <i type="int" name="LORBIT">     0</i>
   <v name="RWIGS">     -1.00000000</v>
   <i type="int" name="NEDOS">   301</i>
   <i name="EMIN">     10.00000000</i>
   <i name="EMAX">    -10.00000000</i>
   <i name="EFERMI">      0.00000000</i>
  </separator>
  <separator name="writing" >
   <i type="int" name="NWRITE">     2</i>
   <i type="logical" name="LWAVE"> F  </i>
   <i type="logical" name="LDOWNSAMPLE"> F  </i>
   <i type="logical" name="LCHARG"> F  </i>
   <i type="logical" name="LPARD"> F  </i>
   <i type="logical" name="LVTOT"> F  </i>
   <i type="logical" name="LVHAR"> F  </i>
   <i type="logical" name="LELF"> F  </i>
   <i type="logical" name="LOPTICS"> F  </i>
   <v name="STM">      0.00000000      0.00000000      0.00000000      0.00000000      0.00000000      0.00000000      0.00000000</v>
  </separator>
  <separator name="performance" >
   <i type="int" name="NPAR">     4</i>
   <i type="int" name="NSIM">     4</i>
   <i type="int" name="NBLK">    -1</i>
   <i type="logical" name="LPLANE"> T  </i>
   <i type="logical" name="LSCALAPACK"> T  </i>
   <i type="logical" name="LSCAAWARE"> F  </i>
   <i type="logical" name="LSCALU"> F  </i>
   <i type="logical" name="LASYNC"> F  </i>
   <i type="logical" name="LORBITALREAL"> F  </i>
  </separator>
  <separator name="miscellaneous" >
   <i type="int" name="IDIOT">     3</i>
   <i type="int" name="PHON_NSTRUCT">    -1</i>
   <i type="logical" name="LMUSIC"> F  </i>
   <v name="POMASS">     28.08500000</v>
   <v name="DARWINR">      0.00000000</v>
   <v name="DARWINV">      1.00000000</v>
   <i type="logical" name="LCORR"> T  </i>
  </separator>
  <i type="logical" name="GGA_COMPAT"> T  </i>
  <i type="logical" name="LBERRY"> F  </i>
  <i type="int" name="ICORELEVEL">     0</i>
  <i type="logical" name="LDAU"> F  </i>
  <i type="int" name="I_CONSTRAINED_M">     0</i>
  <separator name="electronic exchange-correlation" >
   <i type="string" name="GGA">--</i>
   <i type="int" name="VOSKOWN">     0</i>
   <i type="logical" name="LHFCALC"> F  </i>
   <i type="string" name="PRECFOCK"></i>
   <i type="logical" name="LSYMGRAD"> F  </i>
   <i type="logical" name="LHFONE"> F  </i>
   <i type="logical" name="LRHFCALC"> F  </i>
   <i type="logical" name="LTHOMAS"> F  </i>
   <i type="logical" name="LMODELHF"> F  </i>
   <i type="logical" name="LFOCKACE"> F  </i>
   <i name="ENCUT4O">     -1.00000000</i>
   <i type="int" name="EXXOEP">     0</i>
   <i type="int" name="FOURORBIT">     0</i>
   <i name="AEXX">      0.00000000</i>
   <i name="HFALPHA">      0.00000000</i>
   <i name="MCALPHA">      0.00000000</i>
   <i name="ALDAX">      1.00000000</i>
   <i name="AGGAX">      1.00000000</i>
   <i name="ALDAC">      1.00000000</i>
   <i name="AGGAC">      1.00000000</i>
   <i type="int" name="NKREDX">     1</i>
   <i type="int" name="NKREDY">     1</i>
   <i type="int" name="NKREDZ">     1</i>
   <i type="logical" name="SHIFTRED"> F  </i>
   <i type="logical" name="ODDONLY"> F  </i>
   <i type="logical" name="EVENONLY"> F  </i>
   <i type="int" name="LMAXFOCK">     0</i>
   <i type="int" name="NMAXFOCKAE">     0</i>
   <i type="logical" name="LFOCKAEDFT"> F  </i>
   <i name="HFSCREEN">      0.00000000</i>
   <i name="HFSCREENC">      0.00000000</i>
   <i type="int" name="NBANDSGWLOW">     0</i>
  </separator>
  <separator name="vdW DFT" >
   <i type="logical" name="LUSE_VDW"> F  </i>
   <i name="Zab_VDW">     -0.84910000</i>
   <i name="PARAM1">      0.12340000</i>
   <i name="PARAM2">      1.00000000</i>
   <i name="PARAM3">      0.00000000</i>
  </separator>
  <separator name="model GW" >
   <i type="int" name="MODEL_GW">     0</i>
   <i name="MODEL_EPS0">      9.36750307</i>
   <i name="MODEL_ALPHA">      1.00000000</i>
  </separator>
  <separator name="linear response parameters" >
   <i type="logical" name="LEPSILON"> F  </i>
   <i type="logical" name="LRPA"> F  </i>
   <i type="logical" name="LNABLA"> F  </i>
   <i type="logical" name="LVEL"> F  </i>
   <i type="int" name="KINTER">     0</i>
   <i name="CSHIFT">      0.10000000</i>
   <i name="OMEGAMAX">     -1.00000000</i>
   <i name="DEG_THRESHOLD">      0.00200000</i>
   <i name="RTIME">     -0.10000000</i>
   <i name="WPLASMAI">      0.00000000</i>
   <v name="DFIELD">      0.00000000      0.00000000      0.00000000</v>
   <v name="WPLASMA">      0.00000000      0.00000000      0.00000000      0.00000000      0.00000000      0.00000000      0.00000000      0.00000000      0.00000000</v>
  </separator>
  <separator name="orbital magnetization" >
   <i type="logical" name="NUCIND"> F  </i>
   <v name="MAGPOS">      0.00000000      0.00000000      0.00000000</v>
   <i type="logical" name="LNICSALL"> T  </i>
   <i type="logical" name="ORBITALMAG"> F  </i>
   <i type="logical" name="LMAGBLOCH"> F  </i>
   <i type="logical" name="LCHIMAG"> F  </i>
   <i type="logical" name="LGAUGE"> T  </i>
   <i type="int" name="MAGATOM">     0</i>
   <v name="MAGDIPOL">      0.00000000      0.00000000      0.00000000</v>
   <v name="AVECCONST">      0.00000000      0.00000000      0.00000000</v>
  </separator>
  <separator name="response functions" >
   <i type="logical" name="LFINITE_TEMPERATURE"> F  </i>
   <i type="logical" name="LADDER"> F  </i>
   <i type="logical" name="LRPAFORCE"> F  </i>
   <i type="logical" name="LFXC"> F  </i>
   <i type="logical" name="LHARTREE"> T  </i>
   <i type="int" name="IBSE">     0</i>
   <v type="int" name="KPOINT">    -1     0     0     0</v>
   <i type="logical" name="LTCTC"> F  </i>
   <i type="logical" name="LTCTE"> F  </i>
   <i type="logical" name="LTETE"> F  </i>
   <i type="logical" name="LTRIPLET"> F  </i>
   <i type="logical" name="LFXCEPS"> F  </i>
   <i type="logical" name="LFXHEG"> F  </i>
   <i type="int" name="NATURALO">     2</i>
   <i type="logical" name="LHOLEGF"> F  </i>
   <i type="logical" name="L2ORDER"> F  </i>
   <i type="logical" name="LDMP1"> F  </i>
   <i type="logical" name="LMP2LT"> F  </i>
   <i type="logical" name="LSMP2LT"> F  </i>
   <i type="logical" name="LGWLF"> F  </i>
   <i name="ENCUTGW">     -2.00000000</i>
   <i name="ENCUTGWSOFT">     -2.00000000</i>
   <i name="ENCUTLF">     -1.00000000</i>
   <i type="logical" name="LESF_SPLINES"> F  </i>
   <i type="int" name="LMAXMP2">    -1</i>
   <i name="SCISSOR">      0.00000000</i>
   <i type="int" name="NOMEGA">     0</i>
   <i type="int" name="NOMEGAR">     0</i>
   <i type="int" name="NBANDSGW">    -1</i>
   <i type="int" name="NBANDSO">    -1</i>
   <i type="int" name="NBANDSV">    -1</i>
   <i type="int" name="NELM">    90</i>
   <i type="int" name="NELMHF">     1</i>
   <i type="int" name="DIM">     3</i>
   <i type="int" name="IESPILON">     4</i>
   <i type="int" name="ANTIRES">     0</i>
   <i name="OMEGAMAX">    -30.00000000</i>
   <i name="OMEGAMIN">    -30.00000000</i>
   <i name="OMEGATL">   -200.00000000</i>
   <i type="int" name="OMEGAGRID">     0</i>
   <i name="CSHIFT">     -0.10000000</i>
   <i type="logical" name="LSELFENERGY"> F  </i>
   <i type="logical" name="LSPECTRAL"> F  </i>
   <i type="logical" name="LSPECTRALGW"> F  </i>
   <i type="logical" name="LSINGLES"> F  </i>
   <i type="logical" name="LFERMIGW"> F  </i>
   <i type="logical" name="ODDONLYGW"> F  </i>
   <i type="logical" name="EVENONLYGW"> F  </i>
   <i type="int" name="NKREDLFX">     1</i>
   <i type="int" name="NKREDLFY">     1</i>
   <i type="int" name="NKREDLFZ">     1</i>
   <i type="int" name="MAXMEM">  2800</i>
   <i type="int" name="TELESCOPE">     0</i>
   <i type="int" name="NTAUPAR">    -1</i>
   <i type="int" name="NOMEGAPAR">    -1</i>
   <i name="DAMP_NEWTON">      0.80000001</i>
   <i name="LAMBDA">      1.00000000</i>
  </separator>
  <separator name="External order field" >
   <i name="OFIELD_KAPPA">      0.00000000</i>
   <v name="OFIELD_K">      0.00000000      0.00000000      0.00000000</v>
   <i name="OFIELD_Q6_NEAR">      0.00000000</i>
   <i name="OFIELD_Q6_FAR">      0.00000000</i>
   <i name="OFIELD_A">      0.00000000</i>
  </separator>
 </parameters>
 <atominfo>
  <atoms>       1 </atoms>
  <types>       1 </types>
  <array name="atoms" >
   <dimension dim="1">ion</dimension>
   <field type="string">element</field>
   <field type="int">atomtype</field>
   <set>
    <rc><c>Si</c><c>   1</c></rc>
   </set>
  </array>
  <array name="atomtypes" >
   <dimension dim="1">type</dimension>
   <field type="int">atomspertype</field>
   <field type="string">element</field>
   <field>mass</field>
   <field>valence</field>
   <field type="string">pseudopotential</field>
   <set>
    <rc><c>   1</c><c>Si</c><c>     28.08500000</c><c>      4.00000000</c><c>  PAW_PBE Si 05Jan2001                  </c></rc>
   </set>
  </array>
 </atominfo>
 <structure name="initialpos" >
  <crystal>
   <varray name="basis" >
    <v>       2.42955382       0.00000000       1.40270238 </v>
    <v>       0.80985127       2.29060507       1.40270238 </v>
    <v>       0.00000000       0.00000000       2.80540683 </v>
   </varray>
   <i name="volume">     15.61250511 </i>
   <varray name="rec_basis" >
    <v>       0.41159821      -0.14552196       0.00000000 </v>
    <v>       0.00000000       0.43656587       0.00000000 </v>
    <v>      -0.20579895      -0.14552185       0.35645454 </v>
   </varray>
  </crystal>
  <varray name="positions" >
   <v>       0.00000000       0.00000000       0.00000000 </v>
  </varray>
 </structure>
 <calculation>
  <scstep>
   <time name="dav">    0.99    0.99</time>
   <time name="total">    1.21    1.21</time>
   <energy>
    <i name="alphaZ">      2.15616460 </i>
    <i name="ewald">   -133.12556801 </i>
    <i name="hartreedc">     -0.78028763 </i>
    <i name="XCdc">     -9.00304500 </i>
    <i name="pawpsdc">     88.12379961 </i>
    <i name="pawaedc">    -70.53051779 </i>
    <i name="eentropy">     -0.00091418 </i>
    <i name="bandstr">     18.53729550 </i>
    <i name="atom">    103.06662367 </i>
    <i name="e_fr_energy">     -1.55644922 </i>
    <i name="e_wo_entrp">     -1.55553504 </i>
    <i name="e_0_energy">     -1.55599213 </i>
   </energy>
  </scstep>
  <scstep>
   <time name="dav">    1.39    1.41</time>
   <time name="total">    1.39    1.41</time>
   <energy>
    <i name="e_fr_energy">     -4.85959830 </i>
    <i name="e_wo_entrp">     -4.85849860 </i>
    <i name="e_0_energy">     -4.85904845 </i>
   </energy>
  </scstep>
  <scstep>
   <time name="dav">    1.04    1.06</time>
   <time name="total">    1.04    1.06</time>
   <energy>
    <i name="e_fr_energy">     -4.88109937 </i>
    <i name="e_wo_entrp">     -4.87996266 </i>
    <i name="e_0_energy">     -4.88053102 </i>
   </energy>
  </scstep>
  <scstep>
   <time name="dav">    1.50    1.52</time>
   <time name="total">    1.50    1.52</time>
   <energy>
    <i name="e_fr_energy">     -4.88112570 </i>
    <i name="e_wo_entrp">     -4.87998891 </i>
    <i name="e_0_energy">     -4.88055730 </i>
   </energy>
  </scstep>
  <scstep>
   <time name="dav">    1.09    1.10</time>
   <time name="total">    1.17    1.19</time>
   <energy>
    <i name="e_fr_energy">     -4.88112570 </i>
    <i name="e_wo_entrp">     -4.87998891 </i>
    <i name="e_0_energy">     -4.88055731 </i>
   </energy>
  </scstep>
  <scstep>
   <time name="dav">    1.08    1.08</time>
   <time name="total">    1.37    1.39</time>
   <energy>
    <i name="e_fr_energy">     -4.86966782 </i>
    <i name="e_wo_entrp">     -4.86855872 </i>
    <i name="e_0_energy">     -4.86911327 </i>
   </energy>
  </scstep>
  <scstep>
   <time name="dav">    1.08    1.08</time>
   <time name="total">    1.37    1.39</time>
   <energy>
    <i name="e_fr_energy">     -4.86328209 </i>
    <i name="e_wo_entrp">     -4.86223425 </i>
    <i name="e_0_energy">     -4.86275817 </i>
   </energy>
  </scstep>
  <scstep>
   <time name="dav">    1.42    1.42</time>
   <time name="total">    1.71    1.72</time>
   <energy>
    <i name="e_fr_energy">     -4.86325767 </i>
    <i name="e_wo_entrp">     -4.86221189 </i>
    <i name="e_0_energy">     -4.86273478 </i>
   </energy>
  </scstep>
  <scstep>
   <time name="dav">    1.14    1.14</time>
   <time name="total">    1.34    1.36</time>
   <energy>
    <i name="alphaZ">      2.15616460 </i>
    <i name="ewald">   -133.12556801 </i>
    <i name="hartreedc">     -0.58178524 </i>
    <i name="XCdc">     -8.97041407 </i>
    <i name="pawpsdc">    252.40240255 </i>
    <i name="pawaedc">   -234.80487989 </i>
    <i name="eentropy">     -0.00104531 </i>
    <i name="bandstr">     14.99524350 </i>
    <i name="atom">    103.06662367 </i>
    <i name="e_fr_energy">     -4.86325820 </i>
    <i name="e_wo_entrp">     -4.86221289 </i>
    <i name="e_0_energy">     -4.86273555 </i>
   </energy>
  </scstep>
  <structure>
   <crystal>
    <varray name="basis" >
     <v>       2.42955382       0.00000000       1.40270238 </v>
     <v>       0.80985127       2.29060507       1.40270238 </v>
     <v>       0.00000000       0.00000000       2.80540683 </v>
    </varray>
    <i name="volume">     15.61250511 </i>
    <varray name="rec_basis" >
     <v>       0.41159821      -0.14552196       0.00000000 </v>
     <v>       0.00000000       0.43656587       0.00000000 </v>
     <v>      -0.20579895      -0.14552185       0.35645454 </v>
    </varray>
   </crystal>
   <varray name="positions" >
    <v>       0.00000000       0.00000000       0.00000000 </v>
   </varray>
  </structure>
  <varray name="forces" >
   <v>       0.00000000       0.00000000      -0.00000000 </v>
  </varray>
  <varray name="stress" >
   <v>     -53.12029393       0.00000000       0.00002263 </v>
   <v>      -0.00000000     -53.12028288       0.00001600 </v>
   <v>       0.00002263       0.00001600     -53.12028334 </v>
  </varray>
  <energy>
   <i name="e_fr_energy">     -4.86325820 </i>
   <i name="e_wo_entrp">     -4.86221289 </i>
   <i name="e_0_energy">     -4.86273555 </i>
  </energy>
  <time name="totalsc">   13.81   14.10</time>
  <eigenvalues>
   <array>
    <dimension dim="1">band</dimension>
    <dimension dim="2">kpoint</dimension>
    <dimension dim="3">spin</dimension>
    <field>eigene</field>
    <field>occ</field>
    <set>
     <set comment="spin 1">
      <set comment="kpoint 1">
       <r>   -4.5729    1.0000 </r>
       <r>   19.4414    0.0000 </r>
       <r>   19.4414    0.0000 </r>
       <r>   19.4414    0.0000 </r>
       <r>   20.8337    0.0000 </r>
       <r>   20.8337    0.0000 </r>
       <r>   20.8337    0.0000 </r>
       <r>   25.9993    0.0000 </r>
      </set>
      <set comment="kpoint 2">
       <r>   -4.4501    1.0000 </r>
       <r>   17.6742    0.0000 </r>
       <r>   18.9703    0.0000 </r>
       <r>   18.9704    0.0000 </r>
       <r>   21.4489    0.0000 </r>
       <r>   21.4489    0.0000 </r>
       <r>   21.5675    0.0000 </r>
       <r>   26.6929    0.0000 </r>
      </set>
      <set comment="kpoint 3">
       <r>   -4.0821    1.0000 </r>
       <r>   15.0426    0.0000 </r>
       <r>   18.2961    0.0000 </r>
       <r>   18.2961    0.0000 </r>
       <r>   21.8047    0.0000 </r>
       <r>   22.4183    0.0000 </r>
       <r>   22.4183    0.0000 </r>
       <r>   25.7411    0.0000 </r>
      </set>
      <set comment="kpoint 4">
       <r>   -3.4704    1.0000 </r>
       <r>   12.3711    0.0000 </r>
       <r>   17.7522    0.0000 </r>
       <r>   17.7522    0.0000 </r>
       <r>   21.7207    0.0000 </r>
       <r>   22.6655    0.0000 </r>
       <r>   22.6656    0.0000 </r>
       <r>   25.6866    0.0000 </r>
      </set>
      <set comment="kpoint 5">
       <r>   -2.6179    1.0000 </r>
       <r>    9.8092    0.0000 </r>
       <r>   17.3780    0.0000 </r>
       <r>   17.3780    0.0000 </r>
       <r>   21.6057    0.0000 </r>
       <r>   21.8958    0.0000 </r>
       <r>   21.8958    0.0000 </r>
       <r>   26.9755    0.0000 </r>
      </set>
      <set comment="kpoint 6">
       <r>   -1.5292    1.0000 </r>
       <r>    7.4145    1.0000 </r>
       <r>   17.1673    0.0000 </r>
       <r>   17.1673    0.0000 </r>
       <r>   20.9900    0.0000 </r>
       <r>   20.9900    0.0000 </r>
       <r>   21.5610    0.0000 </r>
       <r>   25.9469    0.0000 </r>
      </set>
      <set comment="kpoint 7">
       <r>   -0.2140    1.0000 </r>
       <r>    5.2199    1.0000 </r>
       <r>   17.0880    0.0000 </r>
       <r>   17.0880    0.0000 </r>
       <r>   20.2730    0.0000 </r>
       <r>   20.2730    0.0000 </r>
       <r>   21.5981    0.0000 </r>
       <r>   25.1125    0.0000 </r>
      </set>
      <set comment="kpoint 8">
       <r>    1.2734    1.0000 </r>
       <r>    3.2905    1.0000 </r>
       <r>   17.0803    0.0000 </r>
       <r>   17.0803    0.0000 </r>
       <r>   19.8730    0.0000 </r>
       <r>   19.8730    0.0000 </r>
       <r>   21.6600    0.0000 </r>
       <r>   24.6399    0.0000 </r>
      </set>
      <set comment="kpoint 9">
       <r>   -4.4091    1.0000 </r>
       <r>   18.0956    0.0000 </r>
       <r>   18.0956    0.0000 </r>
       <r>   19.0400    0.0000 </r>
       <r>   19.9768    0.0000 </r>
       <r>   22.3808    0.0000 </r>
       <r>   22.3808    0.0000 </r>
       <r>   25.6398    0.0000 </r>
      </set>
      <set comment="kpoint 10">
       <r>   -4.1229    1.0000 </r>
       <r>   15.9865    0.0000 </r>
       <r>   17.3181    0.0000 </r>
       <r>   18.6864    0.0000 </r>
       <r>   20.2467    0.0000 </r>
       <r>   23.0518    0.0000 </r>
       <r>   23.4390    0.0000 </r>
       <r>   24.2678    0.0000 </r>
      </set>
      <set comment="kpoint 11">
       <r>   -3.5925    1.0000 </r>
       <r>   13.3390    0.0000 </r>
       <r>   16.7174    0.0000 </r>
       <r>   18.1035    0.0000 </r>
       <r>   20.8804    0.0000 </r>
       <r>   22.9069    0.0000 </r>
       <r>   23.7593    0.0000 </r>
       <r>   24.0285    0.0000 </r>
      </set>
      <set comment="kpoint 12">
       <r>   -2.8202    1.0000 </r>
       <r>   10.7418    0.0000 </r>
       <r>   16.3125    0.0000 </r>
       <r>   17.5892    0.0000 </r>
       <r>   20.4999    0.0000 </r>
       <r>   22.6370    0.0000 </r>
       <r>   23.4822    0.0000 </r>
       <r>   24.7115    0.0000 </r>
      </set>
      <set comment="kpoint 13">
       <r>   -1.8100    1.0000 </r>
       <r>    8.2916    1.0000 </r>
       <r>   16.1069    0.0000 </r>
       <r>   17.1383    0.0000 </r>
       <r>   19.7588    0.0000 </r>
       <r>   22.5382    0.0000 </r>
       <r>   22.5640    0.0000 </r>
       <r>   26.2267    0.0000 </r>
      </set>
      <set comment="kpoint 14">
       <r>   -0.5690    1.0000 </r>
       <r>    6.0293    1.0000 </r>
       <r>   16.0970    0.0000 </r>
       <r>   16.6861    0.0000 </r>
       <r>   19.2832    0.0000 </r>
       <r>   21.6546    0.0000 </r>
       <r>   22.5411    0.0000 </r>
       <r>   26.2636    0.0000 </r>
      </set>
      <set comment="kpoint 15">
       <r>    0.8777    1.0000 </r>
       <r>    3.9949    1.0000 </r>
       <r>   16.2175    0.0000 </r>
       <r>   16.2716    0.0000 </r>
       <r>   19.2077    0.0000 </r>
       <r>   20.9537    0.0000 </r>
       <r>   22.5285    0.0000 </r>
       <r>   25.7871    0.0000 </r>
      </set>
      <set comment="kpoint 16">
       <r>    1.8102    1.0000 </r>
       <r>    2.9151    1.0000 </r>
       <r>   15.8010    0.0000 </r>
       <r>   16.6078    0.0000 </r>
       <r>   19.4935    0.0000 </r>
       <r>   20.4920    0.0000 </r>
       <r>   22.4680    0.0000 </r>
       <r>   25.7034    0.0000 </r>
      </set>
      <set comment="kpoint 17">
       <r>    0.3769    1.0000 </r>
       <r>    4.6429    1.0000 </r>
       <r>   15.5112    0.0000 </r>
       <r>   17.0635    0.0000 </r>
       <r>   20.0716    0.0000 </r>
       <r>   20.3202    0.0000 </r>
       <r>   22.3604    0.0000 </r>
       <r>   26.0441    0.0000 </r>
      </set>
      <set comment="kpoint 18">
       <r>   -1.0076    1.0000 </r>
       <r>    6.7606    1.0000 </r>
       <r>   15.3914    0.0000 </r>
       <r>   17.5753    0.0000 </r>
       <r>   20.4933    0.0000 </r>
       <r>   20.8882    0.0000 </r>
       <r>   22.2727    0.0000 </r>
       <r>   26.6963    0.0000 </r>
      </set>
      <set comment="kpoint 19">
       <r>   -2.1729    1.0000 </r>
       <r>    9.0890    0.9962 </r>
       <r>   15.4629    0.0000 </r>
       <r>   18.0898    0.0000 </r>
       <r>   21.0248    0.0000 </r>
       <r>   21.8842    0.0000 </r>
       <r>   22.2547    0.0000 </r>
       <r>   26.2720    0.0000 </r>
      </set>
      <set comment="kpoint 20">
       <r>   -3.1044    1.0000 </r>
       <r>   11.5940    0.0000 </r>
       <r>   15.7346    0.0000 </r>
       <r>   18.6107    0.0000 </r>
       <r>   21.7355    0.0000 </r>
       <r>   22.2768    0.0000 </r>
       <r>   22.9358    0.0000 </r>
       <r>   24.7220    0.0000 </r>
      </set>
      <set comment="kpoint 21">
       <r>   -3.7963    1.0000 </r>
       <r>   14.2256    0.0000 </r>
       <r>   16.2072    0.0000 </r>
       <r>   19.1525    0.0000 </r>
       <r>   21.7864    0.0000 </r>
       <r>   22.2371    0.0000 </r>
       <r>   23.4498    0.0000 </r>
       <r>   24.3778    0.0000 </r>
      </set>
      <set comment="kpoint 22">
       <r>   -4.2455    1.0000 </r>
       <r>   16.8190    0.0000 </r>
       <r>   16.9104    0.0000 </r>
       <r>   19.4979    0.0000 </r>
       <r>   21.1501    0.0000 </r>
       <r>   21.9006    0.0000 </r>
       <r>   22.8180    0.0000 </r>
       <r>   25.4227    0.0000 </r>
      </set>
      <set comment="kpoint 23">
       <r>   -3.9186    1.0000 </r>
       <r>   16.4668    0.0000 </r>
       <r>   16.4668    0.0000 </r>
       <r>   17.9750    0.0000 </r>
       <r>   18.4242    0.0000 </r>
       <r>   22.5673    0.0000 </r>
       <r>   24.5862    0.0000 </r>
       <r>   24.5862    0.0000 </r>
      </set>
      <set comment="kpoint 24">
       <r>   -3.4700    1.0000 </r>
       <r>   14.4349    0.0000 </r>
       <r>   15.7995    0.0000 </r>
       <r>   17.3816    0.0000 </r>
       <r>   18.7082    0.0000 </r>
       <r>   21.3122    0.0000 </r>
       <r>   25.2704    0.0000 </r>
       <r>   25.4930    0.0000 </r>
      </set>
      <set comment="kpoint 25">
       <r>   -2.7790    1.0000 </r>
       <r>   11.8670    0.0000 </r>
       <r>   15.3333    0.0000 </r>
       <r>   16.6624    0.0000 </r>
       <r>   18.7843    0.0000 </r>
       <r>   21.4790    0.0000 </r>
       <r>   25.3095    0.0000 </r>
       <r>   25.4461    0.0000 </r>
      </set>
      <set comment="kpoint 26">
       <r>   -1.8489    1.0000 </r>
       <r>    9.3822    0.0000 </r>
       <r>   15.0737    0.0000 </r>
       <r>   15.8906    0.0000 </r>
       <r>   18.2616    0.0000 </r>
       <r>   22.7795    0.0000 </r>
       <r>   24.4411    0.0000 </r>
       <r>   25.6199    0.0000 </r>
      </set>
      <set comment="kpoint 27">
       <r>   -0.6852    1.0000 </r>
       <r>    7.0635    1.0000 </r>
       <r>   15.0215    0.0000 </r>
       <r>   15.0819    0.0000 </r>
       <r>   17.9851    0.0000 </r>
       <r>   23.5241    0.0000 </r>
       <r>   23.8706    0.0000 </r>
       <r>   26.3460    0.0000 </r>
      </set>
      <set comment="kpoint 28">
       <r>    0.6977    1.0000 </r>
       <r>    4.9512    1.0000 </r>
       <r>   14.3307    0.0000 </r>
       <r>   15.1742    0.0000 </r>
       <r>   18.0388    0.0000 </r>
       <r>   22.7360    0.0000 </r>
       <r>   24.1855    0.0000 </r>
       <r>   27.8629    0.0000 </r>
      </set>
      <set comment="kpoint 29">
       <r>    2.1324    1.0000 </r>
       <r>    3.2232    1.0000 </r>
       <r>   13.7176    0.0000 </r>
       <r>   15.5258    0.0000 </r>
       <r>   18.3798    0.0000 </r>
       <r>   22.1366    0.0000 </r>
       <r>   24.1120    0.0000 </r>
       <r>   28.1196    0.0000 </r>
      </set>
      <set comment="kpoint 30">
       <r>    1.1974    1.0000 </r>
       <r>    4.3048    1.0000 </r>
       <r>   13.2854    0.0000 </r>
       <r>   16.0646    0.0000 </r>
       <r>   18.9742    0.0000 </r>
       <r>   21.7558    0.0000 </r>
       <r>   23.9228    0.0000 </r>
       <r>   28.3729    0.0000 </r>
      </set>
      <set comment="kpoint 31">
       <r>   -0.2478    1.0000 </r>
       <r>    6.3345    1.0000 </r>
       <r>   13.0549    0.0000 </r>
       <r>   16.7689    0.0000 </r>
       <r>   19.7969    0.0000 </r>
       <r>   21.6162    0.0000 </r>
       <r>   23.7331    0.0000 </r>
       <r>   27.8177    0.0000 </r>
      </set>
      <set comment="kpoint 32">
       <r>   -1.4871    1.0000 </r>
       <r>    8.5876    1.0000 </r>
       <r>   13.0363    0.0000 </r>
       <r>   17.5971    0.0000 </r>
       <r>   20.8189    0.0000 </r>
       <r>   21.7388    0.0000 </r>
       <r>   23.5740    0.0000 </r>
       <r>   25.7741    0.0000 </r>
      </set>
      <set comment="kpoint 33">
       <r>   -2.4958    1.0000 </r>
       <r>   11.0177    0.0000 </r>
       <r>   13.2376    0.0000 </r>
       <r>   18.4662    0.0000 </r>
       <r>   21.9819    0.0000 </r>
       <r>   22.1090    0.0000 </r>
       <r>   23.3782    0.0000 </r>
       <r>   24.0154    0.0000 </r>
      </set>
      <set comment="kpoint 34">
       <r>   -3.2668    1.0000 </r>
       <r>   13.4262    0.0000 </r>
       <r>   13.8083    0.0000 </r>
       <r>   19.1755    0.0000 </r>
       <r>   22.0948    0.0000 </r>
       <r>   22.9535    0.0000 </r>
       <r>   23.0960    0.0000 </r>
       <r>   23.3962    0.0000 </r>
      </set>
      <set comment="kpoint 35">
       <r>   -3.1035    1.0000 </r>
       <r>   15.0638    0.0000 </r>
       <r>   15.0638    0.0000 </r>
       <r>   16.3132    0.0000 </r>
       <r>   16.9332    0.0000 </r>
       <r>   19.6996    0.0000 </r>
       <r>   26.8621    0.0000 </r>
       <r>   26.8621    0.0000 </r>
      </set>
      <set comment="kpoint 36">
       <r>   -2.4944    1.0000 </r>
       <r>   13.1141    0.0000 </r>
       <r>   14.5298    0.0000 </r>
       <r>   15.3876    0.0000 </r>
       <r>   17.1107    0.0000 </r>
       <r>   19.1491    0.0000 </r>
       <r>   27.2394    0.0000 </r>
       <r>   27.5629    0.0000 </r>
      </set>
      <set comment="kpoint 37">
       <r>   -1.6456    1.0000 </r>
       <r>   10.6604    0.0000 </r>
       <r>   14.2045    0.0000 </r>
       <r>   14.3038    0.0000 </r>
       <r>   17.0132    0.0000 </r>
       <r>   20.2565    0.0000 </r>
       <r>   26.5287    0.0000 </r>
       <r>   27.7085    0.0000 </r>
      </set>
      <set comment="kpoint 38">
       <r>   -0.5615    1.0000 </r>
       <r>    8.3085    1.0000 </r>
       <r>   13.2472    0.0000 </r>
       <r>   14.0899    0.0000 </r>
       <r>   16.8558    0.0000 </r>
       <r>   22.0362    0.0000 </r>
       <r>   25.6310    0.0000 </r>
       <r>   27.6303    0.0000 </r>
      </set>
      <set comment="kpoint 39">
       <r>    0.7484    1.0000 </r>
       <r>    6.1364    1.0000 </r>
       <r>   12.3223    0.0000 </r>
       <r>   14.1858    0.0000 </r>
       <r>   16.9275    0.0000 </r>
       <r>   23.9144    0.0000 </r>
       <r>   24.8067    0.0000 </r>
       <r>   27.5416    0.0000 </r>
      </set>
      <set comment="kpoint 40">
       <r>    2.2335    1.0000 </r>
       <r>    4.2164    1.0000 </r>
       <r>   11.5788    0.0000 </r>
       <r>   14.4897    0.0000 </r>
       <r>   17.2463    0.0000 </r>
       <r>   24.1394    0.0000 </r>
       <r>   25.3030    0.0000 </r>
       <r>   27.9095    0.0000 </r>
      </set>
      <set comment="kpoint 41">
       <r>    2.2312    1.0000 </r>
       <r>    4.2184    1.0000 </r>
       <r>   11.0402    0.0000 </r>
       <r>   14.9964    0.0000 </r>
       <r>   17.8042    0.0000 </r>
       <r>   23.6650    0.0000 </r>
       <r>   25.5960    0.0000 </r>
       <r>   29.0401    0.0000 </r>
      </set>
      <set comment="kpoint 42">
       <r>    0.7460    1.0000 </r>
       <r>    6.1368    1.0000 </r>
       <r>   10.7195    0.0000 </r>
       <r>   15.6958    0.0000 </r>
       <r>   18.5890    0.0000 </r>
       <r>   23.4024    0.0000 </r>
       <r>   25.3936    0.0000 </r>
       <r>   27.6523    0.0000 </r>
      </set>
      <set comment="kpoint 43">
       <r>   -0.5635    1.0000 </r>
       <r>    8.2986    1.0000 </r>
       <r>   10.6306    0.0000 </r>
       <r>   16.5663    0.0000 </r>
       <r>   19.5822    0.0000 </r>
       <r>   23.3639    0.0000 </r>
       <r>   25.0188    0.0000 </r>
       <r>   25.5124    0.0000 </r>
      </set>
      <set comment="kpoint 44">
       <r>   -1.6473    1.0000 </r>
       <r>   10.4269    0.0000 </r>
       <r>   10.9856    0.0000 </r>
       <r>   17.5534    0.0000 </r>
       <r>   20.7469    0.0000 </r>
       <r>   23.5070    0.0000 </r>
       <r>   23.6531    0.0000 </r>
       <r>   24.3781    0.0000 </r>
      </set>
      <set comment="kpoint 45">
       <r>   -1.9676    1.0000 </r>
       <r>   13.8841    0.0000 </r>
       <r>   13.9266    0.0000 </r>
       <r>   13.9266    0.0000 </r>
       <r>   15.6842    0.0000 </r>
       <r>   17.7686    0.0000 </r>
       <r>   29.0609    0.0000 </r>
       <r>   29.0610    0.0000 </r>
      </set>
      <set comment="kpoint 46">
       <r>   -1.2009    1.0000 </r>
       <r>   11.9616    0.0000 </r>
       <r>   12.7773    0.0000 </r>
       <r>   13.5323    0.0000 </r>
       <r>   15.8986    0.0000 </r>
       <r>   17.8613    0.0000 </r>
       <r>   28.7065    0.0000 </r>
       <r>   29.7071    0.0000 </r>
      </set>
      <set comment="kpoint 47">
       <r>   -0.1980    1.0000 </r>
       <r>    9.7075    0.0000 </r>
       <r>   11.5004    0.0000 </r>
       <r>   13.3498    0.0000 </r>
       <r>   15.9335    0.0000 </r>
       <r>   19.3871    0.0000 </r>
       <r>   27.8814    0.0000 </r>
       <r>   29.7209    0.0000 </r>
      </set>
      <set comment="kpoint 48">
       <r>    1.0340    1.0000 </r>
       <r>    7.5197    1.0000 </r>
       <r>   10.4278    0.0000 </r>
       <r>   13.3799    0.0000 </r>
       <r>   16.0013    0.0000 </r>
       <r>   21.4136    0.0000 </r>
       <r>   27.0572    0.0000 </r>
       <r>   29.3815    0.0000 </r>
      </set>
      <set comment="kpoint 49">
       <r>    2.4722    1.0000 </r>
       <r>    5.5198    1.0000 </r>
       <r>    9.5691    0.0000 </r>
       <r>   13.6217    0.0000 </r>
       <r>   16.2764    0.0000 </r>
       <r>   23.6064    0.0000 </r>
       <r>   26.3487    0.0000 </r>
       <r>   28.8780    0.0000 </r>
      </set>
      <set comment="kpoint 50">
       <r>    3.4084    1.0000 </r>
       <r>    4.4413    1.0000 </r>
       <r>    8.9339    1.0000 </r>
       <r>   14.0722    0.0000 </r>
       <r>   16.7801    0.0000 </r>
       <r>   25.7287    0.0000 </r>
       <r>   25.8036    0.0000 </r>
       <r>   28.3363    0.0000 </r>
      </set>
      <set comment="kpoint 51">
       <r>    1.9663    1.0000 </r>
       <r>    6.1572    1.0000 </r>
       <r>    8.5377    1.0000 </r>
       <r>   14.7255    0.0000 </r>
       <r>   17.5100    0.0000 </r>
       <r>   25.4325    0.0000 </r>
       <r>   26.9525    0.0000 </r>
       <r>   27.7394    0.0000 </r>
      </set>
      <set comment="kpoint 52">
       <r>    0.5921    1.0000 </r>
       <r>    7.9816    1.0000 </r>
       <r>    8.6197    1.0000 </r>
       <r>   15.5682    0.0000 </r>
       <r>   18.4535    0.0000 </r>
       <r>   25.0234    0.0000 </r>
       <r>   25.7906    0.0000 </r>
       <r>   26.2891    0.0000 </r>
      </set>
      <set comment="kpoint 53">
       <r>   -0.5167    1.0000 </r>
       <r>   11.0520    0.0000 </r>
       <r>   13.0680    0.0000 </r>
       <r>   13.0680    0.0000 </r>
       <r>   14.7287    0.0000 </r>
       <r>   16.6294    0.0000 </r>
       <r>   30.6284    0.0000 </r>
       <r>   31.0842    0.0000 </r>
      </set>
      <set comment="kpoint 54">
       <r>    0.4037    1.0000 </r>
       <r>    9.6769    0.0000 </r>
       <r>   11.4553    0.0000 </r>
       <r>   12.8158    0.0000 </r>
       <r>   15.0785    0.0000 </r>
       <r>   17.0493    0.0000 </r>
       <r>   30.1436    0.0000 </r>
       <r>   31.6002    0.0000 </r>
      </set>
      <set comment="kpoint 55">
       <r>    1.5546    1.0000 </r>
       <r>    8.3985    1.0000 </r>
       <r>    9.3999    0.0000 </r>
       <r>   12.7771    0.0000 </r>
       <r>   15.2662    0.0000 </r>
       <r>   18.8104    0.0000 </r>
       <r>   29.3842    0.0000 </r>
       <r>   31.3970    0.0000 </r>
      </set>
      <set comment="kpoint 56">
       <r>    2.9221    1.0000 </r>
       <r>    6.8881    1.0000 </r>
       <r>    7.9083    1.0000 </r>
       <r>   12.9518    0.0000 </r>
       <r>   15.5098    0.0000 </r>
       <r>   21.0223    0.0000 </r>
       <r>   28.6617    0.0000 </r>
       <r>   30.7637    0.0000 </r>
      </set>
      <set comment="kpoint 57">
       <r>    4.3641    1.0000 </r>
       <r>    5.2660    1.0000 </r>
       <r>    7.0836    1.0000 </r>
       <r>   13.3381    0.0000 </r>
       <r>   15.9564    0.0000 </r>
       <r>   23.4083    0.0000 </r>
       <r>   28.0273    0.0000 </r>
       <r>   29.8480    0.0000 </r>
      </set>
      <set comment="kpoint 58">
       <r>    3.3907    1.0000 </r>
       <r>    6.1337    1.0000 </r>
       <r>    6.8360    1.0000 </r>
       <r>   13.9322    0.0000 </r>
       <r>   16.6249    0.0000 </r>
       <r>   25.7908    0.0000 </r>
       <r>   27.2453    0.0000 </r>
       <r>   28.4278    0.0000 </r>
      </set>
      <set comment="kpoint 59">
       <r>    1.2407    1.0000 </r>
       <r>    8.2580    1.0000 </r>
       <r>   12.4934    0.0000 </r>
       <r>   12.4934    0.0000 </r>
       <r>   14.0854    0.0000 </r>
       <r>   15.9473    0.0000 </r>
       <r>   31.7863    0.0000 </r>
       <r>   32.8478    0.0000 </r>
      </set>
      <set comment="kpoint 60">
       <r>    2.3075    1.0000 </r>
       <r>    7.0019    1.0000 </r>
       <r>   10.9739    0.0000 </r>
       <r>   12.3847    0.0000 </r>
       <r>   14.5935    0.0000 </r>
       <r>   16.5791    0.0000 </r>
       <r>   31.5251    0.0000 </r>
       <r>   33.1230    0.0000 </r>
      </set>
      <set comment="kpoint 61">
       <r>    3.5898    1.0000 </r>
       <r>    5.9555    1.0000 </r>
       <r>    8.9587    1.0000 </r>
       <r>   12.4901    0.0000 </r>
       <r>   14.9388    0.0000 </r>
       <r>   18.5213    0.0000 </r>
       <r>   30.8506    0.0000 </r>
       <r>   32.5351    0.0000 </r>
      </set>
      <set comment="kpoint 62">
       <r>    4.8978    1.0000 </r>
       <r>    5.2496    1.0000 </r>
       <r>    7.1438    1.0000 </r>
       <r>   12.8087    0.0000 </r>
       <r>   15.3475    0.0000 </r>
       <r>   20.8896    0.0000 </r>
       <r>   29.8850    0.0000 </r>
       <r>   31.3687    0.0000 </r>
      </set>
      <set comment="kpoint 63">
       <r>    3.2833    1.0000 </r>
       <r>    5.6757    1.0000 </r>
       <r>   12.2056    0.0000 </r>
       <r>   12.2056    0.0000 </r>
       <r>   13.7623    0.0000 </r>
       <r>   15.6177    0.0000 </r>
       <r>   32.6115    0.0000 </r>
       <r>   34.0639    0.0000 </r>
      </set>
      <set comment="kpoint 64">
       <r>    4.2790    1.0000 </r>
       <r>    4.7620    1.0000 </r>
       <r>   10.8188    0.0000 </r>
       <r>   12.2409    0.0000 </r>
       <r>   14.4323    0.0000 </r>
       <r>   16.4239    0.0000 </r>
       <r>   32.2837    0.0000 </r>
       <r>   33.8143    0.0000 </r>
      </set>
      <set comment="kpoint 65">
       <r>   -3.7554    1.0000 </r>
       <r>   15.1446    0.0000 </r>
       <r>   15.3577    0.0000 </r>
       <r>   18.8223    0.0000 </r>
       <r>   19.9913    0.0000 </r>
       <r>   22.8726    0.0000 </r>
       <r>   23.9139    0.0000 </r>
       <r>   24.2330    0.0000 </r>
      </set>
      <set comment="kpoint 66">
       <r>   -3.1447    1.0000 </r>
       <r>   12.6346    0.0000 </r>
       <r>   14.7230    0.0000 </r>
       <r>   18.2945    0.0000 </r>
       <r>   20.3951    0.0000 </r>
       <r>   22.3247    0.0000 </r>
       <r>   24.1474    0.0000 </r>
       <r>   24.3693    0.0000 </r>
      </set>
      <set comment="kpoint 67">
       <r>   -2.2935    1.0000 </r>
       <r>   10.0984    0.0000 </r>
       <r>   14.3819    0.0000 </r>
       <r>   17.5240    0.0000 </r>
       <r>   20.0221    0.0000 </r>
       <r>   22.7144    0.0000 </r>
       <r>   23.6782    0.0000 </r>
       <r>   24.7980    0.0000 </r>
      </set>
      <set comment="kpoint 68">
       <r>   -1.2062    1.0000 </r>
       <r>    7.7155    1.0000 </r>
       <r>   14.2470    0.0000 </r>
       <r>   16.7036    0.0000 </r>
       <r>   19.6668    0.0000 </r>
       <r>   22.0676    0.0000 </r>
       <r>   23.7906    0.0000 </r>
       <r>   26.1494    0.0000 </r>
      </set>
      <set comment="kpoint 69">
       <r>    0.1072    1.0000 </r>
       <r>    5.5275    1.0000 </r>
       <r>   14.3043    0.0000 </r>
       <r>   15.9477    0.0000 </r>
       <r>   19.5748    0.0000 </r>
       <r>   21.2782    0.0000 </r>
       <r>   23.8871    0.0000 </r>
       <r>   27.6040    0.0000 </r>
      </set>
      <set comment="kpoint 70">
       <r>    1.5940    1.0000 </r>
       <r>    3.6008    1.0000 </r>
       <r>   14.4867    0.0000 </r>
       <r>   15.3988    0.0000 </r>
       <r>   19.6576    0.0000 </r>
       <r>   20.7419    0.0000 </r>
       <r>   23.9449    0.0000 </r>
       <r>   27.4241    0.0000 </r>
      </set>
      <set comment="kpoint 71">
       <r>   -2.9411    1.0000 </r>
       <r>   13.6842    0.0000 </r>
       <r>   13.9544    0.0000 </r>
       <r>   17.0293    0.0000 </r>
       <r>   18.5876    0.0000 </r>
       <r>   20.3618    0.0000 </r>
       <r>   25.7448    0.0000 </r>
       <r>   26.3576    0.0000 </r>
      </set>
      <set comment="kpoint 72">
       <r>   -2.1712    1.0000 </r>
       <r>   11.2945    0.0000 </r>
       <r>   13.4217    0.0000 </r>
       <r>   16.0485    0.0000 </r>
       <r>   18.7870    0.0000 </r>
       <r>   20.8798    0.0000 </r>
       <r>   25.1132    0.0000 </r>
       <r>   26.8037    0.0000 </r>
      </set>
      <set comment="kpoint 73">
       <r>   -1.1639    1.0000 </r>
       <r>    8.8817    1.0000 </r>
       <r>   13.1958    0.0000 </r>
       <r>   14.9990    0.0000 </r>
       <r>   18.6068    0.0000 </r>
       <r>   22.3823    0.0000 </r>
       <r>   24.2889    0.0000 </r>
       <r>   26.9266    0.0000 </r>
      </set>
      <set comment="kpoint 74">
       <r>    0.0737    1.0000 </r>
       <r>    6.6375    1.0000 </r>
       <r>   13.1079    0.0000 </r>
       <r>   14.1388    0.0000 </r>
       <r>   18.5937    0.0000 </r>
       <r>   22.9494    0.0000 </r>
       <r>   24.5656    0.0000 </r>
       <r>   27.1348    0.0000 </r>
      </set>
      <set comment="kpoint 75">
       <r>    1.5174    1.0000 </r>
       <r>    4.6126    1.0000 </r>
       <r>   12.8552    0.0000 </r>
       <r>   13.8314    0.0000 </r>
       <r>   18.8037    0.0000 </r>
       <r>   22.3527    0.0000 </r>
       <r>   25.5525    0.0000 </r>
       <r>   27.9458    0.0000 </r>
      </set>
      <set comment="kpoint 76">
       <r>    2.4532    1.0000 </r>
       <r>    3.5308    1.0000 </r>
       <r>   12.3867    0.0000 </r>
       <r>   14.1511    0.0000 </r>
       <r>   19.2249    0.0000 </r>
       <r>   21.8443    0.0000 </r>
       <r>   25.7266    0.0000 </r>
       <r>   29.0361    0.0000 </r>
      </set>
      <set comment="kpoint 77">
       <r>    1.0166    1.0000 </r>
       <r>    5.2587    1.0000 </r>
       <r>   12.0319    0.0000 </r>
       <r>   14.7736    0.0000 </r>
       <r>   19.8208    0.0000 </r>
       <r>   21.5625    0.0000 </r>
       <r>   25.5077    0.0000 </r>
       <r>   27.9500    0.0000 </r>
      </set>
      <set comment="kpoint 78">
       <r>   -0.3645    1.0000 </r>
       <r>    7.3632    1.0000 </r>
       <r>   11.8736    0.0000 </r>
       <r>   15.6072    0.0000 </r>
       <r>   20.4851    0.0000 </r>
       <r>   21.6015    0.0000 </r>
       <r>   24.8173    0.0000 </r>
       <r>   26.4875    0.0000 </r>
      </set>
      <set comment="kpoint 79">
       <r>   -1.5263    1.0000 </r>
       <r>    9.6628    0.0000 </r>
       <r>   11.9356    0.0000 </r>
       <r>   16.6016    0.0000 </r>
       <r>   21.0126    0.0000 </r>
       <r>   21.9873    0.0000 </r>
       <r>   23.5225    0.0000 </r>
       <r>   25.8335    0.0000 </r>
      </set>
      <set comment="kpoint 80">
       <r>   -2.4549    1.0000 </r>
       <r>   11.9351    0.0000 </r>
       <r>   12.4012    0.0000 </r>
       <r>   17.6500    0.0000 </r>
       <r>   21.1430    0.0000 </r>
       <r>   21.7403    0.0000 </r>
       <r>   23.4974    0.0000 </r>
       <r>   25.2605    0.0000 </r>
      </set>
      <set comment="kpoint 81">
       <r>   -1.8065    1.0000 </r>
       <r>   12.4961    0.0000 </r>
       <r>   12.7226    0.0000 </r>
       <r>   14.4324    0.0000 </r>
       <r>   17.4014    0.0000 </r>
       <r>   18.7685    0.0000 </r>
       <r>   27.1020    0.0000 </r>
       <r>   28.7526    0.0000 </r>
      </set>
      <set comment="kpoint 82">
       <r>   -0.8805    1.0000 </r>
       <r>   10.2233    0.0000 </r>
       <r>   12.2514    0.0000 </r>
       <r>   13.3183    0.0000 </r>
       <r>   17.6541    0.0000 </r>
       <r>   19.8671    0.0000 </r>
       <r>   26.3082    0.0000 </r>
       <r>   29.1770    0.0000 </r>
      </set>
      <set comment="kpoint 83">
       <r>    0.2781    1.0000 </r>
       <r>    7.9532    1.0000 </r>
       <r>   11.7178    0.0000 </r>
       <r>   12.6974    0.0000 </r>
       <r>   17.6703    0.0000 </r>
       <r>   21.7400    0.0000 </r>
       <r>   25.4638    0.0000 </r>
       <r>   29.0937    0.0000 </r>
      </set>
      <set comment="kpoint 84">
       <r>    1.6553    1.0000 </r>
       <r>    5.8647    1.0000 </r>
       <r>   10.9461    0.0000 </r>
       <r>   12.7287    0.0000 </r>
       <r>   17.8567    0.0000 </r>
       <r>   23.5912    0.0000 </r>
       <r>   24.9426    0.0000 </r>
       <r>   28.7673    0.0000 </r>
      </set>
      <set comment="kpoint 85">
       <r>    3.0938    1.0000 </r>
       <r>    4.1390    1.0000 </r>
       <r>   10.2816    0.0000 </r>
       <r>   13.0848    0.0000 </r>
       <r>   18.2550    0.0000 </r>
       <r>   23.7924    0.0000 </r>
       <r>   26.1713    0.0000 </r>
       <r>   28.2146    0.0000 </r>
      </set>
      <set comment="kpoint 86">
       <r>    2.1507    1.0000 </r>
       <r>    5.2246    1.0000 </r>
       <r>    9.8165    0.0000 </r>
       <r>   13.6792    0.0000 </r>
       <r>   18.8630    0.0000 </r>
       <r>   23.4401    0.0000 </r>
       <r>   26.8497    0.0000 </r>
       <r>   27.7425    0.0000 </r>
      </set>
      <set comment="kpoint 87">
       <r>    0.7108    1.0000 </r>
       <r>    7.2262    1.0000 </r>
       <r>    9.5802    0.0000 </r>
       <r>   14.4869    0.0000 </r>
       <r>   19.6622    0.0000 </r>
       <r>   23.2256    0.0000 </r>
       <r>   25.1336    0.0000 </r>
       <r>   27.7014    0.0000 </r>
      </set>
      <set comment="kpoint 88">
       <r>   -0.5226    1.0000 </r>
       <r>    9.2073    0.2508 </r>
       <r>    9.8016    0.0000 </r>
       <r>   15.4826    0.0000 </r>
       <r>   20.5972    0.0000 </r>
       <r>   22.9250    0.0000 </r>
       <r>   23.5246    0.0000 </r>
       <r>   26.9968    0.0000 </r>
      </set>
      <set comment="kpoint 89">
       <r>   -0.3572    1.0000 </r>
       <r>   11.0267    0.0000 </r>
       <r>   11.5974    0.0000 </r>
       <r>   12.3234    0.0000 </r>
       <r>   16.4920    0.0000 </r>
       <r>   17.7765    0.0000 </r>
       <r>   28.4945    0.0000 </r>
       <r>   30.9419    0.0000 </r>
      </set>
      <set comment="kpoint 90">
       <r>    0.7201    1.0000 </r>
       <r>    9.3197    0.0001 </r>
       <r>   10.1982    0.0000 </r>
       <r>   11.8725    0.0000 </r>
       <r>   16.8785    0.0000 </r>
       <r>   19.1555    0.0000 </r>
       <r>   27.7263    0.0000 </r>
       <r>   31.1736    0.0000 </r>
      </set>
      <set comment="kpoint 91">
       <r>    2.0216    1.0000 </r>
       <r>    7.2898    1.0000 </r>
       <r>    9.1395    0.8937 </r>
       <r>   11.9243    0.0000 </r>
       <r>   17.0606    0.0000 </r>
       <r>   21.2466    0.0000 </r>
       <r>   26.9608    0.0000 </r>
       <r>   30.6205    0.0000 </r>
      </set>
      <set comment="kpoint 92">
       <r>    3.5011    1.0000 </r>
       <r>    5.4115    1.0000 </r>
       <r>    8.3378    1.0000 </r>
       <r>   12.2339    0.0000 </r>
       <r>   17.4130    0.0000 </r>
       <r>   23.5001    0.0000 </r>
       <r>   26.3526    0.0000 </r>
       <r>   29.4083    0.0000 </r>
      </set>
      <set comment="kpoint 93">
       <r>    3.4887    1.0000 </r>
       <r>    5.4185    1.0000 </r>
       <r>    7.7821    1.0000 </r>
       <r>   12.7728    0.0000 </r>
       <r>   17.9724    0.0000 </r>
       <r>   25.2689    0.0000 </r>
       <r>   26.3580    0.0000 </r>
       <r>   27.5774    0.0000 </r>
      </set>
      <set comment="kpoint 94">
       <r>    2.0101    1.0000 </r>
       <r>    7.0587    1.0000 </r>
       <r>    7.7114    1.0000 </r>
       <r>   13.5289    0.0000 </r>
       <r>   18.7337    0.0000 </r>
       <r>   25.2684    0.0000 </r>
       <r>   25.3068    0.0000 </r>
       <r>   28.2128    0.0000 </r>
      </set>
      <set comment="kpoint 95">
       <r>    1.3980    1.0000 </r>
       <r>    8.3811    1.0000 </r>
       <r>   10.9953    0.0000 </r>
       <r>   11.5574    0.0000 </r>
       <r>   15.8794    0.0000 </r>
       <r>   17.1542    0.0000 </r>
       <r>   29.9887    0.0000 </r>
       <r>   32.8130    0.0000 </r>
      </set>
      <set comment="kpoint 96">
       <r>    2.6180    1.0000 </r>
       <r>    7.2536    1.0000 </r>
       <r>    9.1500    0.8285 </r>
       <r>   11.3681    0.0000 </r>
       <r>   16.4166    0.0000 </r>
       <r>   18.7271    0.0000 </r>
       <r>   29.3150    0.0000 </r>
       <r>   32.0805    0.0000 </r>
      </set>
      <set comment="kpoint 97">
       <r>    4.0392    1.0000 </r>
       <r>    6.2459    1.0000 </r>
       <r>    7.3311    1.0000 </r>
       <r>   11.6054    0.0000 </r>
       <r>   16.7564    0.0000 </r>
       <r>   20.9888    0.0000 </r>
       <r>   28.6476    0.0000 </r>
       <r>   30.2945    0.0000 </r>
      </set>
      <set comment="kpoint 98">
       <r>    4.9180    1.0000 </r>
       <r>    5.5160    1.0000 </r>
       <r>    6.3957    1.0000 </r>
       <r>   12.0781    0.0000 </r>
       <r>   17.2644    0.0000 </r>
       <r>   23.4202    0.0000 </r>
       <r>   28.0657    0.0000 </r>
       <r>   28.0920    0.0000 </r>
      </set>
      <set comment="kpoint 99">
       <r>    3.4373    1.0000 </r>
       <r>    5.8207    1.0000 </r>
       <r>   10.6935    0.0000 </r>
       <r>   11.2334    0.0000 </r>
       <r>   15.5716    0.0000 </r>
       <r>   16.8480    0.0000 </r>
       <r>   31.4352    0.0000 </r>
       <r>   32.8851    0.0000 </r>
      </set>
      <set comment="kpoint 100">
       <r>    4.5885    1.0000 </r>
       <r>    5.0453    1.0000 </r>
       <r>    8.9674    1.0000 </r>
       <r>   11.2099    0.0000 </r>
       <r>   16.2628    0.0000 </r>
       <r>   18.5838    0.0000 </r>
       <r>   30.7232    0.0000 </r>
       <r>   31.1896    0.0000 </r>
      </set>
      <set comment="kpoint 101">
       <r>   -1.3239    1.0000 </r>
       <r>   10.7259    0.0000 </r>
       <r>   11.2124    0.0000 </r>
       <r>   14.8975    0.0000 </r>
       <r>   20.0228    0.0000 </r>
       <r>   20.7137    0.0000 </r>
       <r>   24.2760    0.0000 </r>
       <r>   27.9667    0.0000 </r>
      </set>
      <set comment="kpoint 102">
       <r>   -0.2416    1.0000 </r>
       <r>    8.5926    1.0000 </r>
       <r>   10.8718    0.0000 </r>
       <r>   13.7731    0.0000 </r>
       <r>   20.1951    0.0000 </r>
       <r>   21.9777    0.0000 </r>
       <r>   23.6111    0.0000 </r>
       <r>   28.4895    0.0000 </r>
      </set>
      <set comment="kpoint 103">
       <r>    1.0661    1.0000 </r>
       <r>    6.4385    1.0000 </r>
       <r>   10.9262    0.0000 </r>
       <r>   12.8437    0.0000 </r>
       <r>   20.2333    0.0000 </r>
       <r>   22.1110    0.0000 </r>
       <r>   24.6926    0.0000 </r>
       <r>   28.5387    0.0000 </r>
      </set>
      <set comment="kpoint 104">
       <r>    2.5502    1.0000 </r>
       <r>    4.5240    1.0000 </r>
       <r>   11.1127    0.0000 </r>
       <r>   12.2178    0.0000 </r>
       <r>   20.3471    0.0000 </r>
       <r>   21.6919    0.0000 </r>
       <r>   26.5747    0.0000 </r>
       <r>   28.0540    0.0000 </r>
      </set>
      <set comment="kpoint 105">
       <r>    0.1204    1.0000 </r>
       <r>    9.8131    0.0000 </r>
       <r>   10.1982    0.0000 </r>
       <r>   12.0557    0.0000 </r>
       <r>   19.1479    0.0000 </r>
       <r>   19.9434    0.0000 </r>
       <r>   25.4828    0.0000 </r>
       <r>   30.5187    0.0000 </r>
      </set>
      <set comment="kpoint 106">
       <r>    1.3500    1.0000 </r>
       <r>    7.8089    1.0000 </r>
       <r>    9.9252    0.0000 </r>
       <r>   11.0933    0.0000 </r>
       <r>   19.5234    0.0000 </r>
       <r>   21.6003    0.0000 </r>
       <r>   24.7011    0.0000 </r>
       <r>   30.5409    0.0000 </r>
      </set>
      <set comment="kpoint 107">
       <r>    2.7859    1.0000 </r>
       <r>    5.8231    1.0000 </r>
       <r>    9.6381    0.0000 </r>
       <r>   10.7599    0.0000 </r>
       <r>   19.7797    0.0000 </r>
       <r>   23.1411    0.0000 </r>
       <r>   24.6422    0.0000 </r>
       <r>   29.1288    0.0000 </r>
      </set>
      <set comment="kpoint 108">
       <r>    3.7268    1.0000 </r>
       <r>    4.7421    1.0000 </r>
       <r>    9.1514    0.8186 </r>
       <r>   11.0879    0.0000 </r>
       <r>   20.2018    0.0000 </r>
       <r>   23.0405    0.0000 </r>
       <r>   26.1989    0.0000 </r>
       <r>   27.3678    0.0000 </r>
      </set>
      <set comment="kpoint 109">
       <r>    2.2844    1.0000 </r>
       <r>    6.4569    1.0000 </r>
       <r>    8.7943    1.0000 </r>
       <r>   11.7510    0.0000 </r>
       <r>   20.7640    0.0000 </r>
       <r>   22.7382    0.0000 </r>
       <r>   24.7508    0.0000 </r>
       <r>   28.7279    0.0000 </r>
      </set>
      <set comment="kpoint 110">
       <r>    0.9123    1.0000 </r>
       <r>    8.2880    1.0000 </r>
       <r>    8.8720    1.0000 </r>
       <r>   12.6581    0.0000 </r>
       <r>   21.3121    0.0000 </r>
       <r>   22.1018    0.0000 </r>
       <r>   23.3685    0.0000 </r>
       <r>   29.8818    0.0000 </r>
      </set>
      <set comment="kpoint 111">
       <r>    1.8682    1.0000 </r>
       <r>    8.6365    1.0000 </r>
       <r>    9.2025    0.2960 </r>
       <r>   10.1883    0.0000 </r>
       <r>   18.5544    0.0000 </r>
       <r>   19.4149    0.0000 </r>
       <r>   26.9831    0.0000 </r>
       <r>   31.7128    0.0000 </r>
      </set>
      <set comment="kpoint 112">
       <r>    3.2326    1.0000 </r>
       <r>    7.1950    1.0000 </r>
       <r>    8.0873    1.0000 </r>
       <r>    9.9301    0.0000 </r>
       <r>   19.1028    0.0000 </r>
       <r>   21.2731    0.0000 </r>
       <r>   26.2600    0.0000 </r>
       <r>   29.8343    0.0000 </r>
      </set>
      <set comment="kpoint 113">
       <r>    4.6765    1.0000 </r>
       <r>    5.5683    1.0000 </r>
       <r>    7.3364    1.0000 </r>
       <r>   10.2701    0.0000 </r>
       <r>   19.5222    0.0000 </r>
       <r>   23.4933    0.0000 </r>
       <r>   25.7065    0.0000 </r>
       <r>   27.6327    0.0000 </r>
      </set>
      <set comment="kpoint 114">
       <r>    3.7067    1.0000 </r>
       <r>    6.4422    1.0000 </r>
       <r>    7.0953    1.0000 </r>
       <r>   10.8897    0.0000 </r>
       <r>   20.1020    0.0000 </r>
       <r>   24.7441    0.0000 </r>
       <r>   24.7719    0.0000 </r>
       <r>   26.9799    0.0000 </r>
      </set>
      <set comment="kpoint 115">
       <r>    3.8964    1.0000 </r>
       <r>    6.2390    1.0000 </r>
       <r>    8.8966    1.0000 </r>
       <r>    9.7021    0.0000 </r>
       <r>   18.2553    0.0000 </r>
       <r>   19.1457    0.0000 </r>
       <r>   28.6819    0.0000 </r>
       <r>   30.4108    0.0000 </r>
      </set>
      <set comment="kpoint 116">
       <r>    5.2070    1.0000 </r>
       <r>    5.5439    1.0000 </r>
       <r>    7.3876    1.0000 </r>
       <r>    9.7239    0.0000 </r>
       <r>   18.9605    0.0000 </r>
       <r>   21.1552    0.0000 </r>
       <r>   27.8559    0.0000 </r>
       <r>   28.2675    0.0000 </r>
      </set>
      <set comment="kpoint 117">
       <r>    2.6449    1.0000 </r>
       <r>    7.6735    1.0000 </r>
       <r>    8.1292    1.0000 </r>
       <r>   10.0023    0.0000 </r>
       <r>   21.5337    0.0000 </r>
       <r>   21.6448    0.0000 </r>
       <r>   24.0711    0.0000 </r>
       <r>   29.3516    0.0000 </r>
      </set>
      <set comment="kpoint 118">
       <r>    4.1197    1.0000 </r>
       <r>    6.0044    1.0000 </r>
       <r>    8.1231    1.0000 </r>
       <r>    9.3262    0.0000 </r>
       <r>   21.6851    0.0000 </r>
       <r>   22.8743    0.0000 </r>
       <r>   24.4678    0.0000 </r>
       <r>   27.2186    0.0000 </r>
      </set>
      <set comment="kpoint 119">
       <r>    4.6435    1.0000 </r>
       <r>    6.7962    1.0000 </r>
       <r>    7.3659    1.0000 </r>
       <r>    8.4835    1.0000 </r>
       <r>   21.2457    0.0000 </r>
       <r>   21.6090    0.0000 </r>
       <r>   25.5505    0.0000 </r>
       <r>   27.6032    0.0000 </r>
      </set>
      <set comment="kpoint 120">
       <r>    5.5482    1.0000 </r>
       <r>    6.1336    1.0000 </r>
       <r>    6.7621    1.0000 </r>
       <r>    8.5502    1.0000 </r>
       <r>   21.7848    0.0000 </r>
       <r>   23.5327    0.0000 </r>
       <r>   24.4744    0.0000 </r>
       <r>   26.0975    0.0000 </r>
      </set>
     </set>
    </set>
   </array>
  </eigenvalues>
  <separator name="orbital magnetization" >
   <v name="MAGDIPOLOUT">      0.00000000      0.00000000      0.00000000</v>
  </separator>
  <dos>
   <i name="efermi">      9.18352878 </i>
   <total>
    <array>
     <dimension dim="1">gridpoints</dimension>
     <dimension dim="2">spin</dimension>
     <field>energy</field>
     <field>total</field>
     <field>integrated</field>
     <set>
      <set comment="spin 1">
       <r>    -6.5047     0.0000     0.0000 </r>
       <r>    -6.3631     0.0000     0.0000 </r>
       <r>    -6.2214     0.0000     0.0000 </r>
       <r>    -6.0797     0.0000     0.0000 </r>
       <r>    -5.9380     0.0000     0.0000 </r>
       <r>    -5.7964     0.0000     0.0000 </r>
       <r>    -5.6547     0.0000     0.0000 </r>
       <r>    -5.5130     0.0000     0.0000 </r>
       <r>    -5.3714     0.0000     0.0000 </r>
       <r>    -5.2297     0.0000     0.0000 </r>
       <r>    -5.0880     0.0000     0.0000 </r>
       <r>    -4.9464     0.0000     0.0000 </r>
       <r>    -4.8047     0.0000     0.0000 </r>
       <r>    -4.6630     0.0000     0.0000 </r>
       <r>    -4.5214     0.0046     0.0007 </r>
       <r>    -4.3797     0.0523     0.0081 </r>
       <r>    -4.2380     0.0352     0.0130 </r>
       <r>    -4.0964     0.1099     0.0286 </r>
       <r>    -3.9547     0.0486     0.0355 </r>
       <r>    -3.8130     0.0584     0.0438 </r>
       <r>    -3.6714     0.1641     0.0670 </r>
       <r>    -3.5297     0.1023     0.0815 </r>
       <r>    -3.3880     0.1302     0.1000 </r>
       <r>    -3.2464     0.0378     0.1053 </r>
       <r>    -3.1047     0.2507     0.1408 </r>
       <r>    -2.9630     0.1162     0.1573 </r>
       <r>    -2.8213     0.1340     0.1763 </r>
       <r>    -2.6797     0.1414     0.1963 </r>
       <r>    -2.5380     0.0555     0.2042 </r>
       <r>    -2.3963     0.2730     0.2428 </r>
       <r>    -2.2547     0.1813     0.2685 </r>
       <r>    -2.1130     0.3111     0.3126 </r>
       <r>    -1.9713     0.0261     0.3163 </r>
       <r>    -1.8297     0.1392     0.3360 </r>
       <r>    -1.6880     0.1933     0.3634 </r>
       <r>    -1.5463     0.2050     0.3925 </r>
       <r>    -1.4047     0.2625     0.4296 </r>
       <r>    -1.2630     0.1114     0.4454 </r>
       <r>    -1.1213     0.4651     0.5113 </r>
       <r>    -0.9797     0.1051     0.5262 </r>
       <r>    -0.8380     0.1988     0.5544 </r>
       <r>    -0.6963     0.0609     0.5630 </r>
       <r>    -0.5547     0.2684     0.6010 </r>
       <r>    -0.4130     0.2434     0.6355 </r>
       <r>    -0.2713     0.3463     0.6846 </r>
       <r>    -0.1296     0.3641     0.7361 </r>
       <r>     0.0120     0.0121     0.7379 </r>
       <r>     0.1537     0.4544     0.8022 </r>
       <r>     0.2954     0.1778     0.8274 </r>
       <r>     0.4370     0.2405     0.8615 </r>
       <r>     0.5787     0.0396     0.8671 </r>
       <r>     0.7204     0.3743     0.9201 </r>
       <r>     0.8620     0.4016     0.9770 </r>
       <r>     1.0037     0.2590     1.0137 </r>
       <r>     1.1454     0.4077     1.0715 </r>
       <r>     1.2870     0.1473     1.0923 </r>
       <r>     1.4287     0.2875     1.1331 </r>
       <r>     1.5704     0.3278     1.1795 </r>
       <r>     1.7120     0.3849     1.2340 </r>
       <r>     1.8537     0.1344     1.2531 </r>
       <r>     1.9954     0.2368     1.2866 </r>
       <r>     2.1370     0.3679     1.3388 </r>
       <r>     2.2787     0.4651     1.4046 </r>
       <r>     2.4204     0.2545     1.4407 </r>
       <r>     2.5620     0.3970     1.4969 </r>
       <r>     2.7037     0.3592     1.5478 </r>
       <r>     2.8454     0.1998     1.5761 </r>
       <r>     2.9871     0.2010     1.6046 </r>
       <r>     3.1287     0.1742     1.6293 </r>
       <r>     3.2704     0.3137     1.6737 </r>
       <r>     3.4121     0.1967     1.7016 </r>
       <r>     3.5537     0.6959     1.8002 </r>
       <r>     3.6954     0.4139     1.8588 </r>
       <r>     3.8371     0.2314     1.8916 </r>
       <r>     3.9787     0.1361     1.9109 </r>
       <r>     4.1204     0.4214     1.9706 </r>
       <r>     4.2621     0.4485     2.0341 </r>
       <r>     4.4037     0.2454     2.0689 </r>
       <r>     4.5454     0.2629     2.1061 </r>
       <r>     4.6871     0.6507     2.1983 </r>
       <r>     4.8287     0.3392     2.2464 </r>
       <r>     4.9704     0.2163     2.2770 </r>
       <r>     5.1121     0.1337     2.2960 </r>
       <r>     5.2537     0.4342     2.3575 </r>
       <r>     5.3954     0.3710     2.4100 </r>
       <r>     5.5371     0.6663     2.5044 </r>
       <r>     5.6787     0.4348     2.5660 </r>
       <r>     5.8204     0.1771     2.5911 </r>
       <r>     5.9621     0.4199     2.6506 </r>
       <r>     6.1038     0.3880     2.7056 </r>
       <r>     6.2454     0.5385     2.7819 </r>
       <r>     6.3871     0.3042     2.8250 </r>
       <r>     6.5288     0.5374     2.9011 </r>
       <r>     6.6704     0.1724     2.9255 </r>
       <r>     6.8121     0.3016     2.9682 </r>
       <r>     6.9538     0.1902     2.9952 </r>
       <r>     7.0954     0.3802     3.0490 </r>
       <r>     7.2371     0.5474     3.1266 </r>
       <r>     7.3788     1.0258     3.2719 </r>
       <r>     7.5204     0.2837     3.3121 </r>
       <r>     7.6621     0.1083     3.3275 </r>
       <r>     7.8038     0.5766     3.4091 </r>
       <r>     7.9454     0.3440     3.4579 </r>
       <r>     8.0871     0.3176     3.5029 </r>
       <r>     8.2288     0.3764     3.5562 </r>
       <r>     8.3704     0.6262     3.6449 </r>
       <r>     8.5121     0.3061     3.6883 </r>
       <r>     8.6538     0.5805     3.7705 </r>
       <r>     8.7955     0.1578     3.7928 </r>
       <r>     8.9371     0.5691     3.8735 </r>
       <r>     9.0788     0.2839     3.9137 </r>
       <r>     9.2205     0.7703     4.0228 </r>
       <r>     9.3621     0.4677     4.0891 </r>
       <r>     9.5038     0.2182     4.1200 </r>
       <r>     9.6455     0.4960     4.1902 </r>
       <r>     9.7871     0.7035     4.2899 </r>
       <r>     9.9288     0.5414     4.3666 </r>
       <r>    10.0705     0.3347     4.4140 </r>
       <r>    10.2121     0.5228     4.4881 </r>
       <r>    10.3538     0.6382     4.5785 </r>
       <r>    10.4955     0.1496     4.5997 </r>
       <r>    10.6371     0.0946     4.6131 </r>
       <r>    10.7788     0.6334     4.7029 </r>
       <r>    10.9205     0.5392     4.7792 </r>
       <r>    11.0621     0.9031     4.9072 </r>
       <r>    11.2038     0.6733     5.0026 </r>
       <r>    11.3455     0.4356     5.0643 </r>
       <r>    11.4871     0.2840     5.1045 </r>
       <r>    11.6288     0.5878     5.1878 </r>
       <r>    11.7705     0.4254     5.2480 </r>
       <r>    11.9122     0.6672     5.3425 </r>
       <r>    12.0538     0.7273     5.4456 </r>
       <r>    12.1955     0.2989     5.4879 </r>
       <r>    12.3372     0.7502     5.5942 </r>
       <r>    12.4788     0.5550     5.6728 </r>
       <r>    12.6205     0.2546     5.7089 </r>
       <r>    12.7622     0.8196     5.8250 </r>
       <r>    12.9038     0.8323     5.9429 </r>
       <r>    13.0455     0.2685     5.9810 </r>
       <r>    13.1872     0.6915     6.0789 </r>
       <r>    13.3288     0.6396     6.1695 </r>
       <r>    13.4705     0.6133     6.2564 </r>
       <r>    13.6122     0.2599     6.2933 </r>
       <r>    13.7538     0.5102     6.3655 </r>
       <r>    13.8955     0.4533     6.4297 </r>
       <r>    14.0372     0.2203     6.4610 </r>
       <r>    14.1788     0.6135     6.5479 </r>
       <r>    14.3205     0.7388     6.6525 </r>
       <r>    14.4622     0.6738     6.7480 </r>
       <r>    14.6039     0.5941     6.8322 </r>
       <r>    14.7455     0.3205     6.8776 </r>
       <r>    14.8872     0.2931     6.9191 </r>
       <r>    15.0289     0.5006     6.9900 </r>
       <r>    15.1705     0.5625     7.0697 </r>
       <r>    15.3122     0.2194     7.1008 </r>
       <r>    15.4539     0.6670     7.1953 </r>
       <r>    15.5955     0.6391     7.2858 </r>
       <r>    15.7372     0.3569     7.3364 </r>
       <r>    15.8789     0.3811     7.3904 </r>
       <r>    16.0205     0.8029     7.5041 </r>
       <r>    16.1622     0.5078     7.5761 </r>
       <r>    16.3039     0.4923     7.6458 </r>
       <r>    16.4455     0.3474     7.6951 </r>
       <r>    16.5872     0.4227     7.7549 </r>
       <r>    16.7289     0.8036     7.8688 </r>
       <r>    16.8705     0.7184     7.9706 </r>
       <r>    17.0122     0.4679     8.0368 </r>
       <r>    17.1539     0.8399     8.1558 </r>
       <r>    17.2955     0.3439     8.2045 </r>
       <r>    17.4372     0.4975     8.2750 </r>
       <r>    17.5789     0.5257     8.3495 </r>
       <r>    17.7206     0.7270     8.4525 </r>
       <r>    17.8622     0.4570     8.5172 </r>
       <r>    18.0039     0.4141     8.5759 </r>
       <r>    18.1456     0.3852     8.6305 </r>
       <r>    18.2872     0.4558     8.6950 </r>
       <r>    18.4289     0.3680     8.7472 </r>
       <r>    18.5706     0.4953     8.8173 </r>
       <r>    18.7122     0.8901     8.9434 </r>
       <r>    18.8539     1.0923     9.0982 </r>
       <r>    18.9956     0.3861     9.1529 </r>
       <r>    19.1372     0.4701     9.2195 </r>
       <r>    19.2789     0.7964     9.3323 </r>
       <r>    19.4206     0.2167     9.3630 </r>
       <r>    19.5622     0.6642     9.4571 </r>
       <r>    19.7039     0.8091     9.5717 </r>
       <r>    19.8456     0.6820     9.6683 </r>
       <r>    19.9872     0.4620     9.7338 </r>
       <r>    20.1289     0.5104     9.8061 </r>
       <r>    20.2706     0.7666     9.9147 </r>
       <r>    20.4122     0.6526    10.0072 </r>
       <r>    20.5539     0.5640    10.0871 </r>
       <r>    20.6956     0.1675    10.1108 </r>
       <r>    20.8373     0.6110    10.1973 </r>
       <r>    20.9789     0.6809    10.2938 </r>
       <r>    21.1206     0.5884    10.3772 </r>
       <r>    21.2623     0.5594    10.4564 </r>
       <r>    21.4039     0.5898    10.5400 </r>
       <r>    21.5456     0.3985    10.5964 </r>
       <r>    21.6873     1.2905    10.7792 </r>
       <r>    21.8289     1.1156    10.9373 </r>
       <r>    21.9706     0.5645    11.0173 </r>
       <r>    22.1123     0.8724    11.1409 </r>
       <r>    22.2539     0.4752    11.2082 </r>
       <r>    22.3956     0.8639    11.3306 </r>
       <r>    22.5373     0.4591    11.3956 </r>
       <r>    22.6789     0.4250    11.4558 </r>
       <r>    22.8206     0.6234    11.5441 </r>
       <r>    22.9623     0.7373    11.6486 </r>
       <r>    23.1039     0.4797    11.7166 </r>
       <r>    23.2456     0.3495    11.7661 </r>
       <r>    23.3873     0.3880    11.8210 </r>
       <r>    23.5290     1.5518    12.0409 </r>
       <r>    23.6706     1.0922    12.1956 </r>
       <r>    23.8123     0.6794    12.2919 </r>
       <r>    23.9540     0.7879    12.4035 </r>
       <r>    24.0956     0.4566    12.4682 </r>
       <r>    24.2373     0.5668    12.5485 </r>
       <r>    24.3790     0.6111    12.6350 </r>
       <r>    24.5206     0.5473    12.7126 </r>
       <r>    24.6623     0.5019    12.7837 </r>
       <r>    24.8040     1.1834    12.9513 </r>
       <r>    24.9456     0.4180    13.0105 </r>
       <r>    25.0873     0.3107    13.0545 </r>
       <r>    25.2290     0.4394    13.1168 </r>
       <r>    25.3706     0.7542    13.2236 </r>
       <r>    25.5123     0.8586    13.3453 </r>
       <r>    25.6540     0.7757    13.4552 </r>
       <r>    25.7956     1.0314    13.6013 </r>
       <r>    25.9373     0.3763    13.6546 </r>
       <r>    26.0790     0.1444    13.6751 </r>
       <r>    26.2206     0.6997    13.7742 </r>
       <r>    26.3623     1.1428    13.9361 </r>
       <r>    26.5040     0.4617    14.0015 </r>
       <r>    26.6457     0.3427    14.0500 </r>
       <r>    26.7873     0.2004    14.0784 </r>
       <r>    26.9290     0.5631    14.1582 </r>
       <r>    27.0707     0.7402    14.2631 </r>
       <r>    27.2123     0.4285    14.3238 </r>
       <r>    27.3540     0.3114    14.3679 </r>
       <r>    27.4957     0.3377    14.4157 </r>
       <r>    27.6373     0.8430    14.5352 </r>
       <r>    27.7790     1.0078    14.6779 </r>
       <r>    27.9207     0.5866    14.7610 </r>
       <r>    28.0623     0.7379    14.8656 </r>
       <r>    28.2040     0.4476    14.9290 </r>
       <r>    28.3457     0.3636    14.9805 </r>
       <r>    28.4873     0.3189    15.0257 </r>
       <r>    28.6290     0.4376    15.0877 </r>
       <r>    28.7707     0.7682    15.1965 </r>
       <r>    28.9123     0.2340    15.2297 </r>
       <r>    29.0540     0.2723    15.2682 </r>
       <r>    29.1957     0.6318    15.3577 </r>
       <r>    29.3374     0.2729    15.3964 </r>
       <r>    29.4790     0.4907    15.4659 </r>
       <r>    29.6207     0.0062    15.4668 </r>
       <r>    29.7624     0.1868    15.4933 </r>
       <r>    29.9040     0.4136    15.5519 </r>
       <r>    30.0457     0.1464    15.5726 </r>
       <r>    30.1874     0.0949    15.5861 </r>
       <r>    30.3290     0.1793    15.6115 </r>
       <r>    30.4707     0.1414    15.6315 </r>
       <r>    30.6124     0.3778    15.6850 </r>
       <r>    30.7540     0.2612    15.7220 </r>
       <r>    30.8957     0.1798    15.7475 </r>
       <r>    31.0374     0.1029    15.7621 </r>
       <r>    31.1790     0.1740    15.7867 </r>
       <r>    31.3207     0.1563    15.8088 </r>
       <r>    31.4624     0.2232    15.8405 </r>
       <r>    31.6040     0.1756    15.8653 </r>
       <r>    31.7457     0.1328    15.8842 </r>
       <r>    31.8874     0.0396    15.8898 </r>
       <r>    32.0290     0.0147    15.8919 </r>
       <r>    32.1707     0.1851    15.9181 </r>
       <r>    32.3124     0.0408    15.9239 </r>
       <r>    32.4541     0.0116    15.9255 </r>
       <r>    32.5957     0.1032    15.9401 </r>
       <r>    32.7374     0.0229    15.9433 </r>
       <r>    32.8791     0.1594    15.9659 </r>
       <r>    33.0207     0.0650    15.9751 </r>
       <r>    33.1624     0.0869    15.9874 </r>
       <r>    33.3041     0.0133    15.9893 </r>
       <r>    33.4457     0.0000    15.9893 </r>
       <r>    33.5874     0.0000    15.9893 </r>
       <r>    33.7291     0.0004    15.9894 </r>
       <r>    33.8707     0.0470    15.9961 </r>
       <r>    34.0124     0.0046    15.9967 </r>
       <r>    34.1541     0.0231    16.0000 </r>
       <r>    34.2957     0.0001    16.0000 </r>
       <r>    34.4374     0.0000    16.0000 </r>
       <r>    34.5791     0.0000    16.0000 </r>
       <r>    34.7207     0.0000    16.0000 </r>
       <r>    34.8624     0.0000    16.0000 </r>
       <r>    35.0041     0.0000    16.0000 </r>
       <r>    35.1457     0.0000    16.0000 </r>
       <r>    35.2874     0.0000    16.0000 </r>
       <r>    35.4291     0.0000    16.0000 </r>
       <r>    35.5708     0.0000    16.0000 </r>
       <r>    35.7124     0.0000    16.0000 </r>
       <r>    35.8541     0.0000    16.0000 </r>
       <r>    35.9958     0.0000    16.0000 </r>
      </set>
     </set>
    </array>
   </total>
  </dos>
 </calculation>
 <structure name="finalpos" >
  <crystal>
   <varray name="basis" >
    <v>       2.42955382       0.00000000       1.40270238 </v>
    <v>       0.80985127       2.29060507       1.40270238 </v>
    <v>       0.00000000       0.00000000       2.80540683 </v>
   </varray>
   <i name="volume">     15.61250511 </i>
   <varray name="rec_basis" >
    <v>       0.41159821      -0.14552196       0.00000000 </v>
    <v>       0.00000000       0.43656587       0.00000000 </v>
    <v>      -0.20579895      -0.14552185       0.35645454 </v>
   </varray>
  </crystal>
  <varray name="positions" >
   <v>       0.00000000       0.00000000       0.00000000 </v>
  </varray>
 </structure>
</modeling>
