 running on    4 total cores
 distrk:  each k-point on    4 cores,    1 groups
 distr:  one band on    1 cores,    4 groups
 vasp.6.2.0 18Jan21 (build Aug 12 2022 13:00:08) complex                        
  
 POSCAR found type information on POSCAR Si
 POSCAR found :  1 types and       1 ions
 scaLAPACK will be used
 LDA part: xc-table for Pade appr. of Perdew
 POSCAR, INCAR and KPOINTS ok, starting setup
 FFT: planning ...
 WAVECAR not read
 entering main loop
       N       E                     dE             d eps       ncg     rms          rms(c)
DAV:   1    -0.155644922476E+01   -0.15564E+01   -0.21626E+03  1992   0.499E+02
DAV:   2    -0.485959830268E+01   -0.33031E+01   -0.31479E+01  2896   0.342E+01
DAV:   3    -0.488109937307E+01   -0.21501E-01   -0.21492E-01  2112   0.300E+00
DAV:   4    -0.488112569835E+01   -0.26325E-04   -0.26324E-04  3208   0.118E-01
DAV:   5    -0.488112570317E+01   -0.48223E-08   -0.59459E-08  2232   0.109E-03    0.228E+00
DAV:   6    -0.486966782261E+01    0.11458E-01   -0.40007E-03  2200   0.275E-01    0.125E+00
DAV:   7    -0.486328209190E+01    0.63857E-02   -0.79299E-03  2216   0.385E-01    0.123E-01
DAV:   8    -0.486325766549E+01    0.24426E-04   -0.31328E-05  3008   0.461E-02    0.150E-02
DAV:   9    -0.486325820069E+01   -0.53520E-06   -0.27684E-07  2336   0.317E-03
   1 F= -.48632582E+01 E0= -.48627355E+01  d E =-.486326E+01
 curvature:   0.00 expect dE= 0.000E+00 dE for cont linesearch  0.000E+00
 trial: gam= 0.00000 g(F)=  0.209E-65 g(S)=  0.000E+00 ort = 0.000E+00 (trialstep = 0.100E+01)
 search vector abs. value=  0.100E-09
 reached required accuracy - stopping structural energy minimisation
