unknown system                          
           1
     2.429554    0.000000    1.402702
     0.809851    2.290605    1.402702
     0.000000    0.000000    2.805407
   Si
     1
Direct configuration=     1
   0.00000000  0.00000000  0.00000000
