unknown system                          
   1.00000000000000     
     2.798822   -0.000000    0.000000
     0.000000    2.798822    0.000000
     0.000000    0.000000    2.798822
   Fe
     2
Direct
  0.000000  0.000000  0.000000
  0.500000  0.500000  0.500000
 
   36   36   36
  199.04      194.07      179.86      158.34      132.27      104.66      78.294      55.295      36.973      23.750    
  15.268      10.563      8.3605      7.2818      6.5146      5.9945      5.6753      5.5130      5.4610      5.5130    
  5.6753      5.9945      6.5146      7.2818      8.3605      10.563      15.268      23.750      36.973      55.295    
  78.294      104.66      132.27      158.34      179.86      194.07      194.07      189.24      175.43      154.51    
  129.13      102.22      76.495      54.041      36.156      23.262      15.011      10.454      8.3249      7.2656    
  6.5045      5.9910      5.6754      5.5156      5.4640      5.5156      5.6754      5.9910      6.5045      7.2656    
  8.3249      10.454      15.011      23.262      36.156      54.041      76.495      102.22      129.13      154.51    
  175.43      189.24      179.86      175.43      162.76      143.51      120.09      95.179      71.294      50.416    
  33.796      21.859      14.282      10.147      8.2249      7.2163      6.4748      5.9802      5.6758      5.5228    
  5.4726      5.5228      5.6758      5.9802      6.4748      7.2163      8.2249      10.147      14.282      21.859    
  33.796      50.416      71.294      95.179      120.09      143.51      162.76      175.43      158.34      154.51    
  143.51      126.74      106.25      84.350      63.271      44.820      30.168      19.726      13.194      9.7032    
  8.0752      7.1324      6.4268      5.9620      5.6765      5.5334      5.4864      5.5334      5.6765      5.9620    
  6.4268      7.1324      8.0752      9.7032      13.194      19.726      30.168      44.820      63.271      84.350    
  106.25      126.74      143.51      154.51      132.27      129.13      120.09      106.25      89.241      70.973    
  53.333      37.902      25.720      17.161      11.926      9.2069      7.8894      7.0133      6.3636      5.9362    
  5.6774      5.5454      5.5041      5.5454      5.6774      5.9362      6.3636      7.0133      7.8894      9.2069    
  11.926      17.161      25.720      37.902      53.333      70.973      89.241      106.25      120.09      129.13    
  104.66      102.22      95.179      84.350      70.973      56.552      42.615      30.483      21.025      14.529    
  10.684      8.7326      7.6680      6.8646      6.2876      5.9045      5.6776      5.5579      5.5233      5.5579    
  5.6776      5.9045      6.2876      6.8646      7.6680      8.7326      10.684      14.529      21.025      30.483    
  42.615      56.552      70.973      84.350      95.179      102.22      78.294      76.495      71.294      63.271    
  53.333      42.615      32.307      23.441      16.678      12.189      9.6370      8.3061      7.4062      6.6991    
  6.2010      5.8706      5.6745      5.5705      5.5402      5.5705      5.6745      5.8706      6.2010      6.6991    
  7.4062      8.3061      9.6370      12.189      16.678      23.441      32.307      42.615      53.333      63.271    
  71.294      76.495      55.295      54.041      50.416      44.820      37.902      30.483      23.441      17.516    
  13.158      10.388      8.8500      7.8928      7.1175      6.5284      6.1091      5.8357      5.6677      5.5813    
  5.5531      5.5813      5.6677      5.8357      6.1091      6.5284      7.1175      7.8928      8.8500      10.388    
  13.158      17.516      23.441      30.483      37.902      44.820      50.416      54.041      36.973      36.156    
  33.796      30.168      25.720      21.025      16.678      13.158      10.686      9.1781      8.2335      7.4630    
  6.8329      6.3576      6.0216      5.7978      5.6599      5.5857      5.5627      5.5857      5.6599      5.7978    
  6.0216      6.3576      6.8329      7.4630      8.2335      9.1781      10.686      13.158      16.678      21.025    
  25.720      30.168      33.796      36.156      23.750      23.262      21.859      19.726      17.161      14.529    
  12.189      10.388      9.1781      8.3570      7.6588      7.0514      6.5663      6.1999      5.9383      5.7603    
  5.6477      5.5856      5.5661      5.5856      5.6477      5.7603      5.9383      6.1999      6.5663      7.0514    
  7.6588      8.3570      9.1781      10.388      12.189      14.529      17.161      19.726      21.859      23.262    
  15.268      15.011      14.282      13.194      11.926      10.684      9.6370      8.8500      8.2335      7.6588    
  7.1311      6.6862      6.3301      6.0598      5.8621      5.7236      5.6319      5.5799      5.5627      5.5799    
  5.6319      5.7236      5.8621      6.0598      6.3301      6.6862      7.1311      7.6588      8.2335      8.8500    
  9.6370      10.684      11.926      13.194      14.282      15.011      10.563      10.454      10.147      9.7032    
  9.2069      8.7326      8.3061      7.8928      7.4630      7.0514      6.6862      6.3780      6.1309      5.9389    
  5.7931      5.6854      5.6112      5.5674      5.5531      5.5674      5.6112      5.6854      5.7931      5.9389    
  6.1309      6.3780      6.6862      7.0514      7.4630      7.8928      8.3061      8.7326      9.2069      9.7032    
  10.147      10.454      8.3605      8.3249      8.2249      8.0752      7.8894      7.6680      7.4062      7.1175    
  6.8329      6.5663      6.3301      6.1309      5.9675      5.8350      5.7289      5.6474      5.5884      5.5525    
  5.5402      5.5525      5.5884      5.6474      5.7289      5.8350      5.9675      6.1309      6.3301      6.5663    
  6.8329      7.1175      7.4062      7.6680      7.8894      8.0752      8.2249      8.3249      7.2818      7.2656    
  7.2163      7.1324      7.0133      6.8646      6.6991      6.5284      6.3576      6.1999      6.0598      5.9389    
  5.8350      5.7458      5.6715      5.6102      5.5634      5.5335      5.5233      5.5335      5.5634      5.6102    
  5.6715      5.7458      5.8350      5.9389      6.0598      6.1999      6.3576      6.5284      6.6991      6.8646    
  7.0133      7.1324      7.2163      7.2656      6.5146      6.5045      6.4748      6.4268      6.3636      6.2876    
  6.2010      6.1091      6.0216      5.9383      5.8621      5.7931      5.7289      5.6715      5.6192      5.5732    
  5.5362      5.5125      5.5041      5.5125      5.5362      5.5732      5.6192      5.6715      5.7289      5.7931    
  5.8621      5.9383      6.0216      6.1091      6.2010      6.2876      6.3636      6.4268      6.4748      6.5045    
  5.9945      5.9910      5.9802      5.9620      5.9362      5.9045      5.8706      5.8357      5.7978      5.7603    
  5.7236      5.6854      5.6474      5.6102      5.5732      5.5387      5.5108      5.4927      5.4864      5.4927    
  5.5108      5.5387      5.5732      5.6102      5.6474      5.6854      5.7236      5.7603      5.7978      5.8357    
  5.8706      5.9045      5.9362      5.9620      5.9802      5.9910      5.6753      5.6754      5.6758      5.6765    
  5.6774      5.6776      5.6745      5.6677      5.6599      5.6477      5.6319      5.6112      5.5884      5.5634    
  5.5362      5.5108      5.4903      5.4772      5.4726      5.4772      5.4903      5.5108      5.5362      5.5634    
  5.5884      5.6112      5.6319      5.6477      5.6599      5.6677      5.6745      5.6776      5.6774      5.6765    
  5.6758      5.6754      5.5130      5.5156      5.5228      5.5334      5.5454      5.5579      5.5705      5.5813    
  5.5857      5.5856      5.5799      5.5674      5.5525      5.5335      5.5125      5.4927      5.4772      5.4673    
  5.4640      5.4673      5.4772      5.4927      5.5125      5.5335      5.5525      5.5674      5.5799      5.5856    
  5.5857      5.5813      5.5705      5.5579      5.5454      5.5334      5.5228      5.5156      5.4610      5.4640    
  5.4726      5.4864      5.5041      5.5233      5.5402      5.5531      5.5627      5.5661      5.5627      5.5531    
  5.5402      5.5233      5.5041      5.4864      5.4726      5.4640      5.4610      5.4640      5.4726      5.4864    
  5.5041      5.5233      5.5402      5.5531      5.5627      5.5661      5.5627      5.5531      5.5402      5.5233    
  5.5041      5.4864      5.4726      5.4640      5.5130      5.5156      5.5228      5.5334      5.5454      5.5579    
  5.5705      5.5813      5.5857      5.5856      5.5799      5.5674      5.5525      5.5335      5.5125      5.4927    
  5.4772      5.4673      5.4640      5.4673      5.4772      5.4927      5.5125      5.5335      5.5525      5.5674    
  5.5799      5.5856      5.5857      5.5813      5.5705      5.5579      5.5454      5.5334      5.5228      5.5156    
  5.6753      5.6754      5.6758      5.6765      5.6774      5.6776      5.6745      5.6677      5.6599      5.6477    
  5.6319      5.6112      5.5884      5.5634      5.5362      5.5108      5.4903      5.4772      5.4726      5.4772    
  5.4903      5.5108      5.5362      5.5634      5.5884      5.6112      5.6319      5.6477      5.6599      5.6677    
  5.6745      5.6776      5.6774      5.6765      5.6758      5.6754      5.9945      5.9910      5.9802      5.9620    
  5.9362      5.9045      5.8706      5.8357      5.7978      5.7603      5.7236      5.6854      5.6474      5.6102    
  5.5732      5.5387      5.5108      5.4927      5.4864      5.4927      5.5108      5.5387      5.5732      5.6102    
  5.6474      5.6854      5.7236      5.7603      5.7978      5.8357      5.8706      5.9045      5.9362      5.9620    
  5.9802      5.9910      6.5146      6.5045      6.4748      6.4268      6.3636      6.2876      6.2010      6.1091    
  6.0216      5.9383      5.8621      5.7931      5.7289      5.6715      5.6192      5.5732      5.5362      5.5125    
  5.5041      5.5125      5.5362      5.5732      5.6192      5.6715      5.7289      5.7931      5.8621      5.9383    
  6.0216      6.1091      6.2010      6.2876      6.3636      6.4268      6.4748      6.5045      7.2818      7.2656    
  7.2163      7.1324      7.0133      6.8646      6.6991      6.5284      6.3576      6.1999      6.0598      5.9389    
  5.8350      5.7458      5.6715      5.6102      5.5634      5.5335      5.5233      5.5335      5.5634      5.6102    
  5.6715      5.7458      5.8350      5.9389      6.0598      6.1999      6.3576      6.5284      6.6991      6.8646    
  7.0133      7.1324      7.2163      7.2656      8.3605      8.3249      8.2249      8.0752      7.8894      7.6680    
  7.4062      7.1175      6.8329      6.5663      6.3301      6.1309      5.9675      5.8350      5.7289      5.6474    
  5.5884      5.5525      5.5402      5.5525      5.5884      5.6474      5.7289      5.8350      5.9675      6.1309    
  6.3301      6.5663      6.8329      7.1175      7.4062      7.6680      7.8894      8.0752      8.2249      8.3249    
  10.563      10.454      10.147      9.7032      9.2069      8.7326      8.3061      7.8928      7.4630      7.0514    
  6.6862      6.3780      6.1309      5.9389      5.7931      5.6854      5.6112      5.5674      5.5531      5.5674    
  5.6112      5.6854      5.7931      5.9389      6.1309      6.3780      6.6862      7.0514      7.4630      7.8928    
  8.3061      8.7326      9.2069      9.7032      10.147      10.454      15.268      15.011      14.282      13.194    
  11.926      10.684      9.6370      8.8500      8.2335      7.6588      7.1311      6.6862      6.3301      6.0598    
  5.8621      5.7236      5.6319      5.5799      5.5627      5.5799      5.6319      5.7236      5.8621      6.0598    
  6.3301      6.6862      7.1311      7.6588      8.2335      8.8500      9.6370      10.684      11.926      13.194    
  14.282      15.011      23.750      23.262      21.859      19.726      17.161      14.529      12.189      10.388    
  9.1781      8.3570      7.6588      7.0514      6.5663      6.1999      5.9383      5.7603      5.6477      5.5856    
  5.5661      5.5856      5.6477      5.7603      5.9383      6.1999      6.5663      7.0514      7.6588      8.3570    
  9.1781      10.388      12.189      14.529      17.161      19.726      21.859      23.262      36.973      36.156    
  33.796      30.168      25.720      21.025      16.678      13.158      10.686      9.1781      8.2335      7.4630    
  6.8329      6.3576      6.0216      5.7978      5.6599      5.5857      5.5627      5.5857      5.6599      5.7978    
  6.0216      6.3576      6.8329      7.4630      8.2335      9.1781      10.686      13.158      16.678      21.025    
  25.720      30.168      33.796      36.156      55.295      54.041      50.416      44.820      37.902      30.483    
  23.441      17.516      13.158      10.388      8.8500      7.8928      7.1175      6.5284      6.1091      5.8357    
  5.6677      5.5813      5.5531      5.5813      5.6677      5.8357      6.1091      6.5284      7.1175      7.8928    
  8.8500      10.388      13.158      17.516      23.441      30.483      37.902      44.820      50.416      54.041    
  78.294      76.495      71.294      63.271      53.333      42.615      32.307      23.441      16.678      12.189    
  9.6370      8.3061      7.4062      6.6991      6.2010      5.8706      5.6745      5.5705      5.5402      5.5705    
  5.6745      5.8706      6.2010      6.6991      7.4062      8.3061      9.6370      12.189      16.678      23.441    
  32.307      42.615      53.333      63.271      71.294      76.495      104.66      102.22      95.179      84.350    
  70.973      56.552      42.615      30.483      21.025      14.529      10.684      8.7326      7.6680      6.8646    
  6.2876      5.9045      5.6776      5.5579      5.5233      5.5579      5.6776      5.9045      6.2876      6.8646    
  7.6680      8.7326      10.684      14.529      21.025      30.483      42.615      56.552      70.973      84.350    
  95.179      102.22      132.27      129.13      120.09      106.25      89.241      70.973      53.333      37.902    
  25.720      17.161      11.926      9.2069      7.8894      7.0133      6.3636      5.9362      5.6774      5.5454    
  5.5041      5.5454      5.6774      5.9362      6.3636      7.0133      7.8894      9.2069      11.926      17.161    
  25.720      37.902      53.333      70.973      89.241      106.25      120.09      129.13      158.34      154.51    
  143.51      126.74      106.25      84.350      63.271      44.820      30.168      19.726      13.194      9.7032    
  8.0752      7.1324      6.4268      5.9620      5.6765      5.5334      5.4864      5.5334      5.6765      5.9620    
  6.4268      7.1324      8.0752      9.7032      13.194      19.726      30.168      44.820      63.271      84.350    
  106.25      126.74      143.51      154.51      179.86      175.43      162.76      143.51      120.09      95.179    
  71.294      50.416      33.796      21.859      14.282      10.147      8.2249      7.2163      6.4748      5.9802    
  5.6758      5.5228      5.4726      5.5228      5.6758      5.9802      6.4748      7.2163      8.2249      10.147    
  14.282      21.859      33.796      50.416      71.294      95.179      120.09      143.51      162.76      175.43    
  194.07      189.24      175.43      154.51      129.13      102.22      76.495      54.041      36.156      23.262    
  15.011      10.454      8.3249      7.2656      6.5045      5.9910      5.6754      5.5156      5.4640      5.5156    
  5.6754      5.9910      6.5045      7.2656      8.3249      10.454      15.011      23.262      36.156      54.041    
  76.495      102.22      129.13      154.51      175.43      189.24      194.07      189.24      175.43      154.51    
  129.13      102.22      76.495      54.041      36.156      23.262      15.011      10.454      8.3249      7.2656    
  6.5045      5.9910      5.6754      5.5156      5.4640      5.5156      5.6754      5.9910      6.5045      7.2656    
  8.3249      10.454      15.011      23.262      36.156      54.041      76.495      102.22      129.13      154.51    
  175.43      189.24      189.24      184.55      171.13      150.77      126.07      99.840      74.736      52.814    
  35.357      22.785      14.763      10.349      8.2912      7.2499      6.4951      5.9880      5.6759      5.5185    
  5.4673      5.5185      5.6759      5.9880      6.4951      7.2499      8.2912      10.349      14.763      22.785    
  35.357      52.814      74.736      99.840      126.07      150.77      171.13      184.55      175.43      171.13    
  158.80      140.07      117.25      92.962      69.651      49.269      33.050      21.418      14.056      10.054    
  8.1961      7.2020      6.4671      5.9785      5.6777      5.5268      5.4772      5.5268      5.6777      5.9785    
  6.4671      7.2020      8.1961      10.054      14.056      21.418      33.050      49.269      69.651      92.962    
  117.25      140.07      158.80      171.13      154.51      150.77      140.07      123.73      103.75      82.386    
  61.808      43.798      29.508      19.342      13.004      9.6304      8.0529      7.1202      6.4220      5.9623    
  5.6804      5.5389      5.4927      5.5389      5.6804      5.9623      6.4220      7.1202      8.0529      9.6304    
  13.004      19.342      29.508      43.798      61.808      82.386      103.75      123.73      140.07      150.77    
  129.13      126.07      117.25      103.75      87.155      69.320      52.098      37.042      25.170      16.850    
  11.781      9.1563      7.8731      7.0042      6.3620      5.9391      5.6838      5.5530      5.5125      5.5530    
  5.6838      5.9391      6.3620      7.0042      7.8731      9.1563      11.781      16.850      25.170      37.042    
  52.098      69.320      87.155      103.75      117.25      126.07      102.22      99.840      92.962      82.386    
  69.320      55.236      41.633      29.805      20.602      14.301      10.585      8.7024      7.6560      6.8596    
  6.2894      5.9105      5.6862      5.5677      5.5335      5.5677      5.6862      5.9105      6.2894      6.8596    
  7.6560      8.7024      10.585      14.301      20.602      29.805      41.633      55.236      69.320      82.386    
  92.962      99.840      76.495      74.736      69.651      61.808      52.098      41.633      31.580      22.948    
  16.383      12.041      9.5819      8.2891      7.3982      6.6989      6.2060      5.8796      5.6854      5.5827    
  5.5525      5.5827      5.6854      5.8796      6.2060      6.6989      7.3982      8.2891      9.5819      12.041    
  16.383      22.948      31.580      41.633      52.098      61.808      69.651      74.736      54.041      52.814    
  49.269      43.798      37.042      29.805      22.948      17.195      12.979      10.309      8.8245      7.8823    
  7.1146      6.5324      6.1180      5.8476      5.6812      5.5955      5.5674      5.5955      5.6812      5.8476    
  6.1180      6.5324      7.1146      7.8823      8.8245      10.309      12.979      17.195      22.948      29.805    
  37.042      43.798      49.269      52.814      36.156      35.357      33.050      29.508      25.170      20.602    
  16.383      12.979      10.597      9.1453      8.2209      7.4579      6.8356      6.3660      6.0339      5.8125    
  5.6761      5.6025      5.5799      5.6025      5.6761      5.8125      6.0339      6.3660      6.8356      7.4579    
  8.2209      9.1453      10.597      12.979      16.383      20.602      25.170      29.508      33.050      35.357    
  23.262      22.785      21.418      19.342      16.850      14.301      12.041      10.309      9.1453      8.3434    
  7.6525      7.0529      6.5741      6.2125      5.9545      5.7786      5.6669      5.6051      5.5856      5.6051    
  5.6669      5.7786      5.9545      6.2125      6.5741      7.0529      7.6525      8.3434      9.1453      10.309    
  12.041      14.301      16.850      19.342      21.418      22.785      15.011      14.763      14.056      13.004    
  11.781      10.585      9.5819      8.8245      8.2209      7.6525      7.1322      6.6935      6.3429      6.0769    
  5.8815      5.7444      5.6538      5.6025      5.5857      5.6025      5.6538      5.7444      5.8815      6.0769    
  6.3429      6.6935      7.1322      7.6525      8.2209      8.8245      9.5819      10.585      11.781      13.004    
  14.056      14.763      10.454      10.349      10.054      9.6304      9.1563      8.7024      8.2891      7.8823    
  7.4579      7.0529      6.6935      6.3909      6.1484      5.9589      5.8160      5.7110      5.6386      5.5955    
  5.5813      5.5955      5.6386      5.7110      5.8160      5.9589      6.1484      6.3909      6.6935      7.0529    
  7.4579      7.8823      8.2891      8.7024      9.1563      9.6304      10.054      10.349      8.3249      8.2912    
  8.1961      8.0529      7.8731      7.6560      7.3982      7.1146      6.8356      6.5741      6.3429      6.1484    
  5.9878      5.8594      5.7571      5.6770      5.6185      5.5827      5.5705      5.5827      5.6185      5.6770    
  5.7571      5.8594      5.9878      6.1484      6.3429      6.5741      6.8356      7.1146      7.3982      7.6560    
  7.8731      8.0529      8.1961      8.2912      7.2656      7.2499      7.2020      7.1202      7.0042      6.8596    
  6.6989      6.5324      6.3660      6.2125      6.0769      5.9589      5.8594      5.7747      5.7017      5.6415    
  5.5962      5.5677      5.5579      5.5677      5.5962      5.6415      5.7017      5.7747      5.8594      5.9589    
  6.0769      6.2125      6.3660      6.5324      6.6989      6.8596      7.0042      7.1202      7.2020      7.2499    
  6.5045      6.4951      6.4671      6.4220      6.3620      6.2894      6.2060      6.1180      6.0339      5.9545    
  5.8815      5.8160      5.7571      5.7017      5.6513      5.6083      5.5746      5.5530      5.5454      5.5530    
  5.5746      5.6083      5.6513      5.7017      5.7571      5.8160      5.8815      5.9545      6.0339      6.1180    
  6.2060      6.2894      6.3620      6.4220      6.4671      6.4951      5.9910      5.9880      5.9785      5.9623    
  5.9391      5.9105      5.8796      5.8476      5.8125      5.7786      5.7444      5.7110      5.6770      5.6415    
  5.6083      5.5786      5.5548      5.5389      5.5334      5.5389      5.5548      5.5786      5.6083      5.6415    
  5.6770      5.7110      5.7444      5.7786      5.8125      5.8476      5.8796      5.9105      5.9391      5.9623    
  5.9785      5.9880      5.6754      5.6759      5.6777      5.6804      5.6838      5.6862      5.6854      5.6812    
  5.6761      5.6669      5.6538      5.6386      5.6185      5.5962      5.5746      5.5548      5.5380      5.5268    
  5.5228      5.5268      5.5380      5.5548      5.5746      5.5962      5.6185      5.6386      5.6538      5.6669    
  5.6761      5.6812      5.6854      5.6862      5.6838      5.6804      5.6777      5.6759      5.5156      5.5185    
  5.5268      5.5389      5.5530      5.5677      5.5827      5.5955      5.6025      5.6051      5.6025      5.5955    
  5.5827      5.5677      5.5530      5.5389      5.5268      5.5185      5.5156      5.5185      5.5268      5.5389    
  5.5530      5.5677      5.5827      5.5955      5.6025      5.6051      5.6025      5.5955      5.5827      5.5677    
  5.5530      5.5389      5.5268      5.5185      5.4640      5.4673      5.4772      5.4927      5.5125      5.5335    
  5.5525      5.5674      5.5799      5.5856      5.5857      5.5813      5.5705      5.5579      5.5454      5.5334    
  5.5228      5.5156      5.5130      5.5156      5.5228      5.5334      5.5454      5.5579      5.5705      5.5813    
  5.5857      5.5856      5.5799      5.5674      5.5525      5.5335      5.5125      5.4927      5.4772      5.4673    
  5.5156      5.5185      5.5268      5.5389      5.5530      5.5677      5.5827      5.5955      5.6025      5.6051    
  5.6025      5.5955      5.5827      5.5677      5.5530      5.5389      5.5268      5.5185      5.5156      5.5185    
  5.5268      5.5389      5.5530      5.5677      5.5827      5.5955      5.6025      5.6051      5.6025      5.5955    
  5.5827      5.5677      5.5530      5.5389      5.5268      5.5185      5.6754      5.6759      5.6777      5.6804    
  5.6838      5.6862      5.6854      5.6812      5.6761      5.6669      5.6538      5.6386      5.6185      5.5962    
  5.5746      5.5548      5.5380      5.5268      5.5228      5.5268      5.5380      5.5548      5.5746      5.5962    
  5.6185      5.6386      5.6538      5.6669      5.6761      5.6812      5.6854      5.6862      5.6838      5.6804    
  5.6777      5.6759      5.9910      5.9880      5.9785      5.9623      5.9391      5.9105      5.8796      5.8476    
  5.8125      5.7786      5.7444      5.7110      5.6770      5.6415      5.6083      5.5786      5.5548      5.5389    
  5.5334      5.5389      5.5548      5.5786      5.6083      5.6415      5.6770      5.7110      5.7444      5.7786    
  5.8125      5.8476      5.8796      5.9105      5.9391      5.9623      5.9785      5.9880      6.5045      6.4951    
  6.4671      6.4220      6.3620      6.2894      6.2060      6.1180      6.0339      5.9545      5.8815      5.8160    
  5.7571      5.7017      5.6513      5.6083      5.5746      5.5530      5.5454      5.5530      5.5746      5.6083    
  5.6513      5.7017      5.7571      5.8160      5.8815      5.9545      6.0339      6.1180      6.2060      6.2894    
  6.3620      6.4220      6.4671      6.4951      7.2656      7.2499      7.2020      7.1202      7.0042      6.8596    
  6.6989      6.5324      6.3660      6.2125      6.0769      5.9589      5.8594      5.7747      5.7017      5.6415    
  5.5962      5.5677      5.5579      5.5677      5.5962      5.6415      5.7017      5.7747      5.8594      5.9589    
  6.0769      6.2125      6.3660      6.5324      6.6989      6.8596      7.0042      7.1202      7.2020      7.2499    
  8.3249      8.2912      8.1961      8.0529      7.8731      7.6560      7.3982      7.1146      6.8356      6.5741    
  6.3429      6.1484      5.9878      5.8594      5.7571      5.6770      5.6185      5.5827      5.5705      5.5827    
  5.6185      5.6770      5.7571      5.8594      5.9878      6.1484      6.3429      6.5741      6.8356      7.1146    
  7.3982      7.6560      7.8731      8.0529      8.1961      8.2912      10.454      10.349      10.054      9.6304    
  9.1563      8.7024      8.2891      7.8823      7.4579      7.0529      6.6935      6.3909      6.1484      5.9589    
  5.8160      5.7110      5.6386      5.5955      5.5813      5.5955      5.6386      5.7110      5.8160      5.9589    
  6.1484      6.3909      6.6935      7.0529      7.4579      7.8823      8.2891      8.7024      9.1563      9.6304    
  10.054      10.349      15.011      14.763      14.056      13.004      11.781      10.585      9.5819      8.8245    
  8.2209      7.6525      7.1322      6.6935      6.3429      6.0769      5.8815      5.7444      5.6538      5.6025    
  5.5857      5.6025      5.6538      5.7444      5.8815      6.0769      6.3429      6.6935      7.1322      7.6525    
  8.2209      8.8245      9.5819      10.585      11.781      13.004      14.056      14.763      23.262      22.785    
  21.418      19.342      16.850      14.301      12.041      10.309      9.1453      8.3434      7.6525      7.0529    
  6.5741      6.2125      5.9545      5.7786      5.6669      5.6051      5.5856      5.6051      5.6669      5.7786    
  5.9545      6.2125      6.5741      7.0529      7.6525      8.3434      9.1453      10.309      12.041      14.301    
  16.850      19.342      21.418      22.785      36.156      35.357      33.050      29.508      25.170      20.602    
  16.383      12.979      10.597      9.1453      8.2209      7.4579      6.8356      6.3660      6.0339      5.8125    
  5.6761      5.6025      5.5799      5.6025      5.6761      5.8125      6.0339      6.3660      6.8356      7.4579    
  8.2209      9.1453      10.597      12.979      16.383      20.602      25.170      29.508      33.050      35.357    
  54.041      52.814      49.269      43.798      37.042      29.805      22.948      17.195      12.979      10.309    
  8.8245      7.8823      7.1146      6.5324      6.1180      5.8476      5.6812      5.5955      5.5674      5.5955    
  5.6812      5.8476      6.1180      6.5324      7.1146      7.8823      8.8245      10.309      12.979      17.195    
  22.948      29.805      37.042      43.798      49.269      52.814      76.495      74.736      69.651      61.808    
  52.098      41.633      31.580      22.948      16.383      12.041      9.5819      8.2891      7.3982      6.6989    
  6.2060      5.8796      5.6854      5.5827      5.5525      5.5827      5.6854      5.8796      6.2060      6.6989    
  7.3982      8.2891      9.5819      12.041      16.383      22.948      31.580      41.633      52.098      61.808    
  69.651      74.736      102.22      99.840      92.962      82.386      69.320      55.236      41.633      29.805    
  20.602      14.301      10.585      8.7024      7.6560      6.8596      6.2894      5.9105      5.6862      5.5677    
  5.5335      5.5677      5.6862      5.9105      6.2894      6.8596      7.6560      8.7024      10.585      14.301    
  20.602      29.805      41.633      55.236      69.320      82.386      92.962      99.840      129.13      126.07    