unknown system                          
   1.00000000000000     
     2.827528   -0.000000    0.000000
     0.000000    2.827528    0.000000
     0.000000    0.000000    2.827528
   Fe
     2
Direct
 -0.000000 -0.000000  0.000000
  0.500000  0.500000  0.500000
 
   36   36   36
 0.19145525570E+03 0.18679118424E+03 0.17344317036E+03 0.15319168900E+03 0.12857550841E+03
 0.10238867052E+03 0.77218568171E+02 0.55087129909E+02 0.37262617241E+02 0.24209129711E+02
 0.15667434340E+02 0.10804449142E+02 0.84662737528E+01 0.73662820193E+01 0.66174918016E+01
 0.60972415974E+01 0.57778647725E+01 0.56120581703E+01 0.55605987420E+01 0.56120581703E+01
 0.57778647725E+01 0.60972415974E+01 0.66174918016E+01 0.73662820193E+01 0.84662737528E+01
 0.10804449142E+02 0.15667434340E+02 0.24209129711E+02 0.37262617241E+02 0.55087129909E+02
 0.77218568171E+02 0.10238867052E+03 0.12857550841E+03 0.15319168900E+03 0.17344317036E+03
 0.18679118424E+03 0.18679118424E+03 0.18225727065E+03 0.16927717647E+03 0.14956900843E+03
 0.12559020820E+03 0.10005372381E+03 0.75484448153E+02 0.53866265897E+02 0.36457348285E+02
 0.23720039954E+02 0.15404149724E+02 0.10687723804E+02 0.84275787214E+01 0.73511041659E+01
 0.66078969130E+01 0.60941762494E+01 0.57782900623E+01 0.56151141483E+01 0.55639324256E+01
 0.56151141483E+01 0.57782900623E+01 0.60941762494E+01 0.66078969130E+01 0.73511041659E+01
 0.84275787214E+01 0.10687723804E+02 0.15404149724E+02 0.23720039954E+02 0.36457348285E+02
 0.53866265897E+02 0.75484448153E+02 0.10005372381E+03 0.12559020820E+03 0.14956900843E+03
 0.16927717647E+03 0.18225727065E+03 0.17344317036E+03 0.16927717647E+03 0.15733689390E+03
 0.13916766720E+03 0.11699781392E+03 0.93314557787E+02 0.70468443150E+02 0.50336387126E+02
 0.34130049627E+02 0.22312632336E+02 0.14654006343E+02 0.10359358614E+02 0.83196770215E+01
 0.73050831058E+01 0.65795813843E+01 0.60846714069E+01 0.57794622466E+01 0.56234857381E+01
 0.55735482507E+01 0.56234857381E+01 0.57794622466E+01 0.60846714069E+01 0.65795813843E+01
 0.73050831058E+01 0.83196770215E+01 0.10359358614E+02 0.14654006343E+02 0.22312632336E+02
 0.34130049627E+02 0.50336387126E+02 0.70468443150E+02 0.93314557787E+02 0.11699781392E+03
 0.13916766720E+03 0.15733689390E+03 0.16927717647E+03 0.15319168900E+03 0.14956900843E+03
 0.13916766720E+03 0.12328641051E+03 0.10382493618E+03 0.82941678910E+02 0.62724303709E+02
 0.44880506073E+02 0.30547209657E+02 0.20167674348E+02 0.13530800699E+02 0.98827035794E+01
 0.81613693932E+01 0.72273211094E+01 0.65330875910E+01 0.60685443927E+01 0.57810957145E+01
 0.56361640718E+01 0.55885653385E+01 0.56361640718E+01 0.57810957145E+01 0.60685443927E+01
 0.65330875910E+01 0.72273211094E+01 0.81613693932E+01 0.98827035794E+01 0.13530800699E+02
 0.20167674348E+02 0.30547209657E+02 0.44880506073E+02 0.62724303709E+02 0.82941678910E+02
 0.10382493618E+03 0.12328641051E+03 0.13916766720E+03 0.14956900843E+03 0.12857550841E+03
 0.12559020820E+03 0.11699781392E+03 0.10382493618E+03 0.87598588432E+02 0.70102697763E+02
 0.53110866113E+02 0.38118943240E+02 0.26138851204E+02 0.17573280879E+02 0.12211750114E+02
 0.93461124549E+01 0.79719570658E+01 0.71155523439E+01 0.64714413243E+01 0.60449570181E+01
 0.57831302502E+01 0.56504843606E+01 0.56077173992E+01 0.56504843606E+01 0.57831302502E+01
 0.60449570181E+01 0.64714413243E+01 0.71155523439E+01 0.79719570658E+01 0.93461124549E+01
 0.12211750114E+02 0.17573280879E+02 0.26138851204E+02 0.38118943240E+02 0.53110866113E+02
 0.70102697763E+02 0.87598588432E+02 0.10382493618E+03 0.11699781392E+03 0.12559020820E+03
 0.10238867052E+03 0.10005372381E+03 0.93314557787E+02 0.82941678910E+02 0.70102697763E+02
 0.56209517136E+02 0.42702154578E+02 0.30833682530E+02 0.21455448069E+02 0.14889034979E+02
 0.10902569368E+02 0.88352589292E+01 0.77565912577E+01 0.69727250455E+01 0.63973625418E+01
 0.60147550010E+01 0.57847203985E+01 0.56648472771E+01 0.56288429653E+01 0.56648472771E+01
 0.57847203985E+01 0.60147550010E+01 0.63973625418E+01 0.69727250455E+01 0.77565912577E+01
 0.88352589292E+01 0.10902569368E+02 0.14889034979E+02 0.21455448069E+02 0.30833682530E+02
 0.42702154578E+02 0.56209517136E+02 0.70102697763E+02 0.82941678910E+02 0.93314557787E+02
 0.10005372381E+03 0.77218568171E+02 0.75484448153E+02 0.70468443150E+02 0.62724303709E+02
 0.53110866113E+02 0.42702154578E+02 0.32621939432E+02 0.23861659343E+02 0.17073312655E+02
 0.12470338889E+02 0.97852011860E+01 0.83903958238E+01 0.75074746820E+01 0.68098501381E+01
 0.63132860590E+01 0.59807477826E+01 0.57834790036E+01 0.56781480677E+01 0.56480609653E+01
 0.56781480677E+01 0.57834790036E+01 0.59807477826E+01 0.63132860590E+01 0.68098501381E+01
 0.75074746820E+01 0.83903958238E+01 0.97852011860E+01 0.12470338889E+02 0.17073312655E+02
 0.23861659343E+02 0.32621939432E+02 0.42702154578E+02 0.53110866113E+02 0.62724303709E+02
 0.70468443150E+02 0.75484448153E+02 0.55087129909E+02 0.53866265897E+02 0.50336387126E+02
 0.44880506073E+02 0.38118943240E+02 0.30833682530E+02 0.23861659343E+02 0.17920540713E+02
 0.13469500925E+02 0.10576262782E+02 0.89453568750E+01 0.79846373315E+01 0.72275321131E+01
 0.66411366164E+01 0.62219853221E+01 0.59461353050E+01 0.57775463482E+01 0.56901264057E+01
 0.56622653466E+01 0.56901264057E+01 0.57775463482E+01 0.59461353050E+01 0.62219853221E+01
 0.66411366164E+01 0.72275321131E+01 0.79846373315E+01 0.89453568750E+01 0.10576262782E+02
 0.13469500925E+02 0.17920540713E+02 0.23861659343E+02 0.30833682530E+02 0.38118943240E+02
 0.44880506073E+02 0.50336387126E+02 0.53866265897E+02 0.37262617241E+02 0.36457348285E+02
 0.34130049627E+02 0.30547209657E+02 0.26138851204E+02 0.21455448069E+02 0.17073312655E+02
 0.13469500925E+02 0.10888199905E+02 0.92854121433E+01 0.83204175954E+01 0.75701229119E+01
 0.69458102092E+01 0.64719049791E+01 0.61333792331E+01 0.59085300214E+01 0.57693224011E+01
 0.56955841418E+01 0.56721930672E+01 0.56955841418E+01 0.57693224011E+01 0.59085300214E+01
 0.61333792331E+01 0.64719049791E+01 0.69458102092E+01 0.75701229119E+01 0.83204175954E+01
 0.92854121433E+01 0.10888199905E+02 0.13469500925E+02 0.17073312655E+02 0.21455448069E+02
 0.26138851204E+02 0.30547209657E+02 0.34130049627E+02 0.36457348285E+02 0.24209129711E+02
 0.23720039954E+02 0.22312632336E+02 0.20167674348E+02 0.17573280879E+02 0.14889034979E+02
 0.12470338889E+02 0.10576262782E+02 0.92854121433E+01 0.84428109140E+01 0.77633050725E+01
 0.71642944679E+01 0.66812073461E+01 0.63127326856E+01 0.60494660831E+01 0.58700937834E+01
 0.57575915109E+01 0.56954746393E+01 0.56762735169E+01 0.56954746393E+01 0.57575915109E+01
 0.58700937834E+01 0.60494660831E+01 0.63127326856E+01 0.66812073461E+01 0.71642944679E+01
 0.77633050725E+01 0.84428109140E+01 0.92854121433E+01 0.10576262782E+02 0.12470338889E+02
 0.14889034979E+02 0.17573280879E+02 0.20167674348E+02 0.22312632336E+02 0.23720039954E+02
 0.15667434340E+02 0.15404149724E+02 0.14654006343E+02 0.13530800699E+02 0.12211750114E+02
 0.10902569368E+02 0.97852011860E+01 0.89453568750E+01 0.83204175954E+01 0.77633050725E+01
 0.72439282880E+01 0.68012885977E+01 0.64436416826E+01 0.61713436280E+01 0.59718498441E+01
 0.58325940979E+01 0.57407576615E+01 0.56891790037E+01 0.56721930672E+01 0.56891790037E+01
 0.57407576615E+01 0.58325940979E+01 0.59718498441E+01 0.61713436280E+01 0.64436416826E+01
 0.68012885977E+01 0.72439282880E+01 0.77633050725E+01 0.83204175954E+01 0.89453568750E+01
 0.97852011860E+01 0.10902569368E+02 0.12211750114E+02 0.13530800699E+02 0.14654006343E+02
 0.15404149724E+02 0.10804449142E+02 0.10687723804E+02 0.10359358614E+02 0.98827035794E+01
 0.93461124549E+01 0.88352589292E+01 0.83903958238E+01 0.79846373315E+01 0.75701229119E+01
 0.71642944679E+01 0.68012885977E+01 0.64917801404E+01 0.62426950965E+01 0.60483567921E+01
 0.59011179658E+01 0.57931263533E+01 0.57195803179E+01 0.56763535884E+01 0.56622653466E+01
 0.56763535884E+01 0.57195803179E+01 0.57931263533E+01 0.59011179658E+01 0.60483567921E+01
 0.62426950965E+01 0.64917801404E+01 0.68012885977E+01 0.71642944679E+01 0.75701229119E+01
 0.79846373315E+01 0.83903958238E+01 0.88352589292E+01 0.93461124549E+01 0.98827035794E+01
 0.10359358614E+02 0.10687723804E+02 0.84662737528E+01 0.84275787214E+01 0.83196770215E+01
 0.81613693932E+01 0.79719570658E+01 0.77565912577E+01 0.75074746820E+01 0.72275321131E+01
 0.69458102092E+01 0.66812073461E+01 0.64436416826E+01 0.62426950965E+01 0.60768819354E+01
 0.59425157579E+01 0.58360245851E+01 0.57546932219E+01 0.56959901725E+01 0.56602458957E+01
 0.56480609653E+01 0.56602458957E+01 0.56959901725E+01 0.57546932219E+01 0.58360245851E+01
 0.59425157579E+01 0.60768819354E+01 0.62426950965E+01 0.64436416826E+01 0.66812073461E+01
 0.69458102092E+01 0.72275321131E+01 0.75074746820E+01 0.77565912577E+01 0.79719570658E+01
 0.81613693932E+01 0.83196770215E+01 0.84275787214E+01 0.73662820193E+01 0.73511041659E+01
 0.73050831058E+01 0.72273211094E+01 0.71155523439E+01 0.69727250455E+01 0.68098501381E+01
 0.66411366164E+01 0.64719049791E+01 0.63127326856E+01 0.61713436280E+01 0.60483567921E+01
 0.59425157579E+01 0.58527194891E+01 0.57779330920E+01 0.57161167868E+01 0.56690134398E+01
 0.56390260678E+01 0.56288429653E+01 0.56390260678E+01 0.56690134398E+01 0.57161167868E+01
 0.57779330920E+01 0.58527194891E+01 0.59425157579E+01 0.60483567921E+01 0.61713436280E+01
 0.63127326856E+01 0.64719049791E+01 0.66411366164E+01 0.68098501381E+01 0.69727250455E+01
 0.71155523439E+01 0.72273211094E+01 0.73050831058E+01 0.73511041659E+01 0.66174918016E+01
 0.66078969130E+01 0.65795813843E+01 0.65330875910E+01 0.64714413243E+01 0.63973625418E+01
 0.63132860590E+01 0.62219853221E+01 0.61333792331E+01 0.60494660831E+01 0.59718498441E+01
 0.59011179658E+01 0.58360245851E+01 0.57779330920E+01 0.57244559094E+01 0.56775160268E+01
 0.56400890901E+01 0.56161438625E+01 0.56077173992E+01 0.56161438625E+01 0.56400890901E+01
 0.56775160268E+01 0.57244559094E+01 0.57779330920E+01 0.58360245851E+01 0.59011179658E+01
 0.59718498441E+01 0.60494660831E+01 0.61333792331E+01 0.62219853221E+01 0.63132860590E+01
 0.63973625418E+01 0.64714413243E+01 0.65330875910E+01 0.65795813843E+01 0.66078969130E+01
 0.60972415974E+01 0.60941762494E+01 0.60846714069E+01 0.60685443927E+01 0.60449570181E+01
 0.60147550010E+01 0.59807477826E+01 0.59461353050E+01 0.59085300214E+01 0.58700937834E+01
 0.58325940979E+01 0.57931263533E+01 0.57546932219E+01 0.57161167868E+01 0.56775160268E+01
 0.56419340994E+01 0.56134482518E+01 0.55949161565E+01 0.55885653385E+01 0.55949161565E+01
 0.56134482518E+01 0.56419340994E+01 0.56775160268E+01 0.57161167868E+01 0.57546932219E+01
 0.57931263533E+01 0.58325940979E+01 0.58700937834E+01 0.59085300214E+01 0.59461353050E+01
 0.59807477826E+01 0.60147550010E+01 0.60449570181E+01 0.60685443927E+01 0.60846714069E+01
 0.60941762494E+01 0.57778647725E+01 0.57782900623E+01 0.57794622466E+01 0.57810957145E+01
 0.57831302502E+01 0.57847203985E+01 0.57834790036E+01 0.57775463482E+01 0.57693224011E+01
 0.57575915109E+01 0.57407576615E+01 0.57195803179E+01 0.56959901725E+01 0.56690134398E+01
 0.56400890901E+01 0.56134482518E+01 0.55920755532E+01 0.55783491159E+01 0.55735482507E+01
 0.55783491159E+01 0.55920755532E+01 0.56134482518E+01 0.56400890901E+01 0.56690134398E+01
 0.56959901725E+01 0.57195803179E+01 0.57407576615E+01 0.57575915109E+01 0.57693224011E+01
 0.57775463482E+01 0.57834790036E+01 0.57847203985E+01 0.57831302502E+01 0.57810957145E+01
 0.57794622466E+01 0.57782900623E+01 0.56120581703E+01 0.56151141483E+01 0.56234857381E+01
 0.56361640718E+01 0.56504843606E+01 0.56648472771E+01 0.56781480677E+01 0.56901264057E+01
 0.56955841418E+01 0.56954746393E+01 0.56891790037E+01 0.56763535884E+01 0.56602458957E+01
 0.56390260678E+01 0.56161438625E+01 0.55949161565E+01 0.55783491159E+01 0.55675513973E+01
 0.55639324256E+01 0.55675513973E+01 0.55783491159E+01 0.55949161565E+01 0.56161438625E+01
 0.56390260678E+01 0.56602458957E+01 0.56763535884E+01 0.56891790037E+01 0.56954746393E+01
 0.56955841418E+01 0.56901264057E+01 0.56781480677E+01 0.56648472771E+01 0.56504843606E+01
 0.56361640718E+01 0.56234857381E+01 0.56151141483E+01 0.55605987420E+01 0.55639324256E+01
 0.55735482507E+01 0.55885653385E+01 0.56077173992E+01 0.56288429653E+01 0.56480609653E+01
 0.56622653466E+01 0.56721930672E+01 0.56762735169E+01 0.56721930672E+01 0.56622653466E+01
 0.56480609653E+01 0.56288429653E+01 0.56077173992E+01 0.55885653385E+01 0.55735482507E+01
 0.55639324256E+01 0.55605987420E+01 0.55639324256E+01 0.55735482507E+01 0.55885653385E+01
 0.56077173992E+01 0.56288429653E+01 0.56480609653E+01 0.56622653466E+01 0.56721930672E+01
 0.56762735169E+01 0.56721930672E+01 0.56622653466E+01 0.56480609653E+01 0.56288429653E+01
 0.56077173992E+01 0.55885653385E+01 0.55735482507E+01 0.55639324256E+01 0.56120581703E+01
 0.56151141483E+01 0.56234857381E+01 0.56361640718E+01 0.56504843606E+01 0.56648472771E+01
 0.56781480677E+01 0.56901264057E+01 0.56955841418E+01 0.56954746393E+01 0.56891790037E+01
 0.56763535884E+01 0.56602458957E+01 0.56390260678E+01 0.56161438625E+01 0.55949161565E+01
 0.55783491159E+01 0.55675513973E+01 0.55639324256E+01 0.55675513973E+01 0.55783491159E+01
 0.55949161565E+01 0.56161438625E+01 0.56390260678E+01 0.56602458957E+01 0.56763535884E+01
 0.56891790037E+01 0.56954746393E+01 0.56955841418E+01 0.56901264057E+01 0.56781480677E+01
 0.56648472771E+01 0.56504843606E+01 0.56361640718E+01 0.56234857381E+01 0.56151141483E+01
 0.57778647725E+01 0.57782900623E+01 0.57794622466E+01 0.57810957145E+01 0.57831302502E+01
 0.57847203985E+01 0.57834790036E+01 0.57775463482E+01 0.57693224011E+01 0.57575915109E+01
 0.57407576615E+01 0.57195803179E+01 0.56959901725E+01 0.56690134398E+01 0.56400890901E+01
 0.56134482518E+01 0.55920755532E+01 0.55783491159E+01 0.55735482507E+01 0.55783491159E+01
 0.55920755532E+01 0.56134482518E+01 0.56400890901E+01 0.56690134398E+01 0.56959901725E+01
 0.57195803179E+01 0.57407576615E+01 0.57575915109E+01 0.57693224011E+01 0.57775463482E+01
 0.57834790036E+01 0.57847203985E+01 0.57831302502E+01 0.57810957145E+01 0.57794622466E+01
 0.57782900623E+01 0.60972415974E+01 0.60941762494E+01 0.60846714069E+01 0.60685443927E+01
 0.60449570181E+01 0.60147550010E+01 0.59807477826E+01 0.59461353050E+01 0.59085300214E+01
 0.58700937834E+01 0.58325940979E+01 0.57931263533E+01 0.57546932219E+01 0.57161167868E+01
 0.56775160268E+01 0.56419340994E+01 0.56134482518E+01 0.55949161565E+01 0.55885653385E+01
 0.55949161565E+01 0.56134482518E+01 0.56419340994E+01 0.56775160268E+01 0.57161167868E+01
 0.57546932219E+01 0.57931263533E+01 0.58325940979E+01 0.58700937834E+01 0.59085300214E+01
 0.59461353050E+01 0.59807477826E+01 0.60147550010E+01 0.60449570181E+01 0.60685443927E+01
 0.60846714069E+01 0.60941762494E+01 0.66174918016E+01 0.66078969130E+01 0.65795813843E+01
 0.65330875910E+01 0.64714413243E+01 0.63973625418E+01 0.63132860590E+01 0.62219853221E+01
 0.61333792331E+01 0.60494660831E+01 0.59718498441E+01 0.59011179658E+01 0.58360245851E+01
 0.57779330920E+01 0.57244559094E+01 0.56775160268E+01 0.56400890901E+01 0.56161438625E+01
 0.56077173992E+01 0.56161438625E+01 0.56400890901E+01 0.56775160268E+01 0.57244559094E+01
 0.57779330920E+01 0.58360245851E+01 0.59011179658E+01 0.59718498441E+01 0.60494660831E+01
 0.61333792331E+01 0.62219853221E+01 0.63132860590E+01 0.63973625418E+01 0.64714413243E+01
 0.65330875910E+01 0.65795813843E+01 0.66078969130E+01 0.73662820193E+01 0.73511041659E+01
 0.73050831058E+01 0.72273211094E+01 0.71155523439E+01 0.69727250455E+01 0.68098501381E+01
 0.66411366164E+01 0.64719049791E+01 0.63127326856E+01 0.61713436280E+01 0.60483567921E+01
 0.59425157579E+01 0.58527194891E+01 0.57779330920E+01 0.57161167868E+01 0.56690134398E+01
 0.56390260678E+01 0.56288429653E+01 0.56390260678E+01 0.56690134398E+01 0.57161167868E+01
 0.57779330920E+01 0.58527194891E+01 0.59425157579E+01 0.60483567921E+01 0.61713436280E+01
 0.63127326856E+01 0.64719049791E+01 0.66411366164E+01 0.68098501381E+01 0.69727250455E+01
 0.71155523439E+01 0.72273211094E+01 0.73050831058E+01 0.73511041659E+01 0.84662737528E+01
 0.84275787214E+01 0.83196770215E+01 0.81613693932E+01 0.79719570658E+01 0.77565912577E+01
 0.75074746820E+01 0.72275321131E+01 0.69458102092E+01 0.66812073461E+01 0.64436416826E+01
 0.62426950965E+01 0.60768819354E+01 0.59425157579E+01 0.58360245851E+01 0.57546932219E+01
 0.56959901725E+01 0.56602458957E+01 0.56480609653E+01 0.56602458957E+01 0.56959901725E+01
 0.57546932219E+01 0.58360245851E+01 0.59425157579E+01 0.60768819354E+01 0.62426950965E+01
 0.64436416826E+01 0.66812073461E+01 0.69458102092E+01 0.72275321131E+01 0.75074746820E+01
 0.77565912577E+01 0.79719570658E+01 0.81613693932E+01 0.83196770215E+01 0.84275787214E+01
 0.10804449142E+02 0.10687723804E+02 0.10359358614E+02 0.98827035794E+01 0.93461124549E+01
 0.88352589292E+01 0.83903958238E+01 0.79846373315E+01 0.75701229119E+01 0.71642944679E+01
 0.68012885977E+01 0.64917801404E+01 0.62426950965E+01 0.60483567921E+01 0.59011179658E+01
 0.57931263533E+01 0.57195803179E+01 0.56763535884E+01 0.56622653466E+01 0.56763535884E+01
 0.57195803179E+01 0.57931263533E+01 0.59011179658E+01 0.60483567921E+01 0.62426950965E+01
 0.64917801404E+01 0.68012885977E+01 0.71642944679E+01 0.75701229119E+01 0.79846373315E+01
 0.83903958238E+01 0.88352589292E+01 0.93461124549E+01 0.98827035794E+01 0.10359358614E+02
 0.10687723804E+02 0.15667434340E+02 0.15404149724E+02 0.14654006343E+02 0.13530800699E+02
 0.12211750114E+02 0.10902569368E+02 0.97852011860E+01 0.89453568750E+01 0.83204175954E+01
 0.77633050725E+01 0.72439282880E+01 0.68012885977E+01 0.64436416826E+01 0.61713436280E+01
 0.59718498441E+01 0.58325940979E+01 0.57407576615E+01 0.56891790037E+01 0.56721930672E+01
 0.56891790037E+01 0.57407576615E+01 0.58325940979E+01 0.59718498441E+01 0.61713436280E+01
 0.64436416826E+01 0.68012885977E+01 0.72439282880E+01 0.77633050725E+01 0.83204175954E+01
 0.89453568750E+01 0.97852011860E+01 0.10902569368E+02 0.12211750114E+02 0.13530800699E+02
 0.14654006343E+02 0.15404149724E+02 0.24209129711E+02 0.23720039954E+02 0.22312632336E+02
 0.20167674348E+02 0.17573280879E+02 0.14889034979E+02 0.12470338889E+02 0.10576262782E+02
 0.92854121433E+01 0.84428109140E+01 0.77633050725E+01 0.71642944679E+01 0.66812073461E+01
 0.63127326856E+01 0.60494660831E+01 0.58700937834E+01 0.57575915109E+01 0.56954746393E+01
 0.56762735169E+01 0.56954746393E+01 0.57575915109E+01 0.58700937834E+01 0.60494660831E+01
 0.63127326856E+01 0.66812073461E+01 0.71642944679E+01 0.77633050725E+01 0.84428109140E+01
 0.92854121433E+01 0.10576262782E+02 0.12470338889E+02 0.14889034979E+02 0.17573280879E+02
 0.20167674348E+02 0.22312632336E+02 0.23720039954E+02 0.37262617241E+02 0.36457348285E+02
 0.34130049627E+02 0.30547209657E+02 0.26138851204E+02 0.21455448069E+02 0.17073312655E+02
 0.13469500925E+02 0.10888199905E+02 0.92854121433E+01 0.83204175954E+01 0.75701229119E+01
 0.69458102092E+01 0.64719049791E+01 0.61333792331E+01 0.59085300214E+01 0.57693224011E+01
 0.56955841418E+01 0.56721930672E+01 0.56955841418E+01 0.57693224011E+01 0.59085300214E+01
 0.61333792331E+01 0.64719049791E+01 0.69458102092E+01 0.75701229119E+01 0.83204175954E+01
 0.92854121433E+01 0.10888199905E+02 0.13469500925E+02 0.17073312655E+02 0.21455448069E+02
 0.26138851204E+02 0.30547209657E+02 0.34130049627E+02 0.36457348285E+02 0.55087129909E+02
 0.53866265897E+02 0.50336387126E+02 0.44880506073E+02 0.38118943240E+02 0.30833682530E+02
 0.23861659343E+02 0.17920540713E+02 0.13469500925E+02 0.10576262782E+02 0.89453568750E+01
 0.79846373315E+01 0.72275321131E+01 0.66411366164E+01 0.62219853221E+01 0.59461353050E+01
 0.57775463482E+01 0.56901264057E+01 0.56622653466E+01 0.56901264057E+01 0.57775463482E+01
 0.59461353050E+01 0.62219853221E+01 0.66411366164E+01 0.72275321131E+01 0.79846373315E+01
 0.89453568750E+01 0.10576262782E+02 0.13469500925E+02 0.17920540713E+02 0.23861659343E+02
 0.30833682530E+02 0.38118943240E+02 0.44880506073E+02 0.50336387126E+02 0.53866265897E+02
 0.77218568171E+02 0.75484448153E+02 0.70468443150E+02 0.62724303709E+02 0.53110866113E+02
 0.42702154578E+02 0.32621939432E+02 0.23861659343E+02 0.17073312655E+02 0.12470338889E+02
 0.97852011860E+01 0.83903958238E+01 0.75074746820E+01 0.68098501381E+01 0.63132860590E+01
 0.59807477826E+01 0.57834790036E+01 0.56781480677E+01 0.56480609653E+01 0.56781480677E+01
 0.57834790036E+01 0.59807477826E+01 0.63132860590E+01 0.68098501381E+01 0.75074746820E+01
 0.83903958238E+01 0.97852011860E+01 0.12470338889E+02 0.17073312655E+02 0.23861659343E+02
 0.32621939432E+02 0.42702154578E+02 0.53110866113E+02 0.62724303709E+02 0.70468443150E+02
 0.75484448153E+02 0.10238867052E+03 0.10005372381E+03 0.93314557787E+02 0.82941678910E+02
 0.70102697763E+02 0.56209517136E+02 0.42702154578E+02 0.30833682530E+02 0.21455448069E+02
 0.14889034979E+02 0.10902569368E+02 0.88352589292E+01 0.77565912577E+01 0.69727250455E+01
 0.63973625418E+01 0.60147550010E+01 0.57847203985E+01 0.56648472771E+01 0.56288429653E+01
 0.56648472771E+01 0.57847203985E+01 0.60147550010E+01 0.63973625418E+01 0.69727250455E+01
 0.77565912577E+01 0.88352589292E+01 0.10902569368E+02 0.14889034979E+02 0.21455448069E+02
 0.30833682530E+02 0.42702154578E+02 0.56209517136E+02 0.70102697763E+02 0.82941678910E+02
 0.93314557787E+02 0.10005372381E+03 0.12857550841E+03 0.12559020820E+03 0.11699781392E+03
 0.10382493618E+03 0.87598588432E+02 0.70102697763E+02 0.53110866113E+02 0.38118943240E+02
 0.26138851204E+02 0.17573280879E+02 0.12211750114E+02 0.93461124549E+01 0.79719570658E+01
 0.71155523439E+01 0.64714413243E+01 0.60449570181E+01 0.57831302502E+01 0.56504843606E+01
 0.56077173992E+01 0.56504843606E+01 0.57831302502E+01 0.60449570181E+01 0.64714413243E+01
 0.71155523439E+01 0.79719570658E+01 0.93461124549E+01 0.12211750114E+02 0.17573280879E+02
 0.26138851204E+02 0.38118943240E+02 0.53110866113E+02 0.70102697763E+02 0.87598588432E+02
 0.10382493618E+03 0.11699781392E+03 0.12559020820E+03 0.15319168900E+03 0.14956900843E+03
 0.13916766720E+03 0.12328641051E+03 0.10382493618E+03 0.82941678910E+02 0.62724303709E+02
 0.44880506073E+02 0.30547209657E+02 0.20167674348E+02 0.13530800699E+02 0.98827035794E+01
 0.81613693932E+01 0.72273211094E+01 0.65330875910E+01 0.60685443927E+01 0.57810957145E+01
 0.56361640718E+01 0.55885653385E+01 0.56361640718E+01 0.57810957145E+01 0.60685443927E+01
 0.65330875910E+01 0.72273211094E+01 0.81613693932E+01 0.98827035794E+01 0.13530800699E+02
 0.20167674348E+02 0.30547209657E+02 0.44880506073E+02 0.62724303709E+02 0.82941678910E+02
 0.10382493618E+03 0.12328641051E+03 0.13916766720E+03 0.14956900843E+03 0.17344317036E+03
 0.16927717647E+03 0.15733689390E+03 0.13916766720E+03 0.11699781392E+03 0.93314557787E+02
 0.70468443150E+02 0.50336387126E+02 0.34130049627E+02 0.22312632336E+02 0.14654006343E+02
 0.10359358614E+02 0.83196770215E+01 0.73050831058E+01 0.65795813843E+01 0.60846714069E+01
 0.57794622466E+01 0.56234857381E+01 0.55735482507E+01 0.56234857381E+01 0.57794622466E+01
 0.60846714069E+01 0.65795813843E+01 0.73050831058E+01 0.83196770215E+01 0.10359358614E+02
 0.14654006343E+02 0.22312632336E+02 0.34130049627E+02 0.50336387126E+02 0.70468443150E+02
 0.93314557787E+02 0.11699781392E+03 0.13916766720E+03 0.15733689390E+03 0.16927717647E+03
 0.18679118424E+03 0.18225727065E+03 0.16927717647E+03 0.14956900843E+03 0.12559020820E+03
 0.10005372381E+03 0.75484448153E+02 0.53866265897E+02 0.36457348285E+02 0.23720039954E+02
 0.15404149724E+02 0.10687723804E+02 0.84275787214E+01 0.73511041659E+01 0.66078969130E+01
 0.60941762494E+01 0.57782900623E+01 0.56151141483E+01 0.55639324256E+01 0.56151141483E+01
 0.57782900623E+01 0.60941762494E+01 0.66078969130E+01 0.73511041659E+01 0.84275787214E+01
 0.10687723804E+02 0.15404149724E+02 0.23720039954E+02 0.36457348285E+02 0.53866265897E+02
 0.75484448153E+02 0.10005372381E+03 0.12559020820E+03 0.14956900843E+03 0.16927717647E+03
 0.18225727065E+03 0.18679118424E+03 0.18225727065E+03 0.16927717647E+03 0.14956900843E+03
 0.12559020820E+03 0.10005372381E+03 0.75484448153E+02 0.53866265897E+02 0.36457348285E+02
 0.23720039954E+02 0.15404149724E+02 0.10687723804E+02 0.84275787214E+01 0.73511041659E+01
 0.66078969130E+01 0.60941762494E+01 0.57782900623E+01 0.56151141483E+01 0.55639324256E+01
 0.56151141483E+01 0.57782900623E+01 0.60941762494E+01 0.66078969130E+01 0.73511041659E+01
 0.84275787214E+01 0.10687723804E+02 0.15404149724E+02 0.23720039954E+02 0.36457348285E+02
 0.53866265897E+02 0.75484448153E+02 0.10005372381E+03 0.12559020820E+03 0.14956900843E+03
 0.16927717647E+03 0.18225727065E+03 0.18225727065E+03 0.17784893306E+03 0.16522397723E+03
 0.14604089600E+03 0.12267909910E+03 0.97773377883E+02 0.73788412050E+02 0.52671466905E+02
 0.35669754069E+02 0.23242665160E+02 0.15148565142E+02 0.10575616266E+02 0.83908801371E+01
 0.73364829646E+01 0.65989452967E+01 0.60915720647E+01 0.57790920137E+01 0.56184350331E+01
 0.55675513973E+01 0.56184350331E+01 0.57790920137E+01 0.60915720647E+01 0.65989452967E+01
 0.73364829646E+01 0.83908801371E+01 0.10575616266E+02 0.15148565142E+02 0.23242665160E+02
 0.35669754069E+02 0.52671466905E+02 0.73788412050E+02 0.97773377883E+02 0.12267909910E+03
 0.14604089600E+03 0.16522397723E+03 0.17784893306E+03 0.16927717647E+03 0.16522397723E+03
 0.15360301635E+03 0.13590769590E+03 0.11429750058E+03 0.91190715354E+02 0.68882998789E+02
 0.49217736888E+02 0.33394247145E+02 0.21869881820E+02 0.14421014755E+02 0.10260415116E+02
 0.82887325143E+01 0.72920197703E+01 0.65722119980E+01 0.60834035249E+01 0.57815978862E+01
 0.56279213583E+01 0.55783491159E+01 0.56279213583E+01 0.57815978862E+01 0.60834035249E+01
 0.65722119980E+01 0.72920197703E+01 0.82887325143E+01 0.10260415116E+02 0.14421014755E+02
 0.21869881820E+02 0.33394247145E+02 0.49217736888E+02 0.68882998789E+02 0.91190715354E+02
 0.11429750058E+03 0.13590769590E+03 0.15360301635E+03 0.16522397723E+03 0.14956900843E+03
 0.14604089600E+03 0.13590769590E+03 0.12042709213E+03 0.10144270303E+03 0.81056581965E+02
 0.61309925931E+02 0.43882239321E+02 0.29893954784E+02 0.19780224478E+02 0.13333326032E+02
 0.98037294227E+01 0.81379589566E+01 0.72163979901E+01 0.65284405722E+01 0.60691984942E+01
 0.57851017960E+01 0.56419507241E+01 0.55949161565E+01 0.56419507241E+01 0.57851017960E+01
 0.60691984942E+01 0.65284405722E+01 0.72163979901E+01 0.81379589566E+01 0.98037294227E+01
 0.13333326032E+02 0.19780224478E+02 0.29893954784E+02 0.43882239321E+02 0.61309925931E+02
 0.81056581965E+02 0.10144270303E+03 0.12042709213E+03 0.13590769590E+03 0.14604089600E+03
 0.12559020820E+03 0.12267909910E+03 0.11429750058E+03 0.10144270303E+03 0.85599746124E+02
 0.68510618279E+02 0.51911895633E+02 0.37275252710E+02 0.25592214260E+02 0.17257670739E+02
 0.12058866152E+02 0.92906022984E+01 0.79558946555E+01 0.71072645629E+01 0.64699897521E+01
 0.60479770130E+01 0.57895373605E+01 0.56581392653E+01 0.56161438625E+01 0.56581392653E+01
 0.57895373605E+01 0.60479770130E+01 0.64699897521E+01 0.71072645629E+01 0.79558946555E+01
 0.92906022984E+01 0.12058866152E+02 0.17257670739E+02 0.25592214260E+02 0.37275252710E+02
 0.51911895633E+02 0.68510618279E+02 0.85599746124E+02 0.10144270303E+03 0.11429750058E+03
 0.12267909910E+03 0.10005372381E+03 0.97773377883E+02 0.91190715354E+02 0.81056581965E+02
 0.68510618279E+02 0.54934977075E+02 0.41743131705E+02 0.30164560118E+02 0.21030442532E+02
 0.14654431261E+02 0.10797596991E+02 0.88021081949E+01 0.77457077381E+01 0.69680882024E+01
 0.63993188783E+01 0.60205623826E+01 0.57932982720E+01 0.56744354771E+01 0.56390260678E+01
 0.56744354771E+01 0.57932982720E+01 0.60205623826E+01 0.63993188783E+01 0.69680882024E+01
 0.77457077381E+01 0.88021081949E+01 0.10797596991E+02 0.14654431261E+02 0.21030442532E+02
 0.30164560118E+02 0.41743131705E+02 0.54934977075E+02 0.68510618279E+02 0.81056581965E+02
 0.91190715354E+02 0.97773377883E+02 0.75484448153E+02 0.73788412050E+02 0.68882998789E+02
 0.61309925931E+02 0.51911895633E+02 0.41743131705E+02 0.31906391204E+02 0.23370248456E+02
 0.16773420207E+02 0.12315767338E+02 0.97246154432E+01 0.83731991516E+01 0.75003291836E+01
 0.68096143270E+01 0.63183164883E+01 0.59896156429E+01 0.57943441392E+01 0.56901814417E+01
 0.56602458957E+01 0.56901814417E+01 0.57943441392E+01 0.59896156429E+01 0.63183164883E+01
 0.68096143270E+01 0.75003291836E+01 0.83731991516E+01 0.97246154432E+01 0.12315767338E+02
 0.16773420207E+02 0.23370248456E+02 0.31906391204E+02 0.41743131705E+02 0.51911895633E+02
 0.61309925931E+02 0.68882998789E+02 0.73788412050E+02 0.53866265897E+02 0.52671466905E+02
 0.49217736888E+02 0.43882239321E+02 0.37275252710E+02 0.30164560118E+02 0.23370248456E+02
 0.17595538955E+02 0.13283766907E+02 0.10490648898E+02 0.89176181886E+01 0.79752868910E+01
 0.72248302028E+01 0.66452252143E+01 0.62306500137E+01 0.59578321653E+01 0.57906870047E+01
 0.57040946277E+01 0.56763535884E+01 0.57040946277E+01 0.57906870047E+01 0.59578321653E+01
 0.62306500137E+01 0.66452252143E+01 0.72248302028E+01 0.79752868910E+01 0.89176181886E+01
 0.10490648898E+02 0.13283766907E+02 0.17595538955E+02 0.23370248456E+02 0.30164560118E+02
 0.37275252710E+02 0.43882239321E+02 0.49217736888E+02 0.52671466905E+02 0.36457348285E+02
 0.35669754069E+02 0.33394247145E+02 0.29893954784E+02 0.25592214260E+02 0.21030442532E+02
 0.16773420207E+02 0.13283766907E+02 0.10792571517E+02 0.92493803227E+01 0.83086472730E+01
 0.75655901067E+01 0.69486003858E+01 0.64800222744E+01 0.61454653679E+01 0.59230631926E+01
 0.57854530363E+01 0.57122959293E+01 0.56891790037E+01 0.57122959293E+01 0.57854530363E+01
 0.59230631926E+01 0.61454653679E+01 0.64800222744E+01 0.69486003858E+01 0.75655901067E+01
 0.83086472730E+01 0.92493803227E+01 0.10792571517E+02 0.13283766907E+02 0.16773420207E+02
 0.21030442532E+02 0.25592214260E+02 0.29893954784E+02 0.33394247145E+02 0.35669754069E+02
 0.23720039954E+02 0.23242665160E+02 0.21869881820E+02 0.19780224478E+02 0.17257670739E+02
 0.14654431261E+02 0.12315767338E+02 0.10490648898E+02 0.92493803227E+01 0.84298828760E+01