   2   2   1   0
  0.1173411E+02  0.2863036E-09  0.2863036E-09  0.2863036E-09  0.5000000E-15
  1.000000000000000E-004
  CAR 
 unknown system                          
     47.35671999     -4.96412551  301      5.88785316      1.00000000
     -4.964  0.0000E+00  0.0000E+00  0.0000E+00  0.0000E+00
     -4.790  0.0000E+00  0.0000E+00  0.0000E+00  0.0000E+00
     -4.615  0.0000E+00  0.0000E+00  0.0000E+00  0.0000E+00
     -4.441  0.0000E+00  0.0000E+00  0.0000E+00  0.0000E+00
     -4.267 -0.1697E-34  0.0000E+00 -0.2960E-35  0.0000E+00
     -4.092 -0.1646E-28 -0.4236E-34 -0.2871E-29 -0.7388E-35
     -3.918 -0.3444E-23 -0.3731E-28 -0.6007E-24 -0.6507E-29
     -3.743 -0.1512E-18 -0.7084E-23 -0.2636E-19 -0.1236E-23
     -3.569 -0.1429E-14 -0.2798E-18 -0.2492E-15 -0.4880E-19
     -3.395 -0.2868E-11 -0.2416E-14 -0.5005E-12 -0.4215E-15
     -3.220 -0.1205E-08 -0.4396E-11 -0.2106E-09 -0.7671E-12
     -3.046 -0.1055E-06 -0.1671E-08 -0.1861E-07 -0.2922E-09
     -2.871 -0.1942E-05 -0.1323E-06 -0.3574E-06 -0.2337E-07
     -2.697 -0.4948E-05 -0.2195E-05 -0.1220E-05 -0.4062E-06
     -2.522  0.5183E-04 -0.4345E-05  0.7819E-05 -0.1164E-05
     -2.348  0.2657E-03  0.6006E-04  0.5416E-04  0.9311E-05
     -2.174  0.3889E-03  0.2786E-03  0.1220E-03  0.5790E-04
     -1.999  0.3540E-03  0.3848E-03  0.1837E-03  0.1250E-03
     -1.825  0.7630E-03  0.3529E-03  0.3168E-03  0.1866E-03
     -1.650  0.7498E-03  0.7693E-03  0.4476E-03  0.3207E-03
     -1.476  0.3810E-03  0.7347E-03  0.5140E-03  0.4489E-03
     -1.302  0.9282E-03  0.3581E-03  0.6759E-03  0.5113E-03
     -1.127  0.1148E-02  0.8939E-03  0.8762E-03  0.6672E-03
     -0.953  0.8501E-03  0.1132E-02  0.1024E-02  0.8646E-03
     -0.778  0.1193E-02  0.8169E-03  0.1232E-02  0.1007E-02
     -0.604  0.1114E-02  0.1033E-02  0.1427E-02  0.1187E-02
     -0.430  0.7631E-03  0.1255E-02  0.1560E-02  0.1406E-02
     -0.255  0.1934E-02  0.5465E-03  0.1897E-02  0.1501E-02
     -0.081  0.1793E-02  0.1513E-02  0.2210E-02  0.1765E-02
      0.094  0.1593E-02  0.1729E-02  0.2488E-02  0.2067E-02
      0.268  0.1488E-02  0.1513E-02  0.2747E-02  0.2331E-02
      0.442  0.2195E-02  0.1453E-02  0.3130E-02  0.2584E-02
      0.617  0.2331E-02  0.9688E-03  0.3537E-02  0.2753E-02
      0.791  0.3878E-02  0.1964E-02  0.4213E-02  0.3095E-02
      0.966  0.5725E-02  0.2081E-02  0.5211E-02  0.3458E-02
      1.140  0.8239E-02  0.2185E-02  0.6648E-02  0.3839E-02
      1.314  0.1273E-01  0.2703E-02  0.8868E-02  0.4311E-02
      1.489  0.1429E-01  0.1970E-02  0.1136E-01  0.4654E-02
      1.663  0.1708E-01  0.2440E-02  0.1434E-01  0.5080E-02
      1.838  0.1879E-01  0.3129E-02  0.1762E-01  0.5625E-02
      2.012  0.1256E-01  0.3968E-02  0.1981E-01  0.6318E-02
      2.186  0.9460E-02  0.5078E-02  0.2146E-01  0.7203E-02
      2.361  0.9088E-02  0.7772E-02  0.2304E-01  0.8558E-02
      2.535  0.2308E-01  0.5473E-02  0.2707E-01  0.9513E-02
      2.710  0.2894E-01  0.7336E-02  0.3212E-01  0.1079E-01
      2.884  0.2232E-01  0.8434E-02  0.3601E-01  0.1226E-01
      3.058  0.2029E-01  0.9853E-02  0.3955E-01  0.1398E-01
      3.233  0.2469E-01  0.1257E-01  0.4385E-01  0.1617E-01
      3.407  0.2891E-01  0.1196E-01  0.4890E-01  0.1826E-01
      3.582  0.2271E-01  0.1046E-01  0.5286E-01  0.2008E-01
      3.756  0.1209E-01  0.5915E-02  0.5496E-01  0.2112E-01
      3.930  0.7548E-02  0.6805E-02  0.5628E-01  0.2230E-01
      4.105  0.9915E-02  0.1722E-01  0.5801E-01  0.2531E-01
      4.279  0.1017E-01  0.2502E-01  0.5979E-01  0.2967E-01
      4.454  0.1503E-01  0.2571E-01  0.6241E-01  0.3415E-01
      4.628  0.2776E-01  0.2289E-01  0.6725E-01  0.3815E-01
      4.802  0.3973E-01  0.2211E-01  0.7418E-01  0.4200E-01
      4.977  0.4996E-01  0.2432E-01  0.8289E-01  0.4624E-01
      5.151  0.3956E-01  0.2331E-01  0.8979E-01  0.5031E-01
      5.326  0.1932E-01  0.1967E-01  0.9316E-01  0.5374E-01
      5.500  0.1675E-01  0.1339E-01  0.9608E-01  0.5607E-01
      5.674  0.1633E-01  0.6215E-02  0.9893E-01  0.5716E-01
      5.849  0.1293E-01  0.5056E-02  0.1012E+00  0.5804E-01
      6.023  0.1435E-01  0.5523E-02  0.1037E+00  0.5900E-01
      6.198  0.8778E-02  0.5050E-02  0.1052E+00  0.5988E-01
      6.372  0.4785E-02  0.6351E-02  0.1061E+00  0.6099E-01
      6.546  0.4860E-02  0.9404E-02  0.1069E+00  0.6263E-01
      6.721  0.2833E-02  0.1271E-01  0.1074E+00  0.6485E-01
      6.895  0.1570E-02  0.1547E-01  0.1077E+00  0.6755E-01
      7.070  0.1883E-02  0.1963E-01  0.1080E+00  0.7097E-01
      7.244  0.3395E-02  0.2418E-01  0.1086E+00  0.7519E-01
      7.418  0.3626E-02  0.2672E-01  0.1092E+00  0.7985E-01
      7.593  0.2797E-02  0.2595E-01  0.1097E+00  0.8437E-01
      7.767  0.1806E-02  0.4160E-01  0.1100E+00  0.9163E-01
      7.942  0.3321E-02  0.4311E-01  0.1106E+00  0.9915E-01
      8.116  0.3842E-02  0.2122E-01  0.1113E+00  0.1028E+00
      8.290  0.2968E-02  0.1249E-01  0.1118E+00  0.1050E+00
      8.465  0.2397E-02  0.7757E-02  0.1122E+00  0.1064E+00
      8.639  0.1036E-02  0.5460E-02  0.1124E+00  0.1073E+00
      8.814  0.1857E-02  0.3408E-02  0.1127E+00  0.1079E+00
      8.988  0.3134E-02  0.4672E-02  0.1133E+00  0.1087E+00
      9.163  0.2827E-02  0.3003E-02  0.1138E+00  0.1093E+00
      9.337  0.2078E-02  0.3507E-02  0.1141E+00  0.1099E+00
      9.511  0.2201E-02  0.3809E-02  0.1145E+00  0.1105E+00
      9.686  0.3177E-02  0.4246E-02  0.1151E+00  0.1113E+00
      9.860  0.2476E-02  0.4512E-02  0.1155E+00  0.1121E+00
     10.035  0.2016E-02  0.1925E-02  0.1158E+00  0.1124E+00
     10.209  0.1142E-02  0.7284E-03  0.1160E+00  0.1125E+00
     10.383  0.2148E-02  0.3699E-02  0.1164E+00  0.1132E+00
     10.558  0.1686E-02  0.4149E-02  0.1167E+00  0.1139E+00
     10.732  0.4674E-03  0.2555E-02  0.1168E+00  0.1143E+00
     10.907  0.1469E-02  0.2778E-02  0.1170E+00  0.1148E+00
     11.081  0.1752E-02  0.2857E-02  0.1173E+00  0.1153E+00
     11.255  0.1896E-02  0.2143E-02  0.1177E+00  0.1157E+00
     11.430  0.2974E-02  0.1716E-02  0.1182E+00  0.1160E+00
     11.604  0.1763E-02  0.2342E-02  0.1185E+00  0.1164E+00
     11.779  0.5315E-03  0.1751E-02  0.1186E+00  0.1167E+00
     11.953  0.8671E-03  0.1262E-02  0.1187E+00  0.1169E+00
     12.127  0.1407E-02  0.2070E-02  0.1190E+00  0.1173E+00
     12.302  0.4322E-03  0.1745E-02  0.1191E+00  0.1176E+00
     12.476 -0.6688E-04  0.2661E-02  0.1191E+00  0.1181E+00
     12.651  0.1163E-03  0.2399E-02  0.1191E+00  0.1185E+00
     12.825  0.4420E-03  0.6175E-03  0.1192E+00  0.1186E+00
     12.999  0.1056E-02  0.8028E-03  0.1193E+00  0.1187E+00
     13.174  0.1660E-02  0.1382E-02  0.1196E+00  0.1190E+00
     13.348  0.2937E-02  0.5407E-03  0.1201E+00  0.1191E+00
     13.523  0.3706E-02 -0.1177E-04  0.1208E+00  0.1191E+00
     13.697  0.3393E-02  0.4609E-03  0.1214E+00  0.1191E+00
     13.871  0.5093E-02  0.1401E-02  0.1223E+00  0.1194E+00
     14.046  0.5017E-02  0.1637E-02  0.1231E+00  0.1197E+00
     14.220  0.4351E-02  0.1206E-02  0.1239E+00  0.1199E+00
     14.395  0.4066E-02  0.6843E-04  0.1246E+00  0.1199E+00
     14.569  0.3037E-02  0.1006E-02  0.1251E+00  0.1201E+00
     14.743  0.1351E-02  0.4916E-02  0.1254E+00  0.1209E+00
     14.918  0.3513E-02  0.4415E-02  0.1260E+00  0.1217E+00
     15.092  0.4768E-02  0.5544E-02  0.1268E+00  0.1227E+00
     15.267  0.2796E-02  0.7390E-02  0.1273E+00  0.1240E+00
     15.441  0.3657E-02  0.5633E-02  0.1279E+00  0.1249E+00
     15.615  0.3990E-02  0.2844E-02  0.1286E+00  0.1254E+00
     15.790  0.2470E-02  0.2059E-02  0.1291E+00  0.1258E+00
     15.964  0.3423E-02  0.3445E-02  0.1297E+00  0.1264E+00
     16.139  0.4499E-02  0.3557E-02  0.1305E+00  0.1270E+00
     16.313  0.3946E-02  0.3706E-02  0.1311E+00  0.1277E+00
     16.487  0.2972E-02  0.6056E-02  0.1317E+00  0.1287E+00
     16.662  0.3037E-02  0.4177E-02  0.1322E+00  0.1294E+00
     16.836  0.4545E-02  0.3440E-02  0.1330E+00  0.1300E+00
     17.011  0.5542E-02  0.4329E-02  0.1339E+00  0.1308E+00
     17.185  0.4300E-02  0.2596E-02  0.1347E+00  0.1312E+00
     17.359  0.4723E-02  0.2719E-02  0.1355E+00  0.1317E+00
     17.534  0.2656E-02  0.4624E-02  0.1360E+00  0.1325E+00
     17.708  0.1026E-02  0.5660E-02  0.1362E+00  0.1335E+00
     17.883  0.1268E-02  0.5521E-02  0.1364E+00  0.1345E+00
     18.057  0.3805E-02  0.4083E-02  0.1370E+00  0.1352E+00
     18.231  0.6499E-02  0.3771E-02  0.1382E+00  0.1358E+00
     18.406  0.5959E-02  0.2351E-02  0.1392E+00  0.1363E+00
     18.580  0.3384E-02  0.9602E-03  0.1398E+00  0.1364E+00
     18.755  0.3632E-02  0.3197E-02  0.1404E+00  0.1370E+00
     18.929  0.3454E-02  0.5684E-02  0.1410E+00  0.1380E+00
     19.103  0.2573E-02  0.6179E-02  0.1415E+00  0.1391E+00
     19.278  0.1652E-02  0.3991E-02  0.1418E+00  0.1397E+00
     19.452  0.2949E-02  0.3393E-02  0.1423E+00  0.1403E+00
     19.627  0.3757E-02  0.4185E-02  0.1430E+00  0.1411E+00
     19.801  0.3156E-02  0.3162E-02  0.1435E+00  0.1416E+00
     19.975  0.3577E-02  0.1344E-02  0.1441E+00  0.1419E+00
     20.150  0.5837E-02  0.3208E-02  0.1451E+00  0.1424E+00
     20.324  0.6302E-02  0.4533E-02  0.1462E+00  0.1432E+00
     20.499  0.2279E-02  0.2638E-02  0.1466E+00  0.1437E+00
     20.673  0.1283E-02  0.4113E-02  0.1469E+00  0.1444E+00
     20.847  0.1436E-02  0.6670E-02  0.1471E+00  0.1455E+00
     21.022  0.3123E-02  0.4384E-02  0.1477E+00  0.1463E+00
     21.196  0.4509E-02  0.2260E-02  0.1484E+00  0.1467E+00
     21.371  0.3176E-02  0.1480E-02  0.1490E+00  0.1470E+00
     21.545  0.2533E-02  0.2574E-02  0.1494E+00  0.1474E+00
     21.720  0.3149E-02  0.4442E-02  0.1500E+00  0.1482E+00
     21.894  0.4923E-02  0.3516E-02  0.1508E+00  0.1488E+00
     22.068  0.6137E-02  0.2733E-02  0.1519E+00  0.1493E+00
     22.243  0.3409E-02  0.3386E-02  0.1525E+00  0.1499E+00
     22.417  0.2630E-02  0.3771E-02  0.1530E+00  0.1505E+00
     22.592  0.3267E-02  0.6028E-02  0.1535E+00  0.1516E+00
     22.766  0.3284E-02  0.3766E-02  0.1541E+00  0.1522E+00
     22.940  0.3864E-02  0.2130E-02  0.1548E+00  0.1526E+00
     23.115  0.4503E-02  0.3203E-02  0.1556E+00  0.1532E+00
     23.289  0.4305E-02  0.4557E-02  0.1563E+00  0.1540E+00
     23.464  0.4750E-02  0.3654E-02  0.1572E+00  0.1546E+00
     23.638  0.4983E-02  0.3360E-02  0.1580E+00  0.1552E+00
     23.812  0.6704E-02  0.5391E-02  0.1592E+00  0.1561E+00
     23.987  0.5904E-02  0.6056E-02  0.1602E+00  0.1572E+00
     24.161  0.4112E-02  0.6119E-02  0.1609E+00  0.1582E+00
     24.336  0.3829E-02  0.7068E-02  0.1616E+00  0.1595E+00
     24.510  0.4078E-02  0.4896E-02  0.1623E+00  0.1603E+00
     24.684  0.5348E-02  0.4366E-02  0.1633E+00  0.1611E+00
     24.859  0.5635E-02  0.4495E-02  0.1642E+00  0.1619E+00
     25.033  0.4193E-02  0.4270E-02  0.1650E+00  0.1626E+00
     25.208  0.4643E-02  0.5199E-02  0.1658E+00  0.1635E+00
     25.382  0.3936E-02  0.4768E-02  0.1665E+00  0.1644E+00
     25.556  0.6632E-02  0.4284E-02  0.1676E+00  0.1651E+00
     25.731  0.7605E-02  0.5687E-02  0.1689E+00  0.1661E+00
     25.905  0.5762E-02  0.4943E-02  0.1699E+00  0.1670E+00
     26.080  0.4025E-02  0.7294E-02  0.1707E+00  0.1682E+00
     26.254  0.3508E-02  0.7965E-02  0.1713E+00  0.1696E+00
     26.428  0.4089E-02  0.3754E-02  0.1720E+00  0.1703E+00
     26.603  0.5719E-02  0.3662E-02  0.1730E+00  0.1709E+00
     26.777  0.5819E-02  0.3896E-02  0.1740E+00  0.1716E+00
     26.952  0.4371E-02  0.4584E-02  0.1748E+00  0.1724E+00
     27.126  0.3068E-02  0.6300E-02  0.1753E+00  0.1735E+00
     27.300  0.3922E-02  0.4529E-02  0.1760E+00  0.1743E+00
     27.475  0.4575E-02  0.4298E-02  0.1768E+00  0.1750E+00
     27.649  0.3346E-02  0.4326E-02  0.1774E+00  0.1758E+00
     27.824  0.5009E-02  0.4909E-02  0.1782E+00  0.1766E+00
     27.998  0.6151E-02  0.3221E-02  0.1793E+00  0.1772E+00
     28.172  0.2344E-02  0.4487E-02  0.1797E+00  0.1780E+00
     28.347  0.1200E-02  0.4221E-02  0.1799E+00  0.1787E+00
     28.521  0.2327E-02  0.2636E-02  0.1803E+00  0.1792E+00
     28.696  0.3441E-02  0.3540E-02  0.1809E+00  0.1798E+00
     28.870  0.4404E-02  0.1680E-02  0.1817E+00  0.1801E+00
     29.044  0.4193E-02  0.2879E-02  0.1824E+00  0.1806E+00
     29.219  0.3325E-02  0.6044E-02  0.1830E+00  0.1817E+00
     29.393  0.1860E-02  0.4289E-02  0.1833E+00  0.1824E+00
     29.568  0.1283E-02  0.2509E-02  0.1835E+00  0.1828E+00
     29.742  0.2142E-02  0.1667E-02  0.1839E+00  0.1831E+00
     29.916  0.1927E-02  0.1202E-02  0.1843E+00  0.1833E+00
     30.091  0.2380E-02  0.2345E-02  0.1847E+00  0.1837E+00
     30.265  0.5209E-02  0.2881E-02  0.1856E+00  0.1842E+00
     30.440  0.7561E-02  0.2894E-02  0.1869E+00  0.1848E+00
     30.614  0.6557E-02  0.5319E-02  0.1880E+00  0.1857E+00
     30.788  0.6468E-02  0.6418E-02  0.1892E+00  0.1868E+00
     30.963  0.7025E-02  0.6318E-02  0.1904E+00  0.1879E+00
     31.137  0.4807E-02  0.6875E-02  0.1912E+00  0.1891E+00
     31.312  0.4851E-02  0.7573E-02  0.1921E+00  0.1904E+00
     31.486  0.3308E-02  0.6245E-02  0.1927E+00  0.1915E+00
     31.660  0.3744E-02  0.3811E-02  0.1933E+00  0.1922E+00
     31.835  0.3532E-02  0.2978E-02  0.1939E+00  0.1927E+00
     32.009  0.2257E-02  0.4712E-02  0.1943E+00  0.1935E+00
     32.184  0.2822E-02  0.1937E-02  0.1948E+00  0.1939E+00
     32.358  0.2657E-02  0.1027E-02  0.1953E+00  0.1940E+00
     32.532  0.3433E-02  0.4262E-02  0.1959E+00  0.1948E+00
     32.707  0.2761E-02  0.4652E-02  0.1964E+00  0.1956E+00
     32.881  0.1694E-02  0.2290E-02  0.1967E+00  0.1960E+00
     33.056  0.2097E-02  0.3239E-02  0.1970E+00  0.1966E+00
     33.230  0.5370E-03  0.2235E-02  0.1971E+00  0.1969E+00
     33.404 -0.1298E-03  0.4939E-03  0.1971E+00  0.1970E+00
     33.579  0.3732E-03  0.5299E-03  0.1972E+00  0.1971E+00
     33.753  0.9355E-03  0.6330E-03  0.1973E+00  0.1972E+00
     33.928  0.9015E-03  0.6737E-03  0.1975E+00  0.1973E+00
     34.102  0.1469E-02  0.1246E-02  0.1977E+00  0.1976E+00
     34.277  0.4392E-03  0.1182E-02  0.1978E+00  0.1978E+00
     34.451  0.2619E-03  0.2379E-03  0.1979E+00  0.1978E+00
     34.625  0.1071E-03  0.2576E-03  0.1979E+00  0.1979E+00
     34.800  0.1933E-03  0.1680E-03  0.1979E+00  0.1979E+00
     34.974  0.1884E-02  0.1548E-02  0.1982E+00  0.1982E+00
     35.149  0.1257E-02  0.1527E-02  0.1985E+00  0.1984E+00
     35.323  0.8707E-03  0.6978E-03  0.1986E+00  0.1985E+00
     35.497  0.9961E-03  0.1218E-02  0.1988E+00  0.1988E+00
     35.672  0.7421E-04  0.2124E-03  0.1988E+00  0.1988E+00
     35.846 -0.3810E-04 -0.5443E-04  0.1988E+00  0.1988E+00
     36.021 -0.2502E-04 -0.2590E-04  0.1988E+00  0.1988E+00
     36.195  0.1135E-03  0.9043E-04  0.1988E+00  0.1988E+00
     36.369  0.5187E-03  0.5117E-03  0.1989E+00  0.1989E+00
     36.544  0.1683E-03  0.2207E-03  0.1989E+00  0.1989E+00
     36.718  0.1900E-03 -0.8923E-05  0.1990E+00  0.1989E+00
     36.893  0.1036E-02  0.7406E-03  0.1991E+00  0.1991E+00
     37.067  0.4438E-03  0.8381E-03  0.1992E+00  0.1992E+00
     37.241 -0.4633E-04  0.4940E-04  0.1992E+00  0.1992E+00
     37.416 -0.2452E-04 -0.4912E-04  0.1992E+00  0.1992E+00
     37.590 -0.3560E-04 -0.1362E-04  0.1992E+00  0.1992E+00
     37.765  0.5717E-03  0.6988E-03  0.1993E+00  0.1993E+00
     37.939  0.9594E-03  0.8838E-03  0.1995E+00  0.1995E+00
     38.113  0.2019E-03  0.4499E-03  0.1995E+00  0.1996E+00
     38.288  0.6360E-03  0.6259E-03  0.1996E+00  0.1997E+00
     38.462  0.4859E-03  0.1864E-03  0.1997E+00  0.1997E+00
     38.637 -0.2250E-05 -0.1892E-04  0.1997E+00  0.1997E+00
     38.811 -0.1452E-04 -0.5388E-05  0.1997E+00  0.1997E+00
     38.985 -0.6225E-06 -0.1618E-06  0.1997E+00  0.1997E+00
     39.160 -0.4642E-06 -0.5038E-06  0.1997E+00  0.1997E+00
     39.334 -0.9606E-05 -0.1003E-04  0.1997E+00  0.1997E+00
     39.509  0.1292E-04  0.1601E-04  0.1997E+00  0.1997E+00
     39.683  0.2866E-03  0.2929E-03  0.1997E+00  0.1997E+00
     39.857  0.2497E-03  0.2423E-03  0.1998E+00  0.1998E+00
     40.032 -0.1016E-05 -0.5759E-05  0.1998E+00  0.1998E+00
     40.206 -0.1914E-04 -0.3108E-04  0.1998E+00  0.1998E+00
     40.381  0.1969E-05  0.1560E-03  0.1998E+00  0.1998E+00
     40.555  0.3851E-03  0.5303E-03  0.1998E+00  0.1999E+00
     40.729  0.4205E-03  0.1648E-03  0.1999E+00  0.1999E+00
     40.904  0.1515E-04 -0.2418E-04  0.1999E+00  0.1999E+00
     41.078 -0.1412E-04 -0.6657E-05  0.1999E+00  0.1999E+00
     41.253 -0.7622E-05 -0.1012E-04  0.1999E+00  0.1999E+00
     41.427  0.8209E-05  0.1319E-03  0.1999E+00  0.1999E+00
     41.601  0.2117E-03  0.2521E-03  0.2000E+00  0.2000E+00
     41.776  0.1909E-03  0.3862E-04  0.2000E+00  0.2000E+00
     41.950  0.6350E-06 -0.1026E-04  0.2000E+00  0.2000E+00
     42.125 -0.5768E-05 -0.8030E-06  0.2000E+00  0.2000E+00
     42.299 -0.2216E-06 -0.9065E-08  0.2000E+00  0.2000E+00
     42.473 -0.1433E-08 -0.1961E-10  0.2000E+00  0.2000E+00
     42.648 -0.1830E-11 -0.8690E-14  0.2000E+00  0.2000E+00
     42.822 -0.4840E-15 -0.7957E-18  0.2000E+00  0.2000E+00
     42.997  0.0000E+00 -0.6603E-37  0.2000E+00  0.2000E+00
     43.171  0.0000E+00 -0.1219E-30  0.2000E+00  0.2000E+00
     43.345 -0.1696E-32 -0.4855E-25  0.2000E+00  0.2000E+00
     43.520 -0.1083E-26 -0.4162E-20  0.2000E+00  0.2000E+00
     43.694 -0.1490E-21 -0.7370E-16  0.2000E+00  0.2000E+00
     43.869 -0.4257E-17 -0.2831E-12  0.2000E+00  0.2000E+00
     44.043 -0.2641E-13 -0.2252E-09  0.2000E+00  0.2000E+00
     44.217 -0.3420E-10 -0.3542E-07  0.2000E+00  0.2000E+00
     44.392 -0.8929E-08 -0.9402E-06  0.2000E+00  0.2000E+00
     44.566 -0.4243E-06 -0.9876E-08  0.2000E+00  0.2000E+00
     44.741 -0.1906E-05  0.3143E-04  0.2000E+00  0.2000E+00
     44.915  0.1867E-04  0.3564E-04  0.2000E+00  0.2000E+00
     45.089  0.4332E-04  0.1529E-05  0.2000E+00  0.2000E+00
     45.264  0.8759E-05 -0.1188E-05  0.2000E+00  0.2000E+00
     45.438 -0.1861E-05 -0.5620E-07  0.2000E+00  0.2000E+00
     45.613 -0.1776E-06 -0.4310E-09  0.2000E+00  0.2000E+00
     45.787 -0.2303E-08 -0.6479E-12  0.2000E+00  0.2000E+00
     45.961 -0.5667E-11 -0.2010E-15  0.2000E+00  0.2000E+00
     46.136 -0.2848E-14 -0.1474E-19  0.2000E+00  0.2000E+00
     46.310 -0.2947E-18  0.0000E+00  0.2000E+00  0.2000E+00
     46.485  0.0000E+00  0.0000E+00  0.2000E+00  0.2000E+00
     46.659  0.0000E+00  0.0000E+00  0.2000E+00  0.2000E+00
     46.834  0.0000E+00  0.0000E+00  0.2000E+00  0.2000E+00
     47.008  0.0000E+00  0.0000E+00  0.2000E+00  0.2000E+00
     47.182  0.0000E+00  0.0000E+00  0.2000E+00  0.2000E+00
     47.357  0.0000E+00  0.0000E+00  0.2000E+00  0.2000E+00
     47.35671999     -4.96412551  301      5.88785316      1.00000000
     -4.964  0.0000E+00  0.0000E+00  0.0000E+00  0.0000E+00  0.0000E+00  0.0000E+00  0.0000E+00  0.0000E+00  0.0000E+00  0.0000E+00  0.0000E+00  0.0000E+00  0.0000E+00  0.0000E+00  0.0000E+00  0.0000E+00  0.0000E+00  0.0000E+00
     -4.790  0.0000E+00  0.0000E+00  0.0000E+00  0.0000E+00  0.0000E+00  0.0000E+00  0.0000E+00  0.0000E+00  0.0000E+00  0.0000E+00  0.0000E+00  0.0000E+00  0.0000E+00  0.0000E+00  0.0000E+00  0.0000E+00  0.0000E+00  0.0000E+00
     -4.615  0.0000E+00  0.0000E+00  0.0000E+00  0.0000E+00  0.0000E+00  0.0000E+00  0.0000E+00  0.0000E+00  0.0000E+00  0.0000E+00  0.0000E+00  0.0000E+00  0.0000E+00  0.0000E+00  0.0000E+00  0.0000E+00  0.0000E+00  0.0000E+00
     -4.441  0.0000E+00  0.0000E+00  0.0000E+00  0.0000E+00  0.0000E+00  0.0000E+00  0.0000E+00  0.0000E+00  0.0000E+00  0.0000E+00  0.0000E+00  0.0000E+00  0.0000E+00  0.0000E+00  0.0000E+00  0.0000E+00  0.0000E+00  0.0000E+00
     -4.267 -0.6244E-33  0.0000E+00 -0.5470E-63  0.0000E+00 -0.5470E-63  0.0000E+00 -0.5470E-63  0.0000E+00 -0.5114E-46  0.0000E+00 -0.5114E-46  0.0000E+00 -0.9153E-49  0.0000E+00 -0.5114E-46  0.0000E+00 -0.9153E-49  0.0000E+00
     -4.092 -0.6058E-27 -0.1558E-32 -0.2050E-33  0.0000E+00 -0.2050E-33  0.0000E+00 -0.2050E-33  0.0000E+00 -0.4961E-40 -0.6530E-45 -0.4961E-40 -0.6530E-45 -0.3585E-35 -0.1971E-45 -0.4961E-40 -0.6530E-45 -0.3585E-35 -0.1971E-45
     -3.918 -0.1267E-21 -0.1372E-26 -0.1532E-27 -0.4790E-33 -0.1532E-27 -0.4790E-33 -0.1532E-27 -0.4790E-33 -0.2649E-33 -0.5752E-39 -0.2649E-33 -0.5752E-39 -0.2678E-29 -0.5870E-35 -0.2649E-33 -0.5752E-39 -0.2678E-29 -0.5870E-35
     -3.743 -0.5561E-17 -0.2606E-21 -0.2467E-22 -0.3268E-27 -0.2467E-22 -0.3268E-27 -0.2467E-22 -0.3268E-27 -0.1446E-27 -0.4943E-33 -0.1446E-27 -0.4943E-33 -0.4312E-24 -0.4004E-29 -0.1446E-27 -0.4943E-33 -0.4312E-24 -0.4004E-29
     -3.569 -0.5256E-13 -0.1029E-16 -0.8260E-18 -0.4803E-22 -0.8260E-18 -0.4803E-22 -0.8260E-18 -0.4803E-22 -0.1759E-22 -0.2051E-27 -0.1759E-22 -0.2051E-27 -0.1443E-19 -0.5885E-24 -0.1759E-22 -0.2051E-27 -0.1443E-19 -0.5885E-24
     -3.395 -0.1055E-09 -0.8888E-13 -0.6025E-14 -0.1468E-17 -0.6025E-14 -0.1468E-17 -0.6025E-14 -0.1468E-17 -0.4450E-18 -0.2258E-22 -0.4450E-18 -0.2258E-22 -0.1052E-15 -0.1798E-19 -0.4450E-18 -0.2258E-22 -0.1052E-15 -0.1798E-19
     -3.220 -0.4429E-07 -0.1617E-09 -0.9242E-11 -0.9760E-14 -0.9242E-11 -0.9760E-14 -0.9242E-11 -0.9760E-14 -0.2448E-14 -0.5246E-18 -0.2448E-14 -0.5246E-18 -0.1608E-12 -0.1194E-15 -0.2448E-14 -0.5246E-18 -0.1608E-12 -0.1194E-15
     -3.046 -0.3872E-05 -0.6142E-07 -0.2934E-08 -0.1364E-10 -0.2934E-08 -0.1364E-10 -0.2934E-08 -0.1364E-10 -0.2816E-11 -0.2653E-14 -0.2816E-11 -0.2653E-14 -0.5039E-10 -0.1663E-12 -0.2816E-11 -0.2653E-14 -0.5039E-10 -0.1663E-12
     -2.871 -0.7090E-04 -0.4855E-05 -0.1877E-06 -0.3938E-08 -0.1877E-06 -0.3938E-08 -0.1877E-06 -0.3938E-08 -0.6591E-09 -0.2802E-11 -0.6591E-09 -0.2802E-11 -0.3068E-08 -0.4733E-10 -0.6591E-09 -0.2802E-11 -0.3068E-08 -0.4733E-10
     -2.697 -0.1755E-03 -0.8007E-04 -0.2180E-05 -0.2283E-06 -0.2180E-05 -0.2283E-06 -0.2180E-05 -0.2283E-06 -0.2928E-07 -0.6007E-09 -0.2928E-07 -0.6007E-09 -0.2860E-07 -0.2599E-08 -0.2928E-07 -0.6007E-09 -0.2860E-07 -0.2599E-08
     -2.522  0.1901E-02 -0.1527E-03  0.2271E-05 -0.2357E-05  0.2271E-05 -0.2357E-05  0.2271E-05 -0.2357E-05 -0.1663E-06 -0.2425E-07 -0.1663E-06 -0.2425E-07  0.8848E-07 -0.2087E-07 -0.1663E-06 -0.2425E-07  0.8848E-07 -0.2087E-07
     -2.348  0.9589E-02  0.2198E-02  0.6247E-04  0.3735E-05  0.6247E-04  0.3735E-05  0.6247E-04  0.3735E-05  0.9818E-06 -0.1168E-06  0.9818E-06 -0.1168E-06  0.5490E-06  0.7964E-07  0.9818E-06 -0.1168E-06  0.5490E-06  0.7964E-07
     -2.174  0.1390E-01  0.1004E-01  0.1354E-03  0.6795E-04  0.1354E-03  0.6795E-04  0.1354E-03  0.6795E-04  0.3875E-05  0.8106E-06  0.3875E-05  0.8106E-06  0.2219E-06  0.4000E-06  0.3875E-05  0.8106E-06  0.2219E-06  0.4000E-06
     -1.999  0.1238E-01  0.1374E-01  0.2089E-03  0.1374E-03  0.2089E-03  0.1374E-03  0.2089E-03  0.1374E-03  0.5108E-05  0.2855E-05  0.5108E-05  0.2855E-05  0.8840E-05  0.1998E-06  0.5108E-05  0.2855E-05  0.8840E-05  0.1998E-06
     -1.825  0.2606E-01  0.1232E-01  0.6391E-03  0.2148E-03  0.6391E-03  0.2148E-03  0.6391E-03  0.2148E-03  0.3062E-04  0.3695E-05  0.3062E-04  0.3695E-05  0.3194E-04  0.6406E-05  0.3062E-04  0.3695E-05  0.3194E-04  0.6406E-05
     -1.650  0.2542E-01  0.2626E-01  0.6831E-03  0.6530E-03  0.6831E-03  0.6530E-03  0.6831E-03  0.6530E-03  0.4568E-04  0.2173E-04  0.4568E-04  0.2173E-04  0.2490E-04  0.2163E-04  0.4568E-04  0.2173E-04  0.2490E-04  0.2163E-04
     -1.476  0.1254E-01  0.2490E-01  0.4459E-03  0.6780E-03  0.4459E-03  0.6780E-03  0.4459E-03  0.6780E-03  0.5465E-04  0.3134E-04  0.5465E-04  0.3134E-04  0.1656E-04  0.1628E-04  0.5465E-04  0.3134E-04  0.1656E-04  0.1628E-04
     -1.302  0.2978E-01  0.1180E-01  0.1301E-02  0.4260E-03  0.1301E-02  0.4260E-03  0.1301E-02  0.4260E-03  0.1460E-03  0.3468E-04  0.1460E-03  0.3468E-04  0.1084E-03  0.9662E-05  0.1460E-03  0.3468E-04  0.1084E-03  0.9662E-05
     -1.127  0.3627E-01  0.2875E-01  0.1762E-02  0.1269E-02  0.1762E-02  0.1269E-02  0.1762E-02  0.1269E-02  0.1524E-03  0.9574E-04  0.1524E-03  0.9574E-04  0.2421E-03  0.6363E-04  0.1524E-03  0.9574E-04  0.2421E-03  0.6363E-04
     -0.953  0.2621E-01  0.3587E-01  0.1442E-02  0.1758E-02  0.1442E-02  0.1758E-02  0.1442E-02  0.1758E-02  0.1965E-03  0.1001E-03  0.1965E-03  0.1001E-03  0.1920E-03  0.1507E-03  0.1965E-03  0.1001E-03  0.1920E-03  0.1507E-03
     -0.778  0.3542E-01  0.2540E-01  0.2255E-02  0.1398E-02  0.2255E-02  0.1398E-02  0.2255E-02  0.1398E-02  0.5537E-03  0.1099E-03  0.5537E-03  0.1099E-03  0.2780E-03  0.1167E-03  0.5537E-03  0.1099E-03  0.2780E-03  0.1167E-03
     -0.604  0.3283E-01  0.3102E-01  0.2163E-02  0.2012E-02  0.2163E-02  0.2012E-02  0.2163E-02  0.2012E-02  0.5459E-03  0.2951E-03  0.5459E-03  0.2951E-03  0.2629E-03  0.1417E-03  0.5459E-03  0.2951E-03  0.2629E-03  0.1417E-03
     -0.430  0.2126E-01  0.3731E-01  0.1757E-02  0.2530E-02  0.1757E-02  0.2530E-02  0.1757E-02  0.2530E-02  0.3278E-03  0.3991E-03  0.3278E-03  0.3991E-03  0.4821E-03  0.1734E-03  0.3278E-03  0.3991E-03  0.4821E-03  0.1734E-03
     -0.255  0.5244E-01  0.1577E-01  0.4563E-02  0.1236E-02  0.4563E-02  0.1236E-02  0.4563E-02  0.1236E-02  0.1222E-02  0.1400E-03  0.1222E-02  0.1400E-03  0.1343E-02  0.1624E-03  0.1222E-02  0.1400E-03  0.1343E-02  0.1624E-03
     -0.081  0.4691E-01  0.4207E-01  0.4284E-02  0.3757E-02  0.4284E-02  0.3757E-02  0.4284E-02  0.3757E-02  0.1616E-02  0.5117E-03  0.1616E-02  0.5117E-03  0.1475E-02  0.6176E-03  0.1616E-02  0.5117E-03  0.1475E-02  0.6176E-03
      0.094  0.4005E-01  0.4733E-01  0.4022E-02  0.4341E-02  0.4022E-02  0.4341E-02  0.4022E-02  0.4341E-02  0.1758E-02  0.8155E-03  0.1758E-02  0.8155E-03  0.1435E-02  0.7215E-03  0.1758E-02  0.8155E-03  0.1435E-02  0.7215E-03
      0.268  0.3547E-01  0.3981E-01  0.3748E-02  0.4048E-02  0.3748E-02  0.4048E-02  0.3748E-02  0.4048E-02  0.2558E-02  0.9518E-03  0.2558E-02  0.9518E-03  0.1230E-02  0.7870E-03  0.2558E-02  0.9518E-03  0.1230E-02  0.7870E-03
      0.442  0.4854E-01  0.3761E-01  0.5558E-02  0.4070E-02  0.5558E-02  0.4070E-02  0.5558E-02  0.4070E-02  0.4278E-02  0.1035E-02  0.4278E-02  0.1035E-02  0.3297E-02  0.6268E-03  0.4278E-02  0.1035E-02  0.3297E-02  0.6268E-03
      0.617  0.4913E-01  0.2409E-01  0.6504E-02  0.2800E-02  0.6504E-02  0.2800E-02  0.6504E-02  0.2800E-02  0.3556E-02  0.1037E-02  0.3556E-02  0.1037E-02  0.5244E-02  0.3625E-03  0.3556E-02  0.1037E-02  0.5244E-02  0.3625E-03
      0.791  0.7351E-01  0.4629E-01  0.9933E-02  0.5817E-02  0.9933E-02  0.5817E-02  0.9933E-02  0.5817E-02  0.1044E-01  0.2285E-02  0.1044E-01  0.2285E-02  0.8846E-02  0.1685E-02  0.1044E-01  0.2285E-02  0.8846E-02  0.1685E-02
      0.966  0.7904E-01  0.4798E-01  0.8907E-02  0.6591E-02  0.8907E-02  0.6591E-02  0.8907E-02  0.6591E-02  0.2772E-01  0.1837E-02  0.2772E-01  0.1837E-02  0.2360E-01  0.2460E-02  0.2772E-01  0.1837E-02  0.2360E-01  0.2460E-02
      1.140  0.7434E-01  0.4780E-01  0.7598E-02  0.7268E-02  0.7598E-02  0.7268E-02  0.7598E-02  0.7268E-02  0.4522E-01  0.2586E-02  0.4522E-01  0.2586E-02  0.5935E-01  0.2543E-02  0.4522E-01  0.2586E-02  0.5935E-01  0.2543E-02
      1.314  0.1007E+00  0.5688E-01  0.1528E-01  0.8596E-02  0.1528E-01  0.8596E-02  0.1528E-01  0.8596E-02  0.5796E-01  0.4448E-02  0.5796E-01  0.4448E-02  0.1109E+00  0.3424E-02  0.5796E-01  0.4448E-02  0.1109E+00  0.3424E-02
      1.489  0.8712E-01  0.3837E-01  0.1566E-01  0.5834E-02  0.1566E-01  0.5834E-02  0.1566E-01  0.5834E-02  0.6098E-01  0.4560E-02  0.6098E-01  0.4560E-02  0.1490E+00  0.3209E-02  0.6098E-01  0.4560E-02  0.1490E+00  0.3209E-02
      1.663  0.6997E-01  0.4568E-01  0.1902E-01  0.7569E-02  0.1902E-01  0.7569E-02  0.1902E-01  0.7569E-02  0.6067E-01  0.6252E-02  0.6067E-01  0.6252E-02  0.2161E+00  0.3606E-02  0.6067E-01  0.6252E-02  0.2161E+00  0.3606E-02
      1.838  0.6846E-01  0.5349E-01  0.2243E-01  0.9475E-02  0.2243E-01  0.9475E-02  0.2243E-01  0.9475E-02  0.7887E-01  0.9065E-02  0.7887E-01  0.9065E-02  0.2237E+00  0.6528E-02  0.7887E-01  0.9065E-02  0.2237E+00  0.6528E-02
      2.012  0.3328E-01  0.6277E-01  0.1242E-01  0.1185E-01  0.1242E-01  0.1185E-01  0.1242E-01  0.1185E-01  0.6490E-01  0.1125E-01  0.6490E-01  0.1125E-01  0.1451E+00  0.1183E-01  0.6490E-01  0.1125E-01  0.1451E+00  0.1183E-01
      2.186  0.1799E-01  0.6777E-01  0.9528E-02  0.1216E-01  0.9528E-02  0.1216E-01  0.9528E-02  0.1216E-01  0.6056E-01  0.2096E-01  0.6056E-01  0.2096E-01  0.9728E-01  0.1869E-01  0.6056E-01  0.2096E-01  0.9728E-01  0.1869E-01
      2.361  0.9395E-02  0.9269E-01  0.9348E-02  0.1474E-01  0.9348E-02  0.1474E-01  0.9348E-02  0.1474E-01  0.6587E-01  0.4153E-01  0.6587E-01  0.4153E-01  0.8757E-01  0.2886E-01  0.6587E-01  0.4153E-01  0.8757E-01  0.2886E-01
      2.535  0.2678E-02  0.5671E-01  0.1879E-01  0.8655E-02  0.1879E-01  0.8655E-02  0.1879E-01  0.8655E-02  0.2405E+00  0.3353E-01  0.2405E+00  0.3353E-01  0.1427E+00  0.2252E-01  0.2405E+00  0.3353E-01  0.1427E+00  0.2252E-01
      2.710  0.3300E-02  0.6565E-01  0.2066E-01  0.1374E-01  0.2066E-01  0.1374E-01  0.2066E-01  0.1374E-01  0.3301E+00  0.4188E-01  0.3301E+00  0.4188E-01  0.1452E+00  0.3671E-01  0.3301E+00  0.4188E-01  0.1452E+00  0.3671E-01
      2.884  0.6938E-02  0.6839E-01  0.1548E-01  0.1757E-01  0.1548E-01  0.1757E-01  0.1548E-01  0.1757E-01  0.2491E+00  0.4034E-01  0.2491E+00  0.4034E-01  0.1191E+00  0.5396E-01  0.2491E+00  0.4034E-01  0.1191E+00  0.5396E-01
      3.058  0.1002E-01  0.5337E-01  0.2057E-01  0.1597E-01  0.2057E-01  0.1597E-01  0.2057E-01  0.1597E-01  0.2188E+00  0.4670E-01  0.2188E+00  0.4670E-01  0.1059E+00  0.8738E-01  0.2188E+00  0.4670E-01  0.1059E+00  0.8738E-01
      3.233  0.1595E-01  0.4725E-01  0.3059E-01  0.1947E-01  0.3059E-01  0.1947E-01  0.3059E-01  0.1947E-01  0.2734E+00  0.4696E-01  0.2734E+00  0.4696E-01  0.1074E+00  0.1428E+00  0.2734E+00  0.4696E-01  0.1074E+00  0.1428E+00
      3.407  0.1956E-01  0.3471E-01  0.3316E-01  0.1767E-01  0.3316E-01  0.1767E-01  0.3316E-01  0.1767E-01  0.3168E+00  0.4671E-01  0.3168E+00  0.4671E-01  0.1367E+00  0.1408E+00  0.3168E+00  0.4671E-01  0.1367E+00  0.1408E+00
      3.582  0.1539E-01  0.2409E-01  0.2630E-01  0.1435E-01  0.2630E-01  0.1435E-01  0.2630E-01  0.1435E-01  0.2519E+00  0.5537E-01  0.2519E+00  0.5537E-01  0.1040E+00  0.1093E+00  0.2519E+00  0.5537E-01  0.1040E+00  0.1093E+00
      3.756  0.9412E-02  0.9571E-02  0.1707E-01  0.7802E-02  0.1707E-01  0.7802E-02  0.1707E-01  0.7802E-02  0.1400E+00  0.2940E-01  0.1400E+00  0.2940E-01  0.4047E-01  0.6750E-01  0.1400E+00  0.2940E-01  0.4047E-01  0.6750E-01