    2    2  100    2
  0.1173411E+02  0.2863035E-09  0.2863035E-09  0.2863035E-09  0.5000000E-15
  1.000000000000000E-004
  CAR 
 unknown system                          
     16     84     20
 
  0.0000000E+00  0.0000000E+00  0.0000000E+00  0.5787037E-03
    1       -2.585905     -2.422502   1.000000   1.000000
    2        1.004628      2.816048   1.000000   1.000000
    3        1.004629      2.816189   1.000000   1.000000
    4        3.572691      5.464211   1.000000   1.005357
    5        3.572692      5.464345   1.000000   1.005369
    6        3.572692      5.464355   1.000000   1.005370
    7        4.790591      7.532973   1.000000  -0.000000
    8        4.790592      7.533137   1.000000  -0.000000
    9        6.010646      8.175635   0.073817  -0.000000
   10        6.010648      8.175760   0.073814  -0.000000
   11        6.010648      8.175771   0.073814  -0.000000
   12       15.849231     16.114358   0.000000   0.000000
   13       15.849231     16.114358   0.000000   0.000000
   14       15.849231     16.114361   0.000000   0.000000
   15       21.580902     22.636420   0.000000   0.000000
   16       21.580904     22.636432   0.000000   0.000000
   17       26.753662     27.852548   0.000000   0.000000
   18       30.949620     30.696229   0.000000   0.000000
   19       30.949620     30.696230   0.000000   0.000000
   20       30.949620     30.696230   0.000000   0.000000
 
  0.8333333E-01 -0.6162976E-32  0.0000000E+00  0.3472222E-02
    1       -2.441221     -2.277158   1.000000   1.000000
    2        1.066666      2.867860   1.000000   1.000000
    3        1.068938      2.889776   1.000000   1.000000
    4        3.571636      5.457826   1.000000   1.004778
    5        3.571637      5.457970   1.000000   1.004790
    6        3.612434      5.508100   1.000000   1.010934
    7        4.725748      7.448556   1.000000  -0.000000
    8        4.816208      7.565353   1.000000  -0.000000
    9        5.889261      8.016179   0.494045  -0.000000
   10        5.889262      8.016313   0.494038  -0.000000
   11        5.967653      8.127481   0.190294  -0.000000
   12       14.853878     15.284969   0.000000   0.000000
   13       16.122991     16.427371   0.000000   0.000000
   14       16.122991     16.427373   0.000000   0.000000
   15       21.622821     22.665467   0.000000   0.000000
   16       22.310649     23.230074   0.000000   0.000000
   17       27.232549     28.307169   0.000000   0.000000
   18       30.026668     29.887945   0.000000   0.000000
   19       30.816155     30.626564   0.000000   0.000000
   20       30.816155     30.626565   0.000000   0.000000
 
  0.1666667E+00  0.0000000E+00  0.0000000E+00  0.3472222E-02
    1       -2.016316     -1.848724   1.000000   1.000000
    2        1.242766      2.993080   1.000000   1.000000
    3        1.248921      3.106750   1.000000   1.000000
    4        3.574755      5.446625   1.000000   1.003885
    5        3.574756      5.446768   1.000000   1.003896
    6        3.729331      5.636900   1.000000   1.035325
    7        4.535073      7.200718   1.000000  -0.000000
    8        4.890644      7.610689   1.000000  -0.000000
    9        5.569126      7.610821   1.023360  -0.000000
   10        5.569127      7.655981   1.023360  -0.000000
   11        5.841151      7.985483   0.691767  -0.000000
   12       12.865577     13.554483   0.000000   0.000000
   13       16.896916     17.289748   0.000000   0.000000
   14       16.896917     17.289751   0.000000   0.000000
   15       21.751404     22.755899   0.000000   0.000000
   16       23.330108     24.110254   0.000000   0.000000
   17       28.380825     28.397974   0.000000   0.000000
   18       28.862772     29.847692   0.000000   0.000000
   19       30.163278     30.204556   0.000000   0.000000
   20       30.163279     30.204560   0.000000   0.000000
 
  0.2500000E+00 -0.6162976E-32  0.0000000E+00  0.3472222E-02
    1       -1.341733     -1.161546   1.000000   1.000000
    2        1.467913      3.099355   1.000000   1.000000
    3        1.541194      3.456703   1.000000   1.000000
    4        3.599323      5.452247   1.000000   1.004314
    5        3.599324      5.452389   1.000000   1.004326
    6        3.916397      5.843253   1.000000   0.683614
    7        4.230271      6.806462   1.000000  -0.000000
    8        5.010631      7.101463   1.000000  -0.000000
    9        5.146972      7.101594   1.000001  -0.000000
   10        5.146974      7.760902   1.000001  -0.000000
   11        5.640850      7.788541   1.035442  -0.000000
   12       10.749465     11.726635  -0.000000   0.000000
   13       18.067068     18.551386   0.000000   0.000000
   14       18.067068     18.551391   0.000000   0.000000
   15       21.978561     22.919601   0.000000   0.000000
   16       23.939733     24.633543   0.000000   0.000000
   17       26.799180     26.964635   0.000000   0.000000
   18       28.757173     29.091655   0.000000   0.000000
   19       28.757174     29.091662   0.000000   0.000000
   20       30.619653     31.045573   0.000000   0.000000
 
  0.3333333E+00  0.0000000E+00  0.0000000E+00  0.3472222E-02
    1       -0.481105     -0.261758   1.000000   1.000000
    2        1.642733      3.028958   1.000000   1.000000
    3        1.926246      3.921763   1.000000   1.000000
    4        3.667834      5.503127   1.000000   1.010151
    5        3.667835      5.503266   1.000000   1.010173
    6        3.831881      6.114948   1.000000  -0.034075
    7        4.162250      6.295144   1.000000  -0.007094
    8        4.713351      6.601651   1.000000  -0.000003
    9        4.713352      6.601782   1.000000  -0.000003
   10        5.190056      7.471048   1.000005  -0.000000
   11        5.381763      7.947771   1.001010  -0.000000
   12        8.803187     10.166630  -0.000000  -0.000000
   13       19.530898     20.086094   0.000000   0.000000
   14       19.530899     20.086097   0.000000   0.000000
   15       22.323332     23.176163   0.000000   0.000000
   16       24.414643     25.018457   0.000000   0.000000
   17       25.444442     25.760303   0.000000   0.000000
   18       26.920415     27.431872   0.000000   0.000000
   19       26.920416     27.431878   0.000000   0.000000
   20       28.718276     29.130238   0.000000   0.000000
 
  0.4166667E+00  0.1232595E-31  0.0000000E+00  0.3472222E-02
    1        0.441166      0.770007   1.000000   1.000000
    2        1.610940      2.604518   1.000000   1.000000
    3        2.379934      4.475776   1.000000   1.000000
    4        3.367750      5.627628   1.000000   1.034649
    5        3.802798      5.627765   1.000000   1.034663
    6        3.802799      5.705830   1.000000   1.013110
    7        4.327402      6.174078   1.000000  -0.030580
    8        4.327403      6.174210   1.000000  -0.030554
    9        4.451513      6.435336   1.000000  -0.000376
   10        5.082739      7.137256   1.000000  -0.000000
   11        5.498502      8.144770   1.009459  -0.000000
   12        7.205519      9.074118  -0.000000  -0.000000
   13       21.208560     21.807368   0.000000   0.000000
   14       21.208560     21.807369   0.000000   0.000000
   15       22.811353     23.552956   0.000000   0.000000
   16       24.340422     24.807171   0.000000   0.000000
   17       24.967483     25.532238   0.000000   0.000000
   18       24.967484     25.557318   0.000000   0.000000
   19       25.016847     25.557322   0.000000   0.000000
   20       27.126685     27.540982   0.000000   0.000000
 
  0.5000000E+00 -0.1232595E-31  0.0000000E+00  0.1736111E-02
    1        1.210058      1.794385   1.000000   1.000000
    2        1.210058      1.794385   1.000000   1.000000
    3        2.872140      5.084521   1.000000   1.000000
    4        2.872140      5.084521   1.000000   1.000000
    5        4.020900      5.847971   1.000000   0.665091
    6        4.020900      5.847971   1.000000   0.665091
    7        4.020901      5.848106   1.000000   0.664559
    8        4.020901      5.848106   1.000000   0.664559
    9        4.765526      6.784125   1.000000  -0.000000
   10        4.765526      6.784125   1.000000  -0.000000
   11        6.105922      8.460264  -0.032141  -0.000000
   12        6.105922      8.460264  -0.032141  -0.000000
   13       23.039741     23.652183   0.000000   0.000000
   14       23.039741     23.652183   0.000000   0.000000
   15       23.039742     23.652184   0.000000   0.000000
   16       23.039742     23.652184   0.000000   0.000000
   17       23.473503     24.084269   0.000000   0.000000
   18       23.473503     24.084269   0.000000   0.000000
   19       25.896082     26.344161   0.000000   0.000000
   20       25.896082     26.344161   0.000000   0.000000
 
  0.8333333E-01  0.8333333E-01  0.0000000E+00  0.6944444E-02
    1       -2.298307     -2.133319   1.000000   1.000000
    2        1.125549      2.934138   1.000000   1.000000
    3        1.134367      2.946530   1.000000   1.000000
    4        3.494445      5.370225   1.000000   1.000774
    5        3.564437      5.445195   1.000000   1.003782
    6        3.727691      5.632899   1.000000   1.035098
    7        4.716392      7.433005   1.000000  -0.000000
    8        4.797047      7.540346   1.000000  -0.000000
    9        5.676089      7.760140   1.030204  -0.000000
   10        5.767777      7.857653   0.920185  -0.000000
   11        6.028941      8.196141   0.038243  -0.000000
   12       14.886109     15.371904   0.000000   0.000000
   13       15.327030     15.779230   0.000000   0.000000
   14       16.384013     16.719855   0.000000   0.000000
   15       21.995433     22.962904   0.000000   0.000000
   16       22.808528     23.646632   0.000000   0.000000
   17       27.650857     28.710525   0.000000   0.000000
   18       29.190863     29.196386   0.000000   0.000000
   19       30.500527     30.340062   0.000000   0.000000
   20       30.755906     30.604112   0.000000   0.000000
 
  0.1666667E+00  0.8333333E-01  0.0000000E+00  0.1388889E-01
    1       -1.879181     -1.709632   1.000000   1.000000
    2        1.292037      3.065025   1.000000   1.000000
    3        1.318188      3.151005   1.000000   1.000000
    4        3.436191      5.294928   1.000000   1.000114
    5        3.550181      5.416893   1.000000   1.002161
    6        3.903862      5.824527   1.000000   0.753646
    7        4.569448      7.234112   1.000000  -0.000000
    8        4.859532      7.313464   1.000000  -0.000000
    9        5.306672      7.462941   1.000157  -0.000000
   10        5.452244      7.615826   1.004314  -0.000000
   11        5.983377      8.142168   0.142442  -0.000000
   12       13.042097     13.761718   0.000000   0.000000
   13       15.864136     16.419288   0.000000   0.000000
   14       17.127292     17.536687   0.000000   0.000000
   15       22.238263     23.149052   0.000000   0.000000
   16       23.940075     24.642645   0.000000   0.000000
   17       27.487097     27.665330   0.000000   0.000000
   18       29.135616     29.733312   0.000000   0.000000
   19       29.722311     30.123664   0.000000   0.000000
   20       30.261617     30.298316   0.000000   0.000000
 
  0.2500000E+00  0.8333333E-01  0.0000000E+00  0.1388889E-01
    1       -1.216147     -1.031277   1.000000   1.000000
    2        1.519308      3.170154   1.000000   1.000000
    3        1.595927      3.485242   1.000000   1.000000
    4        3.420894      5.260804   1.000000   1.000043
    5        3.537824      5.391678   1.000000   1.001261
    6        4.126698      6.067697   1.000000  -0.011262
    7        4.322248      6.805540   1.000000  -0.000000
    8        4.874670      6.890052   1.000000  -0.000000
    9        4.982385      6.988601   1.000000  -0.000000
   10        5.046964      7.754252   1.000000  -0.000000
   11        5.829767      7.965280   0.734668  -0.000000
   12       10.918371     11.910912  -0.000000   0.000000
   13       16.894297     17.538553   0.000000   0.000000
   14       18.262238     18.751458   0.000000   0.000000
   15       22.521379     23.360568   0.000000   0.000000
   16       24.721386     25.344849   0.000000   0.000000
   17       25.737048     26.075187   0.000000   0.000000
   18       28.364846     28.572352   0.000000   0.000000
   19       28.902729     29.240700   0.000000   0.000000
   20       31.710470     32.491621   0.000000   0.000000
 
  0.3333333E+00  0.8333333E-01  0.0000000E+00  0.1388889E-01
    1       -0.375908     -0.145684   1.000000   1.000000
    2        1.690060      3.091526   1.000000   1.000000
    3        1.959861      3.923071   1.000000   1.000000
    4        3.462880      5.286213   1.000000   1.000089
    5        3.487794      5.375369   1.000000   1.000872
    6        4.072397      6.319613   1.000000  -0.004630
    7        4.392119      6.359035   1.000000  -0.002151
    8        4.447474      6.470435   1.000000  -0.000151
    9        4.653927      6.565478   1.000000  -0.000009
   10        5.165094      7.701932   1.000002  -0.000000
   11        5.597773      7.920077   1.029795  -0.000000
   12        8.951790     10.305503  -0.000000  -0.000000
   13       18.152039     18.857681   0.000000   0.000000
   14       19.694818     20.248661   0.000000   0.000000
   15       22.933496     23.676832   0.000000   0.000000
   16       24.087906     24.581635   0.000000   0.000000
   17       25.362219     25.912872   0.000000   0.000000
   18       26.827359     27.148006   0.000000   0.000000
   19       27.050049     27.566415   0.000000   0.000000
   20       30.252882     30.674004   0.000000   0.000000
 
  0.4166667E+00  0.8333333E-01  0.0000000E+00  0.1388889E-01
    1        0.515114      0.865530   1.000000   1.000000
    2        1.648547      2.662372   1.000000   1.000000
    3        2.385216      4.428841   1.000000   1.000000
    4        3.244416      5.286018   1.000000   1.000089
    5        3.578661      5.392468   1.000000   1.001283
    6        4.013287      5.908339   1.000000   0.413817
    7        4.073933      6.119560   1.000000  -0.034720
    8        4.344131      6.256479   1.000000  -0.012829
    9        4.689908      6.687896   1.000000  -0.000000
   10        5.314177      7.383056   1.000191  -0.000000
   11        5.489657      8.127254   1.008230  -0.000000
   12        7.312020      9.144733  -0.000000  -0.000000
   13       19.544306     20.271799   0.000000   0.000000
   14       21.349027     21.944237   0.000000   0.000000
   15       22.524102     23.147024   0.000000   0.000000
   16       23.521572     24.149920   0.000000   0.000000
   17       25.088502     25.678597   0.000000   0.000000
   18       25.443983     25.849315   0.000000   0.000000
   19       26.147103     26.633998   0.000000   0.000000
   20       28.595277     29.025723   0.000000   0.000000
 
  0.5000000E+00  0.8333333E-01  0.0000000E+00  0.6944444E-02
    1        1.253343      1.866113   1.000000   1.000000
    2        1.253343      1.866113   1.000000   1.000000
    3        2.834016      4.935954   1.000000   1.000000
    4        2.834017      4.935954   1.000000   1.000000
    5        3.781056      5.597175   1.000000   1.029670
    6        3.781056      5.597175   1.000000   1.029670
    7        4.134236      6.072486   1.000000  -0.015206
    8        4.134236      6.072486   1.000000  -0.015206
    9        5.003800      7.036403   1.000000  -0.000000
   10        5.003800      7.036403   1.000000  -0.000000
   11        6.147412      8.471011  -0.034715  -0.000000
   12        6.147412      8.471011  -0.034715  -0.000000
   13       21.011152     21.713207   0.000000   0.000000
   14       21.011152     21.713207   0.000000   0.000000
   15       23.164686     23.774360   0.000000   0.000000
   16       23.164686     23.774360   0.000000   0.000000
   17       24.341545     24.850334   0.000000   0.000000
   18       24.341545     24.850334   0.000000   0.000000
   19       27.213539     27.660504   0.000000   0.000000
   20       27.213539     27.660504   0.000000   0.000000
 
  0.1666667E+00  0.1666667E+00  0.0000000E+00  0.6944444E-02
    1       -1.479488     -1.301251   1.000000   1.000000
    2        1.418114      3.238067   1.000000   1.000000
    3        1.522309      3.287990   1.000000   1.000000
    4        3.284663      5.119130   1.000000   1.000000
    5        3.497788      5.345678   1.000000   1.000429
    6        4.166371      6.111876   1.000000  -0.033521
    7        4.605568      6.815275   1.000000  -0.000000
    8        4.819382      7.113399   1.000000  -0.000000
    9        4.876245      7.249099   1.000000  -0.000000
   10        5.158465      7.567149   1.000002  -0.000000
   11        6.078354      8.251215  -0.019470  -0.000000
   12       13.024783     13.808922   0.000000   0.000000
   13       14.443120     15.228228   0.000000   0.000000
   14       17.793885     18.245565   0.000000   0.000000
   15       22.610760     23.442832   0.000000   0.000000
   16       25.477582     26.028591   0.000000   0.000000
   17       25.669200     26.033055   0.000000   0.000000
   18       29.011731     29.036425   0.000000   0.000000
   19       30.168354     30.401381   0.000000   0.000000
   20       30.348559     31.143685   0.000000   0.000000
 
  0.2500000E+00  0.1666667E+00  0.0000000E+00  0.1388889E-01
    1       -0.856283     -0.651800   1.000000   1.000000
    2        1.586433      3.315153   1.000000   1.000000
    3        1.818943      3.596422   1.000000   1.000000
    4        3.187127      4.998069   1.000000   1.000000
    5        3.447326      5.265376   1.000000   1.000049
    6        4.420734      6.296570   1.000000  -0.006927
    7        4.458482      6.432127   1.000000  -0.000407
    8        4.501948      6.748941   1.000000  -0.000000
    9        4.812352      7.070567   1.000000  -0.000000
   10        4.909075      7.668142   1.000000  -0.000000
   11        6.046265      8.212375   0.012012  -0.000000
   12       11.273772     12.278196  -0.000000   0.000000
   13       14.952431     15.812964   0.000000   0.000000
   14       18.836039     19.339833   0.000000   0.000000
   15       22.885652     23.637289   0.000000   0.000000
   16       23.761404     24.267113   0.000000   0.000000
   17       26.765474     27.237372   0.000000   0.000000
   18       27.905894     28.020193   0.000000   0.000000
   19       29.330660     29.672563   0.000000   0.000000
   20       32.272379     32.863987   0.000000   0.000000
 
  0.3333333E+00  0.1666667E+00  0.0000000E+00  0.1388889E-01
    1       -0.088942      0.185905   1.000000   1.000000
    2        1.706849      3.196551   1.000000   1.000000
    3        2.164630      3.986753   1.000000   1.000000
    4        3.161449      4.953303   1.000000   1.000000
    5        3.378457      5.185085   1.000000   1.000004
    6        3.997316      5.824725   1.000000   0.752936
    7        4.377799      6.520165   1.000000  -0.000037
    8        4.534733      6.774637   1.000000  -0.000000
    9        4.769652      6.800141   1.000000  -0.000000
   10        5.092280      7.841939   1.000000  -0.000000
   11        5.903607      8.046847   0.433567  -0.000000
   12        9.304704     10.617684  -0.000000  -0.000000
   13       16.034376     16.915427   0.000000   0.000000
   14       20.181908     20.733383   0.000000   0.000000
   15       21.948924     22.577088   0.000000   0.000000
   16       23.240442     23.891199   0.000000   0.000000
   17       26.619617     26.829456   0.000000   0.000000
   18       27.425325     27.957939   0.000000   0.000000
   19       27.725494     28.162514   0.000000   0.000000
   20       32.618128     33.051311   0.000000   0.000000
 
  0.4166667E+00  0.1666667E+00  0.0000000E+00  0.1388889E-01
    1        0.686760      1.125027   1.000000   1.000000
    2        1.643209      2.766315   1.000000   1.000000
    3        2.533459      4.407842   1.000000   1.000000
    4        3.202336      5.004223   1.000000   1.000000
    5        3.223304      5.054347   1.000000   1.000000
    6        3.644082      5.440267   1.000000   1.003443
    7        4.350660      6.455895   1.000000  -0.000222
    8        4.397381      6.574999   1.000000  -0.000007
    9        5.088035      7.127242   1.000000  -0.000000
   10        5.461798      7.789287   1.005132  -0.000000
   11        5.678075      8.072568   1.029485  -0.000000
   12        7.579652      9.313302  -0.000000  -0.000000
   13       17.306051     18.168942   0.000000   0.000000
   14       20.266127     20.997068   0.000000   0.000000
   15       21.766105     22.352151   0.000000   0.000000
   16       23.748737     24.283388   0.000000   0.000000
   17       25.431363     25.738250   0.000000   0.000000
   18       25.440124     26.031399   0.000000   0.000000
   19       28.695612     29.107010   0.000000   0.000000
   20       31.173871     31.574985   0.000000   0.000000
 
  0.5000000E+00  0.1666667E+00  0.0000000E+00  0.6944444E-02
    1        1.301392      2.036329   1.000000   1.000000
    2        1.301392      2.036329   1.000000   1.000000
    3        2.897867      4.791536   1.000000   1.000000
    4        2.897867      4.791536   1.000000   1.000000
    5        3.383287      5.164671   1.000000   1.000002
    6        3.383287      5.164671   1.000000   1.000002
    7        4.366443      6.474924   1.000000  -0.000133
    8        4.366443      6.474924   1.000000  -0.000133
    9        5.397988      7.473397   1.001448  -0.000000
   10        5.397988      7.473397   1.001448  -0.000000
   11        6.261238      8.491618  -0.011995  -0.000000
   12        6.261238      8.491618  -0.011995  -0.000000
   13       18.718944     19.529547   0.000000   0.000000
   14       18.718944     19.529547   0.000000   0.000000
   15       23.534612     24.136470   0.000000   0.000000
   16       23.534612     24.136470   0.000000   0.000000
   17       24.467525     24.883624   0.000000   0.000000
   18       24.467525     24.883624   0.000000   0.000000
   19       29.837006     30.234770   0.000000   0.000000
   20       29.837006     30.234770   0.000000   0.000000
 
  0.2500000E+00  0.2500000E+00  0.0000000E+00  0.6944444E-02
    1       -0.318546     -0.059154   1.000000   1.000000
    2        1.633656      3.330732   1.000000   1.000000
    3        2.165821      3.878837   1.000000   1.000000
    4        3.007700      4.790472   1.000000   1.000000
    5        3.432064      5.156978   1.000000   1.000002
    6        3.962237      5.785289   1.000000   0.877059
    7        4.578782      6.568874   1.000000  -0.000008
    8        4.631530      6.817852   1.000000  -0.000000
    9        4.807478      7.185406   1.000000  -0.000000
   10        4.860807      7.621114   1.000000  -0.000000
   11        6.146262      8.327018  -0.034822  -0.000000
   12       11.047144     12.061301  -0.000000   0.000000
   13       13.805973     14.869082   0.000000   0.000000
   14       19.755761     20.281885   0.000000   0.000000
   15       21.750958     22.381546   0.000000   0.000000
   16       23.114017     23.774766   0.000000   0.000000
   17       27.178566     27.271897   0.000000   0.000000
   18       28.847873     29.190148   0.000000   0.000000
   19       29.958580     30.200290   0.000000   0.000000
   20       30.150109     30.896646   0.000000   0.000000
 
  0.3333333E+00  0.2500000E+00  0.0000000E+00  0.1388889E-01
    1        0.290446      0.680467   1.000000   1.000000
    2        1.615076      3.143978   1.000000   1.000000
    3        2.564497      4.260128   1.000000   1.000000
    4        2.908764      4.669168   1.000000   1.000000
    5        3.501199      5.101802   1.000000   1.000000
    6        3.555232      5.337737   1.000000   1.000352
    7        4.460395      6.564128   1.000000  -0.000009
    8        4.631641      7.103243   1.000000  -0.000000
    9        4.984398      7.200695   1.000000  -0.000000
   10        5.152394      7.738084   1.000001  -0.000000
   11        6.120276      8.295391  -0.034800  -0.000000
   12        9.568123     10.793412  -0.000000  -0.000000
   13       14.248947     15.331134   0.000000   0.000000
   14       19.869966     20.613038   0.000000   0.000000
   15       20.976074     21.527758   0.000000   0.000000
   16       23.401309     23.950768   0.000000   0.000000
   17       26.221849     26.348771   0.000000   0.000000
   18       27.975821     28.549863   0.000000   0.000000
   19       30.377469     30.683130   0.000000   0.000000
   20       30.940106     31.392450   0.000000   0.000000
 
  0.4166667E+00  0.2500000E+00  0.0000000E+00  0.1388889E-01
    1        0.834477      1.467564   1.000000   1.000000
    2        1.486894      2.757474   1.000000   1.000000
    3        2.907581      4.634949   1.000000   1.000000
    4        2.953175      4.654676   1.000000   1.000000
    5        3.233040      4.989592   1.000000   1.000000
    6        3.491852      5.059858   1.000000   1.000000
    7        4.487604      6.701931   1.000000  -0.000000
    8        4.643373      6.972132   1.000000  -0.000000
    9        5.411028      7.562852   1.001913  -0.000000
   10        5.476515      7.976997   1.006628  -0.000000
   11        5.984040      8.137808   0.140552  -0.000000
   12        7.865735      9.447113  -0.000000  -0.000000
   13       15.314808     16.341444   0.000000   0.000000
   14       18.160386     19.008425   0.000000   0.000000
   15       22.448726     23.023573   0.000000   0.000000
   16       23.825759     24.251067   0.000000   0.000000
   17       25.255835     25.456304   0.000000   0.000000
   18       25.982485     26.576580   0.000000   0.000000
   19       31.538408     31.862481   0.000000   0.000000
   20       32.048252     32.500464   0.000000   0.000000
 
  0.5000000E+00  0.2500000E+00  0.0000000E+00  0.6944444E-02
    1        1.232419      2.187392   1.000000   1.000000
    2        1.232419      2.187392   1.000000   1.000000
    3        3.014815      4.759998   1.000000   1.000000
    4        3.014815      4.759998   1.000000   1.000000
    5        3.283562      4.920745   1.000000   1.000000
    6        3.283562      4.920745   1.000000   1.000000
    7        4.586654      6.856423   1.000000  -0.000000
    8        4.586654      6.856423   1.000000  -0.000000
    9        5.761284      7.883895   0.934209  -0.000000
   10        5.761284      7.883895   0.934209  -0.000000
   11        6.406553      8.481110  -0.000755  -0.000000
   12        6.406553      8.481110  -0.000755  -0.000000
   13       16.637742     17.582311   0.000000   0.000000
   14       16.637742     17.582312   0.000000   0.000000
   15       24.129931     24.720474   0.000000   0.000000
   16       24.129931     24.720474   0.000000   0.000000
   17       24.439049     24.742715   0.000000   0.000000
   18       24.439049     24.742715   0.000000   0.000000
   19       32.556632     32.930056   0.000000   0.000000
   20       32.556632     32.930056   0.000000   0.000000
 
  0.3333333E+00  0.3333333E+00  0.0000000E+00  0.6944444E-02
    1        0.638300      1.248064   1.000000   1.000000
    2        1.460061      2.918657   1.000000   1.000000
    3        2.740065      4.475532   1.000000   1.000000
    4        3.052748      4.698804   1.000000   1.000000
    5        3.178009      4.925582   1.000000   1.000000
    6        3.910313      5.185807   1.000000   1.000004
    7        4.487654      6.725141   1.000000  -0.000000
    8        4.782519      7.262247   1.000000  -0.000000
    9        4.914721      7.597805   1.000000  -0.000000
   10        5.506853      7.695268   1.010734  -0.000000
   11        6.214633      8.403351  -0.021506  -0.000000
   12        9.154302     10.344693  -0.000000  -0.000000
   13       13.465491     14.705451   0.000000   0.000000
   14       17.972861     18.832863   0.000000   0.000000
   15       22.051697     22.608080   0.000000   0.000000
   16       23.603113     24.030323   0.000000   0.000000
   17       25.634945     25.720170   0.000000   0.000000
   18       28.069458     28.738675   0.000000   0.000000
   19       29.671584     30.049603   0.000000   0.000000
   20       32.762021     32.960186   0.000000   0.000000
 
  0.4166667E+00  0.3333333E+00  0.0000000E+00  0.1388889E-01
    1        0.893997      1.785146   1.000000   1.000000
    2        1.277825      2.606196   1.000000   1.000000
    3        2.675473      4.395660   1.000000   1.000000
    4        2.895988      4.621352   1.000000   1.000000
    5        3.535016      5.132694   1.000000   1.000001
    6        4.161382      5.371164   1.000000   1.000791
    7        4.603764      6.952163   1.000000  -0.000000
    8        4.832710      7.247367   1.000000  -0.000000
    9        5.332385      7.846730   1.000307  -0.000000
   10        5.811274      7.941258   0.799200  -0.000000
   11        6.185008      8.368137  -0.028281  -0.000000
   12        7.923917      9.322848  -0.000000  -0.000000
   13       13.869125     15.086082   0.000000   0.000000
   14       16.305430     17.288595   0.000000   0.000000
   15       23.374760     23.940182   0.000000   0.000000
   16       23.914367     24.211451   0.000000   0.000000
   17       24.972610     25.077483   0.000000   0.000000
   18       26.579984     27.181503   0.000000   0.000000
   19       30.333539     30.786486   0.000000   0.000000
   20       32.949256     33.416905   0.000000   0.000000
 
  0.5000000E+00  0.3333333E+00  0.0000000E+00  0.6944444E-02
    1        1.091976      2.234460   1.000000   1.000000
    2        1.091976      2.234460   1.000000   1.000000
    3        2.726352      4.442752   1.000000   1.000000
    4        2.726352      4.442752   1.000000   1.000000
    5        3.934455      5.398703   1.000000   1.001470
    6        3.934455      5.398703   1.000000   1.001470