       N       E                     dE             d eps       ncg     rms          rms(c)
DAV:   1     0.654126158568E+02    0.65413E+02   -0.60655E+03  7400   0.816E+02
DAV:   2    -0.132266412743E+02   -0.78639E+02   -0.69954E+02  6836   0.168E+02
DAV:   3    -0.160627158420E+02   -0.28361E+01   -0.27774E+01  7596   0.406E+01
DAV:   4    -0.160841273829E+02   -0.21412E-01   -0.21407E-01  7344   0.337E+00
DAV:   5    -0.160843888331E+02   -0.26145E-03   -0.26145E-03  7524   0.351E-01    0.196E+01
DAV:   6    -0.165713118313E+02   -0.48692E+00   -0.51856E+00  7440   0.440E+01    0.617E+00
DAV:   7    -0.165091030738E+02    0.62209E-01   -0.37757E-01  7960   0.949E+00    0.437E+00
DAV:   8    -0.164924485464E+02    0.16655E-01   -0.99422E-03  8620   0.100E+00    0.162E+00
DAV:   9    -0.164812492386E+02    0.11199E-01   -0.27916E-03  9984   0.931E-01    0.426E-01
DAV:  10    -0.164808972204E+02    0.35202E-03   -0.15782E-03  8044   0.630E-01    0.599E-02
DAV:  11    -0.164809246400E+02   -0.27420E-04   -0.70425E-05  8056   0.696E-02    0.476E-02
DAV:  12    -0.164809143776E+02    0.10262E-04   -0.26536E-06  6896   0.135E-02    0.196E-02
DAV:  13    -0.164809145224E+02   -0.14479E-06   -0.17777E-06  6512   0.111E-02
   1 F= -.16480915E+02 E0= -.16480240E+02  d E =-.164809E+02  mag=     4.4794
       N       E                     dE             d eps       ncg     rms          rms(c)
DAV:   1    -0.172200567641E+02   -0.73914E+00   -0.68717E+00  7368   0.434E+01    0.823E+00
DAV:   2    -0.165340034921E+02    0.68605E+00   -0.12904E+00  7336   0.253E+01    0.668E+00
DAV:   3    -0.164992424332E+02    0.34761E-01   -0.93417E-02  7904   0.555E+00    0.234E+00
DAV:   4    -0.164917978348E+02    0.74446E-02   -0.50483E-03  8352   0.791E-01    0.545E-01
DAV:   5    -0.164859169952E+02    0.58808E-02   -0.36317E-03  8316   0.485E-01    0.896E-02
DAV:   6    -0.164860225301E+02   -0.10553E-03   -0.33130E-04  7656   0.204E-01    0.492E-02
DAV:   7    -0.164860290063E+02   -0.64762E-05   -0.14636E-05  6972   0.393E-02    0.241E-02
DAV:   8    -0.164860250308E+02    0.39755E-05   -0.13597E-06  5948   0.169E-02    0.782E-03
DAV:   9    -0.164860245449E+02    0.48587E-06   -0.21564E-07  3556   0.646E-03
   2 F= -.16486025E+02 E0= -.16485866E+02  d E =-.511002E-02  mag=     4.2389
       N       E                     dE             d eps       ncg     rms          rms(c)
DAV:   1    -0.166511143210E+02   -0.16509E+00   -0.14118E+00  7324   0.206E+01    0.383E+00
DAV:   2    -0.165147456609E+02    0.13637E+00   -0.36284E-01  7376   0.121E+01    0.347E+00
DAV:   3    -0.165016904568E+02    0.13055E-01   -0.24251E-02  7896   0.304E+00    0.105E+00
DAV:   4    -0.165000478603E+02    0.16426E-02   -0.17029E-03  8784   0.508E-01    0.294E-01
DAV:   5    -0.164987629387E+02    0.12849E-02   -0.99035E-04  7824   0.269E-01    0.448E-02
DAV:   6    -0.164987847340E+02   -0.21795E-04   -0.35039E-05  6944   0.468E-02    0.224E-02
DAV:   7    -0.164987892832E+02   -0.45492E-05   -0.19587E-06  6436   0.149E-02    0.124E-02
DAV:   8    -0.164987917427E+02   -0.24595E-05   -0.32008E-07  3544   0.643E-03    0.283E-03
DAV:   9    -0.164987917595E+02   -0.16742E-07   -0.57577E-08  3424   0.228E-03
   3 F= -.16498792E+02 E0= -.16497861E+02  d E =-.178772E-01  mag=     4.3474
