 vasp.6.2.0 18Jan21 (build Aug 12 2022 13:00:08) complex                        
  
 executed on             LinuxIFC date 2024.11.04  04:47:59
 running on    4 total cores
 distrk:  each k-point on    4 cores,    1 groups
 distr:  one band on NCORE=   1 cores,    4 groups


--------------------------------------------------------------------------------------------------------


 INCAR:
   ISTART = 0            (Read existing wavefunction, if there)
   ISPIN = 2            (Non-Spin polarised DFT)
   MAGMOM = 5 5          (Set this parameters manually)
   GGA_COMPAT = .FALSE.   (Apply spherical cutoff on gradient field)
   VOSKOWN = 1        (Enhances the magnetic moments and the magnetic energies)
   LMAXMIX = 4        (For d elements increase LMAXMIX to 4, f: LMAXMIX \= 6)
   LREAL = .FALSE.       (Projection operators: automatic)
   ENCUT = 350          (Cut-off energy for plane wave basis set, in eV)
   LORBIT = 11           (Write orbital decomposed charge densities and magnetic moments)
   ADDGRID = .TRUE.        (Increase grid, helps GGA convergence)
   LASPH = .TRUE.        (Give more accurate total energies and band structure calculations)
   PREC = Accurate      (Accurate strictly avoids any aliasing or wrap around errors)
   KSPACING = 0.19
   ISMEAR = 1            (Gaussian smearing, metals:1)
   SIGMA = 0.2          (Smearing value in eV, metals:0.2)
   NELM = 90           (Max electronic SCF steps)
   NELMIN = 6            (Min electronic SCF steps)
   EDIFF = 1E-06        (SCF energy convergence, in eV)
   NSW = 100          (Max ionic steps)
   IBRION = 2            (Algorithm: 0-MD, 1-Quasi-New, 2-CG)
   ISIF = 3            (Stress/relaxation: 2-Ions, 3-Shape/Ions/V, 4-Shape/Ions)
   EDIFFG = -2E-03        (Ionic convergence, eV/AA)
   ISYM = 2              (Symmetry: 0\=none, 2\=GGA, 3\=hybrids)

 POTCAR:    PAW_PBE Fe 06Sep2000                  
 POTCAR:    PAW_PBE Fe 06Sep2000                  
   VRHFIN =Fe:  d7 s1                                                                               
   LEXCH  = PE                                                                                      
   EATOM  =   594.3153 eV,   43.6809 Ry                                                             
                                                                                                    
   TITEL  = PAW_PBE Fe 06Sep2000                                                                    
   LULTRA =        F    use ultrasoft PP ?                                                          
   IUNSCR =        1    unscreen: 0-lin 1-nonlin 2-no                                               
   RPACOR =    2.000    partial core radius                                                         
   POMASS =   55.847; ZVAL   =    8.000    mass and valenz                                          
   RCORE  =    2.300    outmost cutoff radius                                                       
   RWIGS  =    2.460; RWIGS  =    1.302    wigner-seitz radius (au A)                               
   ENMAX  =  267.882; ENMIN  =  200.911 eV                                                          
   RCLOC  =    1.701    cutoff for local pot                                                        
   LCOR   =        T    correct aug charges                                                         
   LPAW   =        T    paw PP                                                                      
   EAUG   =  511.368                                                                                
   DEXC   =    0.000                                                                                
   RMAX   =    2.356    core radius for proj-oper                                                   
   RAUG   =    1.300    factor for augmentation sphere                                              
   RDEP   =    2.442    radius for radial grids                                                     
   RDEPT  =    1.890    core radius for aug-charge                                                  
                                                                                                    
   Atomic configuration                                                                             
    9 entries                                                                                       
     n  l   j            E        occ.                                                              
     1  0  0.50     -6993.8440   2.0000                                                             
     2  0  0.50      -814.6047   2.0000                                                             
     2  1  1.50      -693.3689   6.0000                                                             
     3  0  0.50       -89.4732   2.0000                                                             
     3  1  1.50       -55.6373   6.0000                                                             
     3  2  2.50        -3.8151   7.0000                                                             
     4  0  0.50        -4.2551   1.0000                                                             
     4  1  1.50        -3.4015   0.0000                                                             
     4  3  2.50        -1.3606   0.0000                                                             
   Description                                                                                      
     l       E           TYP  RCUT    TYP  RCUT                                                     
     2     -3.8151135     23  2.300                                                                 
     2     -5.1756961     23  2.300                                                                 
     0     -4.2550963     23  2.300                                                                 
     0      7.2035603     23  2.300                                                                 
     1     -2.7211652     23  2.300                                                                 
     1     18.4316424     23  2.300                                                                 
  local pseudopotential read in
  partial core-charges read in
  partial kinetic energy density read in
  atomic valenz-charges read in
  non local Contribution for L=           2  read in
    real space projection operators read in
  non local Contribution for L=           2  read in
    real space projection operators read in
  non local Contribution for L=           0  read in
    real space projection operators read in
  non local Contribution for L=           0  read in
    real space projection operators read in
  non local Contribution for L=           1  read in
    real space projection operators read in
  non local Contribution for L=           1  read in
    real space projection operators read in
    PAW grid and wavefunctions read in
 
   number of l-projection  operators is LMAX  =           6
   number of lm-projection operators is LMMAX =          18
 
  PAW_PBE Fe 06Sep2000                  :
 energy of atom  1       EATOM= -594.3153
 kinetic energy error for atom=    0.0205 (will be added to EATOM!!)
 
 
 POSCAR: Fe2
  positions in direct lattice
  No initial velocities read in
 exchange correlation table for  LEXCH =        8
   RHO(1)=    0.500       N(1)  =     2000
   RHO(2)=  100.500       N(2)  =     4000
 


--------------------------------------------------------------------------------------------------------


 ion  position               nearest neighbor table
   1  0.000  0.000  0.000-   2 2.48   2 2.48   2 2.48   2 2.48   2 2.48   2 2.48   2 2.48   2 2.48

   2  0.500  0.500  0.500-   1 2.48   1 2.48   1 2.48   1 2.48   1 2.48   1 2.48   1 2.48   1 2.48

 
  LATTYP: Found a simple cubic cell.
 ALAT       =     2.8630354989
  
  Lattice vectors:
  
 A1 = (   2.8630354989,   0.0000000000,   0.0000000000)
 A2 = (   0.0000000000,   2.8630354989,   0.0000000000)
 A3 = (   0.0000000000,   0.0000000000,   2.8630354989)


Analysis of symmetry for initial positions (statically):
=====================================================================
 Subroutine PRICEL returns following result:
 
  LATTYP: Found a body centered cubic cell.
 ALAT       =     2.8630354989
  
  Lattice vectors:
  
 A1 = (   1.4315177495,   1.4315177495,  -1.4315177495)
 A2 = (  -1.4315177495,   1.4315177495,   1.4315177495)
 A3 = (   1.4315177495,  -1.4315177495,   1.4315177495)
 
   2 primitive cells build up your supercell.
 

 Routine SETGRP: Setting up the symmetry group for a 
 simple cubic supercell.


 Subroutine GETGRP returns: Found 48 space group operations
 (whereof 48 operations were pure point group operations)
 out of a pool of 48 trial point group operations.


The static configuration has the point symmetry O_h .


Analysis of symmetry for dynamics (positions and initial velocities):
=====================================================================
 Subroutine PRICEL returns following result:
 
  LATTYP: Found a body centered cubic cell.
 ALAT       =     2.8630354989
  
  Lattice vectors:
  
 A1 = (   1.4315177495,   1.4315177495,  -1.4315177495)
 A2 = (  -1.4315177495,   1.4315177495,   1.4315177495)
 A3 = (   1.4315177495,  -1.4315177495,   1.4315177495)
 
   2 primitive cells build up your supercell.
 

 Routine SETGRP: Setting up the symmetry group for a 
 simple cubic supercell.


 Subroutine GETGRP returns: Found 48 space group operations
 (whereof 48 operations were pure point group operations)
 out of a pool of 48 trial point group operations.


The dynamic configuration has the point symmetry O_h .


Analysis of structural, dynamic, and magnetic symmetry:
=====================================================================
 Subroutine PRICEL returns following result:
 
  LATTYP: Found a body centered cubic cell.
 ALAT       =     2.8630354989
  
  Lattice vectors:
  
 A1 = (   1.4315177495,   1.4315177495,  -1.4315177495)
 A2 = (  -1.4315177495,   1.4315177495,   1.4315177495)
 A3 = (   1.4315177495,  -1.4315177495,   1.4315177495)
 
   2 primitive cells build up your supercell.
 

 Routine SETGRP: Setting up the symmetry group for a 
 simple cubic supercell.


 Subroutine GETGRP returns: Found 48 space group operations
 (whereof 48 operations were pure point group operations)
 out of a pool of 48 trial point group operations.


The overall configuration has the point symmetry O_h .


 Subroutine INISYM returns: Found 48 space group operations
 (whereof 48 operations are pure point group operations),
 and found     2 'primitive' translations


----------------------------------------------------------------------------------------

                                     Primitive cell                                     

  volume of cell :      11.7341

  direct lattice vectors                    reciprocal lattice vectors
     1.431517749  1.431517749 -1.431517749     0.349279637  0.349279637  0.000000000
    -1.431517749  1.431517749  1.431517749     0.000000000  0.349279637  0.349279637
     1.431517749 -1.431517749  1.431517749     0.349279637 -0.000000000  0.349279637

  length of vectors
     2.479461474  2.479461474  2.479461474     0.493956000  0.493956000  0.493956000

  position of ions in fractional coordinates (direct lattice)
     0.000000000  0.000000000  0.000000000

  ion indices of the primitive-cell ions
   primitive index   ion index
                 1           1

----------------------------------------------------------------------------------------

 
 -----------------------------------------------------------------------------
|                                                                             |
|           W    W    AA    RRRRR   N    N  II  N    N   GGGG   !!!           |
|           W    W   A  A   R    R  NN   N  II  NN   N  G    G  !!!           |
|           W    W  A    A  R    R  N N  N  II  N N  N  G       !!!           |
|           W WW W  AAAAAA  RRRRR   N  N N  II  N  N N  G  GGG   !            |
|           WW  WW  A    A  R   R   N   NN  II  N   NN  G    G                |
|           W    W  A    A  R    R  N    N  II  N    N   GGGG   !!!           |
|                                                                             |
|     The requested file  could not be found or opened for reading            |
|     k-point information. Automatic k-point generation is used as a          |
|     fallback, which may lead to unwanted results.                           |
|                                                                             |
 -----------------------------------------------------------------------------

 

Automatic generation of k-mesh.
 Grid dimensions derived from KSPACING:
 generate k-points for:   12   12   12

 Generating k-lattice:

  Cartesian coordinates                     Fractional coordinates (reciprocal lattice)
     0.029106636 -0.000000000  0.000000000     0.083333333  0.000000000  0.000000000
     0.000000000  0.029106636  0.000000000     0.000000000  0.083333333  0.000000000
    -0.000000000 -0.000000000  0.029106636     0.000000000  0.000000000  0.083333333

  Length of vectors
     0.029106636  0.029106636  0.029106636

  Shift w.r.t. Gamma in fractional coordinates (k-lattice)
     0.000000000  0.000000000  0.000000000

 
 Subroutine IBZKPT returns following result:
 ===========================================
 
 Found     84 irreducible k-points:
 
 Following reciprocal coordinates:
            Coordinates               Weight
  0.000000  0.000000  0.000000      1.000000
  0.083333 -0.000000  0.000000      6.000000
  0.166667  0.000000  0.000000      6.000000
  0.250000 -0.000000  0.000000      6.000000
  0.333333  0.000000  0.000000      6.000000
  0.416667  0.000000  0.000000      6.000000
  0.500000 -0.000000  0.000000      3.000000
  0.083333  0.083333  0.000000     12.000000
  0.166667  0.083333  0.000000     24.000000
  0.250000  0.083333  0.000000     24.000000
  0.333333  0.083333  0.000000     24.000000
  0.416667  0.083333  0.000000     24.000000
  0.500000  0.083333  0.000000     12.000000
  0.166667  0.166667  0.000000     12.000000
  0.250000  0.166667  0.000000     24.000000
  0.333333  0.166667  0.000000     24.000000
  0.416667  0.166667  0.000000     24.000000
  0.500000  0.166667  0.000000     12.000000
  0.250000  0.250000  0.000000     12.000000
  0.333333  0.250000  0.000000     24.000000
  0.416667  0.250000  0.000000     24.000000
  0.500000  0.250000  0.000000     12.000000
  0.333333  0.333333  0.000000     12.000000
  0.416667  0.333333  0.000000     24.000000
  0.500000  0.333333  0.000000     12.000000
  0.416667  0.416667  0.000000     12.000000
  0.500000  0.416667  0.000000     12.000000
  0.500000  0.500000  0.000000      3.000000
  0.083333  0.083333  0.083333      8.000000
  0.166667  0.083333  0.083333     24.000000
  0.250000  0.083333  0.083333     24.000000
  0.333333  0.083333  0.083333     24.000000
  0.416667  0.083333  0.083333     24.000000
  0.500000  0.083333  0.083333     12.000000
  0.166667  0.166667  0.083333     24.000000
  0.250000  0.166667  0.083333     48.000000
  0.333333  0.166667  0.083333     48.000000
  0.416667  0.166667  0.083333     48.000000
  0.500000  0.166667  0.083333     24.000000
  0.250000  0.250000  0.083333     24.000000
  0.333333  0.250000  0.083333     48.000000
  0.416667  0.250000  0.083333     48.000000
  0.500000  0.250000  0.083333     24.000000
  0.333333  0.333333  0.083333     24.000000
  0.416667  0.333333  0.083333     48.000000
  0.500000  0.333333  0.083333     24.000000
  0.416667  0.416667  0.083333     24.000000
  0.500000  0.416667  0.083333     24.000000
  0.500000  0.500000  0.083333      6.000000
  0.166667  0.166667  0.166667      8.000000
  0.250000  0.166667  0.166667     24.000000
  0.333333  0.166667  0.166667     24.000000
  0.416667  0.166667  0.166667     24.000000
  0.500000  0.166667  0.166667     12.000000
  0.250000  0.250000  0.166667     24.000000
  0.333333  0.250000  0.166667     48.000000
  0.416667  0.250000  0.166667     48.000000
  0.500000  0.250000  0.166667     24.000000
  0.333333  0.333333  0.166667     24.000000
  0.416667  0.333333  0.166667     48.000000
  0.500000  0.333333  0.166667     24.000000
  0.416667  0.416667  0.166667     24.000000
  0.500000  0.416667  0.166667     24.000000
  0.500000  0.500000  0.166667      6.000000
  0.250000  0.250000  0.250000      8.000000
  0.333333  0.250000  0.250000     24.000000
  0.416667  0.250000  0.250000     24.000000
  0.500000  0.250000  0.250000     12.000000
  0.333333  0.333333  0.250000     24.000000
  0.416667  0.333333  0.250000     48.000000
  0.500000  0.333333  0.250000     24.000000
  0.416667  0.416667  0.250000     24.000000
  0.500000  0.416667  0.250000     24.000000
  0.500000  0.500000  0.250000      6.000000
  0.333333  0.333333  0.333333      8.000000
  0.416667  0.333333  0.333333     24.000000
  0.500000  0.333333  0.333333     12.000000
  0.416667  0.416667  0.333333     24.000000
  0.500000  0.416667  0.333333     24.000000
  0.500000  0.500000  0.333333      6.000000
  0.416667  0.416667  0.416667      8.000000
  0.500000  0.416667  0.416667     12.000000
  0.500000  0.500000  0.416667      6.000000
  0.500000  0.500000  0.500000      1.000000
 
 Following cartesian coordinates:
            Coordinates               Weight
  0.000000  0.000000  0.000000      1.000000
  0.029107 -0.000000  0.000000      6.000000
  0.058213 -0.000000  0.000000      6.000000
  0.087320 -0.000000  0.000000      6.000000
  0.116427 -0.000000  0.000000      6.000000
  0.145533 -0.000000  0.000000      6.000000
  0.174640 -0.000000  0.000000      3.000000
  0.029107  0.029107  0.000000     12.000000
  0.058213  0.029107  0.000000     24.000000
  0.087320  0.029107  0.000000     24.000000
  0.116427  0.029107  0.000000     24.000000
  0.145533  0.029107  0.000000     24.000000
  0.174640  0.029107  0.000000     12.000000
  0.058213  0.058213  0.000000     12.000000
  0.087320  0.058213  0.000000     24.000000
  0.116427  0.058213  0.000000     24.000000
  0.145533  0.058213  0.000000     24.000000
  0.174640  0.058213  0.000000     12.000000
  0.087320  0.087320  0.000000     12.000000
  0.116427  0.087320  0.000000     24.000000
  0.145533  0.087320  0.000000     24.000000
  0.174640  0.087320  0.000000     12.000000
  0.116427  0.116427  0.000000     12.000000
  0.145533  0.116427  0.000000     24.000000
  0.174640  0.116427  0.000000     12.000000
  0.145533  0.145533  0.000000     12.000000
  0.174640  0.145533  0.000000     12.000000
  0.174640  0.174640  0.000000      3.000000
  0.029107  0.029107  0.029107      8.000000
  0.058213  0.029107  0.029107     24.000000
  0.087320  0.029107  0.029107     24.000000
  0.116427  0.029107  0.029107     24.000000
  0.145533  0.029107  0.029107     24.000000
  0.174640  0.029107  0.029107     12.000000
  0.058213  0.058213  0.029107     24.000000
  0.087320  0.058213  0.029107     48.000000
  0.116427  0.058213  0.029107     48.000000
  0.145533  0.058213  0.029107     48.000000
  0.174640  0.058213  0.029107     24.000000
  0.087320  0.087320  0.029107     24.000000
  0.116427  0.087320  0.029107     48.000000
  0.145533  0.087320  0.029107     48.000000
  0.174640  0.087320  0.029107     24.000000
  0.116427  0.116427  0.029107     24.000000
  0.145533  0.116427  0.029107     48.000000
  0.174640  0.116427  0.029107     24.000000
  0.145533  0.145533  0.029107     24.000000
  0.174640  0.145533  0.029107     24.000000
  0.174640  0.174640  0.029107      6.000000
  0.058213  0.058213  0.058213      8.000000
  0.087320  0.058213  0.058213     24.000000
  0.116427  0.058213  0.058213     24.000000
  0.145533  0.058213  0.058213     24.000000
  0.174640  0.058213  0.058213     12.000000
  0.087320  0.087320  0.058213     24.000000
  0.116427  0.087320  0.058213     48.000000
  0.145533  0.087320  0.058213     48.000000
  0.174640  0.087320  0.058213     24.000000
  0.116427  0.116427  0.058213     24.000000
  0.145533  0.116427  0.058213     48.000000
  0.174640  0.116427  0.058213     24.000000
  0.145533  0.145533  0.058213     24.000000
  0.174640  0.145533  0.058213     24.000000
  0.174640  0.174640  0.058213      6.000000
  0.087320  0.087320  0.087320      8.000000
  0.116427  0.087320  0.087320     24.000000
  0.145533  0.087320  0.087320     24.000000
  0.174640  0.087320  0.087320     12.000000
  0.116427  0.116427  0.087320     24.000000
  0.145533  0.116427  0.087320     48.000000
  0.174640  0.116427  0.087320     24.000000
  0.145533  0.145533  0.087320     24.000000
  0.174640  0.145533  0.087320     24.000000
  0.174640  0.174640  0.087320      6.000000
  0.116427  0.116427  0.116427      8.000000
  0.145533  0.116427  0.116427     24.000000
  0.174640  0.116427  0.116427     12.000000
  0.145533  0.145533  0.116427     24.000000
  0.174640  0.145533  0.116427     24.000000
  0.174640  0.174640  0.116427      6.000000
  0.145533  0.145533  0.145533      8.000000
  0.174640  0.145533  0.145533     12.000000
  0.174640  0.174640  0.145533      6.000000
  0.174640  0.174640  0.174640      1.000000
 


--------------------------------------------------------------------------------------------------------




 Dimension of arrays:
   k-points           NKPTS =     84   k-points in BZ     NKDIM =     84   number of bands    NBANDS=     20
   number of dos      NEDOS =    301   number of ions     NIONS =      2
   non local maximal  LDIM  =      6   non local SUM 2l+1 LMDIM =     18
   total plane-waves  NPLWV =   5832
   max r-space proj   IRMAX =      1   max aug-charges    IRDMAX=  71010
   dimension x,y,z NGX =    18 NGY =   18 NGZ =   18
   dimension x,y,z NGXF=    36 NGYF=   36 NGZF=   36
   support grid    NGXF=    72 NGYF=   72 NGZF=   72
   ions per type =               2
   NGX,Y,Z   is equivalent  to a cutoff of  10.45, 10.45, 10.45 a.u.
   NGXF,Y,Z  is equivalent  to a cutoff of  20.90, 20.90, 20.90 a.u.

 SYSTEM =  unknown system                          
 POSCAR =  Fe2                                     

 Startparameter for this run:
   NWRITE =      2    write-flag & timer
   PREC   = accura    normal or accurate (medium, high low for compatibility)
   ISTART =      0    job   : 0-new  1-cont  2-samecut
   ICHARG =      2    charge: 1-file 2-atom 10-const
   ISPIN  =      2    spin polarized calculation?
   LNONCOLLINEAR =      F non collinear calculations
   LSORBIT =      F    spin-orbit coupling
   INIWAV =      1    electr: 0-lowe 1-rand  2-diag
   LASPH  =      T    aspherical Exc in radial PAW
   METAGGA=      F    non-selfconsistent MetaGGA calc.

 Electronic Relaxation 1
   ENCUT  =  350.0 eV  25.72 Ry    5.07 a.u.   4.37  4.37  4.37*2*pi/ulx,y,z
   ENINI  =  350.0     initial cutoff
   ENAUG  =  511.4 eV  augmentation charge cutoff
   NELM   =     90;   NELMIN=  6; NELMDL= -5     # of ELM steps 
   EDIFF  = 0.1E-05   stopping-criterion for ELM
   LREAL  =      F    real-space projection
   NLSPLINE    = F    spline interpolate recip. space projectors
   LCOMPAT=      F    compatible to vasp.4.4
   GGA_COMPAT  = F    GGA compatible to vasp.4.4-vasp.4.6
   LMAXPAW     = -100 max onsite density
   LMAXMIX     =    4 max onsite mixed and CHGCAR
   VOSKOWN=      1    Vosko Wilk Nusair interpolation
   ROPT   =    0.00000
 Ionic relaxation
   EDIFFG = -.2E-02   stopping-criterion for IOM
   NSW    =    100    number of steps for IOM
   NBLOCK =      1;   KBLOCK =    100    inner block; outer block 
   IBRION =      2    ionic relax: 0-MD 1-quasi-New 2-CG
   NFREE  =      1    steps in history (QN), initial steepest desc. (CG)
   ISIF   =      3    stress and relaxation
   IWAVPR =     11    prediction:  0-non 1-charg 2-wave 3-comb
   ISYM   =      2    0-nonsym 1-usesym 2-fastsym
   LCORR  =      T    Harris-Foulkes like correction to forces

   POTIM  = 0.5000    time-step for ionic-motion
   TEIN   =    0.0    initial temperature
   TEBEG  =    0.0;   TEEND  =   0.0 temperature during run
   SMASS  =  -3.00    Nose mass-parameter (am)
   estimated Nose-frequenzy (Omega)   =  0.10E-29 period in steps = 0.13E+47 mass=  -0.187E-27a.u.
   SCALEE = 1.0000    scale energy and forces
   NPACO  =    256;   APACO  = 16.0  distance and # of slots for P.C.
   PSTRESS=    0.0 pullay stress

  Mass of Ions in am
   POMASS =  55.85
  Ionic Valenz
   ZVAL   =   8.00
  Atomic Wigner-Seitz radii
   RWIGS  =  -1.00
  virtual crystal weights 
   VCA    =   1.00
   NELECT =      16.0000    total number of electrons
   NUPDOWN=      -1.0000    fix difference up-down

 DOS related values:
   EMIN   =  10.00;   EMAX   =-10.00  energy-range for DOS
   EFERMI =   0.00
   ISMEAR =     1;   SIGMA  =   0.20  broadening in eV -4-tet -1-fermi 0-gaus

 Electronic relaxation 2 (details)
   IALGO  =     38    algorithm
   LDIAG  =      T    sub-space diagonalisation (order eigenvalues)
   LSUBROT=      F    optimize rotation matrix (better conditioning)
   TURBO    =      0    0=normal 1=particle mesh
   IRESTART =      0    0=no restart 2=restart with 2 vectors
   NREBOOT  =      0    no. of reboots
   NMIN     =      0    reboot dimension
   EREF     =   0.00    reference energy to select bands
   IMIX   =      4    mixing-type and parameters
     AMIX     =   0.40;   BMIX     =  1.00
     AMIX_MAG =   1.60;   BMIX_MAG =  1.00
     AMIN     =   0.10
     WC   =   100.;   INIMIX=   1;  MIXPRE=   1;  MAXMIX= -45

 Intra band minimization:
   WEIMIN = 0.0010     energy-eigenvalue tresh-hold
   EBREAK =  0.12E-07  absolut break condition
   DEPER  =   0.30     relativ break condition  

   TIME   =   0.40     timestep for ELM

  volume/ion in A,a.u.               =      11.73        79.19
  Fermi-wavevector in a.u.,A,eV,Ry     =   1.440859  2.722828 28.246703  2.076074
  Thomas-Fermi vector in A             =   2.559556
 
 Write flags
   LWAVE        =      T    write WAVECAR
   LDOWNSAMPLE  =      F    k-point downsampling of WAVECAR
   LCHARG       =      T    write CHGCAR
   LVTOT        =      F    write LOCPOT, total local potential
   LVHAR        =      F    write LOCPOT, Hartree potential only
   LELF         =      F    write electronic localiz. function (ELF)
   LORBIT       =     11    0 simple, 1 ext, 2 COOP (PROOUT), +10 PAW based schemes


 Dipole corrections
   LMONO  =      F    monopole corrections only (constant potential shift)
   LDIPOL =      F    correct potential (dipole corrections)
   IDIPOL =      0    1-x, 2-y, 3-z, 4-all directions 
   EPSILON=  1.0000000 bulk dielectric constant

 Exchange correlation treatment:
   GGA     =    --    GGA type
   LEXCH   =     8    internal setting for exchange type
   VOSKOWN=      1    Vosko Wilk Nusair interpolation
   LHFCALC =     F    Hartree Fock is set to
   LHFONE  =     F    Hartree Fock one center treatment
   AEXX    =    0.0000 exact exchange contribution

 Linear response parameters
   LEPSILON=     F    determine dielectric tensor
   LRPA    =     F    only Hartree local field effects (RPA)
   LNABLA  =     F    use nabla operator in PAW spheres
   LVEL    =     F    velocity operator in full k-point grid
   LINTERFAST=   F  fast interpolation
   KINTER  =     0    interpolate to denser k-point grid
   CSHIFT  =0.1000    complex shift for real part using Kramers Kronig
   OMEGAMAX=  -1.0    maximum frequency
   DEG_THRESHOLD= 0.2000000E-02 threshold for treating states as degnerate
   RTIME   =   -0.100 relaxation time in fs
  (WPLASMAI=    0.000 imaginary part of plasma frequency in eV, 0.658/RTIME)
   DFIELD  = 0.0000000 0.0000000 0.0000000 field for delta impulse in time
 
 Orbital magnetization related:
   ORBITALMAG=     F  switch on orbital magnetization
   LCHIMAG   =     F  perturbation theory with respect to B field
   DQ        =  0.001000  dq finite difference perturbation B field
   LLRAUG    =     F  two centre corrections for induced B field



--------------------------------------------------------------------------------------------------------


 conjugate gradient relaxation of ions
 charge density and potential will be updated during run
 spin polarized calculation
 Variant of blocked Davidson
 Davidson routine will perform the subspace rotation
 perform sub-space diagonalisation
    after iterative eigenvector-optimisation
 modified Broyden-mixing scheme, WC =      100.0
 initial mixing is a Kerker type mixing with AMIX =  0.4000 and BMIX =      1.0000
 Hartree-type preconditioning will be used
 using additional bands           12
 reciprocal scheme for non local part
 use partial core corrections
 calculate Harris-corrections to forces 
   (improved forces if not selfconsistent)
 use gradient corrections 
 use of overlap-Matrix (Vanderbilt PP)
 Methfessel and Paxton  Order N= 1 SIGMA  =   0.20


--------------------------------------------------------------------------------------------------------


  energy-cutoff  :      350.00
  volume of cell :       23.47
      direct lattice vectors                 reciprocal lattice vectors
     2.863035499  0.000000000  0.000000000     0.349279637 -0.000000000  0.000000000
     0.000000000  2.863035499  0.000000000     0.000000000  0.349279637  0.000000000
     0.000000000  0.000000000  2.863035499    -0.000000000 -0.000000000  0.349279637

  length of vectors
     2.863035499  2.863035499  2.863035499     0.349279637  0.349279637  0.349279637


 
 k-points in units of 2pi/SCALE and weight: read from INCAR                         
   0.00000000  0.00000000  0.00000000       0.001
   0.02910664 -0.00000000  0.00000000       0.003
   0.05821327 -0.00000000  0.00000000       0.003
   0.08731991 -0.00000000  0.00000000       0.003
   0.11642655 -0.00000000  0.00000000       0.003
   0.14553318 -0.00000000  0.00000000       0.003
   0.17463982 -0.00000000  0.00000000       0.002
   0.02910664  0.02910664  0.00000000       0.007
   0.05821327  0.02910664  0.00000000       0.014
   0.08731991  0.02910664  0.00000000       0.014
   0.11642655  0.02910664  0.00000000       0.014
   0.14553318  0.02910664  0.00000000       0.014
   0.17463982  0.02910664  0.00000000       0.007
   0.05821327  0.05821327  0.00000000       0.007
   0.08731991  0.05821327  0.00000000       0.014
   0.11642655  0.05821327  0.00000000       0.014
   0.14553318  0.05821327  0.00000000       0.014
   0.17463982  0.05821327  0.00000000       0.007
   0.08731991  0.08731991  0.00000000       0.007
   0.11642655  0.08731991  0.00000000       0.014
   0.14553318  0.08731991  0.00000000       0.014
   0.17463982  0.08731991  0.00000000       0.007
   0.11642655  0.11642655  0.00000000       0.007
   0.14553318  0.11642655  0.00000000       0.014
   0.17463982  0.11642655  0.00000000       0.007
   0.14553318  0.14553318  0.00000000       0.007
   0.17463982  0.14553318  0.00000000       0.007
   0.17463982  0.17463982  0.00000000       0.002
   0.02910664  0.02910664  0.02910664       0.005
   0.05821327  0.02910664  0.02910664       0.014
   0.08731991  0.02910664  0.02910664       0.014
   0.11642655  0.02910664  0.02910664       0.014
   0.14553318  0.02910664  0.02910664       0.014
   0.17463982  0.02910664  0.02910664       0.007
   0.05821327  0.05821327  0.02910664       0.014
   0.08731991  0.05821327  0.02910664       0.028
   0.11642655  0.05821327  0.02910664       0.028
   0.14553318  0.05821327  0.02910664       0.028
   0.17463982  0.05821327  0.02910664       0.014
   0.08731991  0.08731991  0.02910664       0.014
   0.11642655  0.08731991  0.02910664       0.028
   0.14553318  0.08731991  0.02910664       0.028
   0.17463982  0.08731991  0.02910664       0.014
   0.11642655  0.11642655  0.02910664       0.014
   0.14553318  0.11642655  0.02910664       0.028
   0.17463982  0.11642655  0.02910664       0.014
   0.14553318  0.14553318  0.02910664       0.014
   0.17463982  0.14553318  0.02910664       0.014
   0.17463982  0.17463982  0.02910664       0.003
   0.05821327  0.05821327  0.05821327       0.005
   0.08731991  0.05821327  0.05821327       0.014
   0.11642655  0.05821327  0.05821327       0.014
   0.14553318  0.05821327  0.05821327       0.014
   0.17463982  0.05821327  0.05821327       0.007
   0.08731991  0.08731991  0.05821327       0.014
   0.11642655  0.08731991  0.05821327       0.028
   0.14553318  0.08731991  0.05821327       0.028
   0.17463982  0.08731991  0.05821327       0.014
   0.11642655  0.11642655  0.05821327       0.014
   0.14553318  0.11642655  0.05821327       0.028
   0.17463982  0.11642655  0.05821327       0.014
   0.14553318  0.14553318  0.05821327       0.014
   0.17463982  0.14553318  0.05821327       0.014
   0.17463982  0.17463982  0.05821327       0.003
   0.08731991  0.08731991  0.08731991       0.005
   0.11642655  0.08731991  0.08731991       0.014
   0.14553318  0.08731991  0.08731991       0.014
   0.17463982  0.08731991  0.08731991       0.007
   0.11642655  0.11642655  0.08731991       0.014
   0.14553318  0.11642655  0.08731991       0.028
   0.17463982  0.11642655  0.08731991       0.014
   0.14553318  0.14553318  0.08731991       0.014
   0.17463982  0.14553318  0.08731991       0.014
   0.17463982  0.17463982  0.08731991       0.003
   0.11642655  0.11642655  0.11642655       0.005
   0.14553318  0.11642655  0.11642655       0.014
   0.17463982  0.11642655  0.11642655       0.007
   0.14553318  0.14553318  0.11642655       0.014
   0.17463982  0.14553318  0.11642655       0.014
   0.17463982  0.17463982  0.11642655       0.003
   0.14553318  0.14553318  0.14553318       0.005
   0.17463982  0.14553318  0.14553318       0.007
   0.17463982  0.17463982  0.14553318       0.003
   0.17463982  0.17463982  0.17463982       0.001
 
 k-points in reciprocal lattice and weights: read from INCAR                         
   0.00000000  0.00000000  0.00000000       0.001
   0.08333333 -0.00000000  0.00000000       0.003
   0.16666667  0.00000000  0.00000000       0.003
   0.25000000 -0.00000000  0.00000000       0.003
   0.33333333  0.00000000  0.00000000       0.003
   0.41666667  0.00000000  0.00000000       0.003
   0.50000000 -0.00000000  0.00000000       0.002
   0.08333333  0.08333333  0.00000000       0.007
   0.16666667  0.08333333  0.00000000       0.014
   0.25000000  0.08333333  0.00000000       0.014
   0.33333333  0.08333333  0.00000000       0.014
   0.41666667  0.08333333  0.00000000       0.014
   0.50000000  0.08333333  0.00000000       0.007
   0.16666667  0.16666667  0.00000000       0.007
   0.25000000  0.16666667  0.00000000       0.014
   0.33333333  0.16666667  0.00000000       0.014
   0.41666667  0.16666667  0.00000000       0.014
   0.50000000  0.16666667  0.00000000       0.007
   0.25000000  0.25000000  0.00000000       0.007
   0.33333333  0.25000000  0.00000000       0.014
   0.41666667  0.25000000  0.00000000       0.014
   0.50000000  0.25000000  0.00000000       0.007
   0.33333333  0.33333333  0.00000000       0.007
   0.41666667  0.33333333  0.00000000       0.014
   0.50000000  0.33333333  0.00000000       0.007
   0.41666667  0.41666667  0.00000000       0.007
   0.50000000  0.41666667  0.00000000       0.007
   0.50000000  0.50000000  0.00000000       0.002
   0.08333333  0.08333333  0.08333333       0.005
   0.16666667  0.08333333  0.08333333       0.014
   0.25000000  0.08333333  0.08333333       0.014
   0.33333333  0.08333333  0.08333333       0.014
   0.41666667  0.08333333  0.08333333       0.014
   0.50000000  0.08333333  0.08333333       0.007
   0.16666667  0.16666667  0.08333333       0.014
   0.25000000  0.16666667  0.08333333       0.028
   0.33333333  0.16666667  0.08333333       0.028
   0.41666667  0.16666667  0.08333333       0.028
   0.50000000  0.16666667  0.08333333       0.014
   0.25000000  0.25000000  0.08333333       0.014
   0.33333333  0.25000000  0.08333333       0.028
   0.41666667  0.25000000  0.08333333       0.028
   0.50000000  0.25000000  0.08333333       0.014
   0.33333333  0.33333333  0.08333333       0.014
   0.41666667  0.33333333  0.08333333       0.028
   0.50000000  0.33333333  0.08333333       0.014
   0.41666667  0.41666667  0.08333333       0.014
   0.50000000  0.41666667  0.08333333       0.014
   0.50000000  0.50000000  0.08333333       0.003
   0.16666667  0.16666667  0.16666667       0.005
   0.25000000  0.16666667  0.16666667       0.014
   0.33333333  0.16666667  0.16666667       0.014
   0.41666667  0.16666667  0.16666667       0.014
   0.50000000  0.16666667  0.16666667       0.007
   0.25000000  0.25000000  0.16666667       0.014
   0.33333333  0.25000000  0.16666667       0.028
   0.41666667  0.25000000  0.16666667       0.028
   0.50000000  0.25000000  0.16666667       0.014
   0.33333333  0.33333333  0.16666667       0.014
   0.41666667  0.33333333  0.16666667       0.028
   0.50000000  0.33333333  0.16666667       0.014
   0.41666667  0.41666667  0.16666667       0.014
   0.50000000  0.41666667  0.16666667       0.014
   0.50000000  0.50000000  0.16666667       0.003
   0.25000000  0.25000000  0.25000000       0.005
   0.33333333  0.25000000  0.25000000       0.014
   0.41666667  0.25000000  0.25000000       0.014
   0.50000000  0.25000000  0.25000000       0.007
   0.33333333  0.33333333  0.25000000       0.014
   0.41666667  0.33333333  0.25000000       0.028
   0.50000000  0.33333333  0.25000000       0.014
   0.41666667  0.41666667  0.25000000       0.014
   0.50000000  0.41666667  0.25000000       0.014
   0.50000000  0.50000000  0.25000000       0.003
   0.33333333  0.33333333  0.33333333       0.005
   0.41666667  0.33333333  0.33333333       0.014
   0.50000000  0.33333333  0.33333333       0.007
   0.41666667  0.41666667  0.33333333       0.014
   0.50000000  0.41666667  0.33333333       0.014
   0.50000000  0.50000000  0.33333333       0.003
   0.41666667  0.41666667  0.41666667       0.005
   0.50000000  0.41666667  0.41666667       0.007
   0.50000000  0.50000000  0.41666667       0.003
   0.50000000  0.50000000  0.50000000       0.001
 
 position of ions in fractional coordinates (direct lattice) 
   0.00000000  0.00000000  0.00000000
   0.50000000  0.50000000  0.50000000
 
 position of ions in cartesian coordinates  (Angst):
   0.00000000  0.00000000  0.00000000
   1.43151775  1.43151775  1.43151775
 


--------------------------------------------------------------------------------------------------------


 k-point   1 :   0.0000 0.0000 0.0000  plane waves:     365
 k-point   2 :   0.0833-0.0000 0.0000  plane waves:     353
 k-point   3 :   0.1667 0.0000 0.0000  plane waves:     353
 k-point   4 :   0.2500-0.0000 0.0000  plane waves:     361
 k-point   5 :   0.3333 0.0000 0.0000  plane waves:     353
 k-point   6 :   0.4167 0.0000 0.0000  plane waves:     352
 k-point   7 :   0.5000-0.0000 0.0000  plane waves:     336
 k-point   8 :   0.0833 0.0833 0.0000  plane waves:     357
 k-point   9 :   0.1667 0.0833 0.0000  plane waves:     353
 k-point  10 :   0.2500 0.0833 0.0000  plane waves:     356
 k-point  11 :   0.3333 0.0833 0.0000  plane waves:     352
 k-point  12 :   0.4167 0.0833 0.0000  plane waves:     345
 k-point  13 :   0.5000 0.0833 0.0000  plane waves:     348
 k-point  14 :   0.1667 0.1667 0.0000  plane waves:     360
 k-point  15 :   0.2500 0.1667 0.0000  plane waves:     348
 k-point  16 :   0.3333 0.1667 0.0000  plane waves:     345
 k-point  17 :   0.4167 0.1667 0.0000  plane waves:     352
 k-point  18 :   0.5000 0.1667 0.0000  plane waves:     350
 k-point  19 :   0.2500 0.2500 0.0000  plane waves:     338
 k-point  20 :   0.3333 0.2500 0.0000  plane waves:     346
 k-point  21 :   0.4167 0.2500 0.0000  plane waves:     352
 k-point  22 :   0.5000 0.2500 0.0000  plane waves:     350
 k-point  23 :   0.3333 0.3333 0.0000  plane waves:     348
 k-point  24 :   0.4167 0.3333 0.0000  plane waves:     352
 k-point  25 :   0.5000 0.3333 0.0000  plane waves:     358
 k-point  26 :   0.4167 0.4167 0.0000  plane waves:     354
 k-point  27 :   0.5000 0.4167 0.0000  plane waves:     354
 k-point  28 :   0.5000 0.5000 0.0000  plane waves:     356
 k-point  29 :   0.0833 0.0833 0.0833  plane waves:     359
 k-point  30 :   0.1667 0.0833 0.0833  plane waves:     354
 k-point  31 :   0.2500 0.0833 0.0833  plane waves:     347
 k-point  32 :   0.3333 0.0833 0.0833  plane waves:     347
 k-point  33 :   0.4167 0.0833 0.0833  plane waves:     350
 k-point  34 :   0.5000 0.0833 0.0833  plane waves:     346
 k-point  35 :   0.1667 0.1667 0.0833  plane waves:     355
 k-point  36 :   0.2500 0.1667 0.0833  plane waves:     349
 k-point  37 :   0.3333 0.1667 0.0833  plane waves:     350
 k-point  38 :   0.4167 0.1667 0.0833  plane waves:     353
 k-point  39 :   0.5000 0.1667 0.0833  plane waves:     352
 k-point  40 :   0.2500 0.2500 0.0833  plane waves:     349
 k-point  41 :   0.3333 0.2500 0.0833  plane waves:     352
 k-point  42 :   0.4167 0.2500 0.0833  plane waves:     347
 k-point  43 :   0.5000 0.2500 0.0833  plane waves:     350
 k-point  44 :   0.3333 0.3333 0.0833  plane waves:     351
 k-point  45 :   0.4167 0.3333 0.0833  plane waves:     348
 k-point  46 :   0.5000 0.3333 0.0833  plane waves:     352
 k-point  47 :   0.4167 0.4167 0.0833  plane waves:     350
 k-point  48 :   0.5000 0.4167 0.0833  plane waves:     348
 k-point  49 :   0.5000 0.5000 0.0833  plane waves:     348
 k-point  50 :   0.1667 0.1667 0.1667  plane waves:     350
 k-point  51 :   0.2500 0.1667 0.1667  plane waves:     353
 k-point  52 :   0.3333 0.1667 0.1667  plane waves:     350
 k-point  53 :   0.4167 0.1667 0.1667  plane waves:     351
 k-point  54 :   0.5000 0.1667 0.1667  plane waves:     354
 k-point  55 :   0.2500 0.2500 0.1667  plane waves:     351
 k-point  56 :   0.3333 0.2500 0.1667  plane waves:     349
 k-point  57 :   0.4167 0.2500 0.1667  plane waves:     347
 k-point  58 :   0.5000 0.2500 0.1667  plane waves:     350
 k-point  59 :   0.3333 0.3333 0.1667  plane waves:     348
 k-point  60 :   0.4167 0.3333 0.1667  plane waves:     345
 k-point  61 :   0.5000 0.3333 0.1667  plane waves:     350
 k-point  62 :   0.4167 0.4167 0.1667  plane waves:     347
 k-point  63 :   0.5000 0.4167 0.1667  plane waves:     348
 k-point  64 :   0.5000 0.5000 0.1667  plane waves:     340
 k-point  65 :   0.2500 0.2500 0.2500  plane waves:     350
 k-point  66 :   0.3333 0.2500 0.2500  plane waves:     350
 k-point  67 :   0.4167 0.2500 0.2500  plane waves:     346
 k-point  68 :   0.5000 0.2500 0.2500  plane waves:     350
 k-point  69 :   0.3333 0.3333 0.2500  plane waves:     349
 k-point  70 :   0.4167 0.3333 0.2500  plane waves:     349
 k-point  71 :   0.5000 0.3333 0.2500  plane waves:     344
 k-point  72 :   0.4167 0.4167 0.2500  plane waves:     343
 k-point  73 :   0.5000 0.4167 0.2500  plane waves:     344
 k-point  74 :   0.5000 0.5000 0.2500  plane waves:     352
 k-point  75 :   0.3333 0.3333 0.3333  plane waves:     347
 k-point  76 :   0.4167 0.3333 0.3333  plane waves:     346
 k-point  77 :   0.5000 0.3333 0.3333  plane waves:     338
 k-point  78 :   0.4167 0.4167 0.3333  plane waves:     339
 k-point  79 :   0.5000 0.4167 0.3333  plane waves:     336
 k-point  80 :   0.5000 0.5000 0.3333  plane waves:     340
 k-point  81 :   0.4167 0.4167 0.4167  plane waves:     344
 k-point  82 :   0.5000 0.4167 0.4167  plane waves:     338
 k-point  83 :   0.5000 0.5000 0.4167  plane waves:     340
 k-point  84 :   0.5000 0.5000 0.5000  plane waves:     360

 maximum and minimum number of plane-waves per node :       365      336

 maximum number of plane-waves:       365
 maximum index in each direction: 
   IXMAX=    4   IYMAX=    4   IZMAX=    4
   IXMIN=   -4   IYMIN=   -4   IZMIN=   -4


 serial   3D FFT for wavefunctions
 parallel 3D FFT for charge:
    minimum data exchange during FFTs selected (reduces bandwidth)


 total amount of memory used by VASP MPI-rank0    43082. kBytes
=======================================================================

   base      :      30000. kBytes
   nonl-proj :       4463. kBytes
   fftplans  :       1775. kBytes
   grid      :       1353. kBytes
   one-center:         62. kBytes
   wavefun   :       5429. kBytes
 
     INWAV:  cpu time    0.0000: real time    0.0005
 Broyden mixing: mesh for mixing (old mesh)
   NGX =  9   NGY =  9   NGZ =  9
  (NGX  = 36   NGY  = 36   NGZ  = 36)
  gives a total of    729 points

 initial charge density was supplied:
 charge density of overlapping atoms calculated
 number of electron      16.0000000 magnetization      10.0000000
 keeping initial charge density in first step


--------------------------------------------------------------------------------------------------------


 Maximum index for augmentation-charges        17277 (set IRDMAX)


--------------------------------------------------------------------------------------------------------


 First call to EWALD:  gamma=   0.619
 Maximum number of real-space cells 3x 3x 3
 Maximum number of reciprocal cells 3x 3x 3

    FEWALD:  cpu time    0.0030: real time    0.0035


--------------------------------------- Iteration      1(   1)  ---------------------------------------


    POTLOK:  cpu time    0.0350: real time    0.0389
    SETDIJ:  cpu time    1.5528: real time    1.5523
     EDDAV:  cpu time    2.6556: real time    2.6581
       DOS:  cpu time    0.0070: real time    0.0076
    --------------------------------------------
      LOOP:  cpu time    4.2504: real time    4.2572

 eigenvalue-minimisations  :  7400
 total energy-change (2. order) : 0.6541262E+02  (-0.6065524E+03)
 number of electron      16.0000000 magnetization      10.0000000
 augmentation part       16.0000000 magnetization      10.0000000

 Free energy of the ion-electron system (eV)
  ---------------------------------------------------
  alpha Z        PSCENC =       117.79976220
  Ewald energy   TEWEN  =     -1171.43779597
  -Hartree energ DENC   =      -228.04061711
  -exchange      EXHF   =         0.00000000
  -V(xc)+E(xc)   XCENC  =        14.27160946
  PAW double counting   =      1103.49540010    -1119.11610375
  entropy T*S    EENTRO =         0.00219301
  eigenvalues    EBANDS =       159.84851171
  atomic energy  EATOM  =      1188.58965621
  Solvation  Ediel_sol  =         0.00000000
  ---------------------------------------------------
  free energy    TOTEN  =        65.41261586 eV

  energy without entropy =       65.41042285  energy(sigma->0) =       65.41188485


--------------------------------------------------------------------------------------------------------




--------------------------------------- Iteration      1(   2)  ---------------------------------------


     EDDAV:  cpu time    2.4876: real time    2.5055
       DOS:  cpu time    0.0070: real time    0.0078
    --------------------------------------------
      LOOP:  cpu time    2.4946: real time    2.5133

 eigenvalue-minimisations  :  6836
 total energy-change (2. order) :-0.7863926E+02  (-0.6995382E+02)
 number of electron      16.0000000 magnetization      10.0000000
 augmentation part       16.0000000 magnetization      10.0000000

 Free energy of the ion-electron system (eV)
  ---------------------------------------------------
  alpha Z        PSCENC =       117.79976220
  Ewald energy   TEWEN  =     -1171.43779597
  -Hartree energ DENC   =      -228.04061711
  -exchange      EXHF   =         0.00000000
  -V(xc)+E(xc)   XCENC  =        14.27160946
  PAW double counting   =      1103.49540010    -1119.11610375
  entropy T*S    EENTRO =         0.00280887
  eigenvalues    EBANDS =        81.20863871
  atomic energy  EATOM  =      1188.58965621
  Solvation  Ediel_sol  =         0.00000000
  ---------------------------------------------------
  free energy    TOTEN  =       -13.22664127 eV

  energy without entropy =      -13.22945015  energy(sigma->0) =      -13.22757757


--------------------------------------------------------------------------------------------------------




--------------------------------------- Iteration      1(   3)  ---------------------------------------


     EDDAV:  cpu time    2.6896: real time    2.7095
       DOS:  cpu time    0.0080: real time    0.0076
    --------------------------------------------
      LOOP:  cpu time    2.6976: real time    2.7171

 eigenvalue-minimisations  :  7596
 total energy-change (2. order) :-0.2836075E+01  (-0.2777362E+01)
 number of electron      16.0000000 magnetization      10.0000000
 augmentation part       16.0000000 magnetization      10.0000000

 Free energy of the ion-electron system (eV)
  ---------------------------------------------------
  alpha Z        PSCENC =       117.79976220
  Ewald energy   TEWEN  =     -1171.43779597
  -Hartree energ DENC   =      -228.04061711
  -exchange      EXHF   =         0.00000000
  -V(xc)+E(xc)   XCENC  =        14.27160946
  PAW double counting   =      1103.49540010    -1119.11610375
  entropy T*S    EENTRO =        -0.00093377
  eigenvalues    EBANDS =        78.37630679
  atomic energy  EATOM  =      1188.58965621
  Solvation  Ediel_sol  =         0.00000000
  ---------------------------------------------------
  free energy    TOTEN  =       -16.06271584 eV

  energy without entropy =      -16.06178207  energy(sigma->0) =      -16.06240459


--------------------------------------------------------------------------------------------------------




--------------------------------------- Iteration      1(   4)  ---------------------------------------


     EDDAV:  cpu time    2.6286: real time    2.6485
       DOS:  cpu time    0.0070: real time    0.0079
    --------------------------------------------
      LOOP:  cpu time    2.6366: real time    2.6564

 eigenvalue-minimisations  :  7344
 total energy-change (2. order) :-0.2141154E-01  (-0.2140658E-01)
 number of electron      16.0000000 magnetization      10.0000000
 augmentation part       16.0000000 magnetization      10.0000000

 Free energy of the ion-electron system (eV)
  ---------------------------------------------------
  alpha Z        PSCENC =       117.79976220
  Ewald energy   TEWEN  =     -1171.43779597
  -Hartree energ DENC   =      -228.04061711
  -exchange      EXHF   =         0.00000000
  -V(xc)+E(xc)   XCENC  =        14.27160946
  PAW double counting   =      1103.49540010    -1119.11610375
  entropy T*S    EENTRO =        -0.00096402
  eigenvalues    EBANDS =        78.35492550
  atomic energy  EATOM  =      1188.58965621
  Solvation  Ediel_sol  =         0.00000000
  ---------------------------------------------------
  free energy    TOTEN  =       -16.08412738 eV

  energy without entropy =      -16.08316336  energy(sigma->0) =      -16.08380604


--------------------------------------------------------------------------------------------------------




--------------------------------------- Iteration      1(   5)  ---------------------------------------


     EDDAV:  cpu time    2.6666: real time    2.6860
       DOS:  cpu time    0.0070: real time    0.0078
    CHARGE:  cpu time    0.1700: real time    0.1705
    MIXING:  cpu time    0.0020: real time    0.0012
    --------------------------------------------
      LOOP:  cpu time    2.8446: real time    2.8655

 eigenvalue-minimisations  :  7524
 total energy-change (2. order) :-0.2614502E-03  (-0.2614484E-03)
 number of electron      16.0000001 magnetization       4.3549239
 augmentation part        7.3754564 magnetization       2.6940340

 Broyden mixing:
  rms(total) = 0.19617E+01    rms(broyden)= 0.19616E+01
  rms(prec ) = 0.35433E+01
  weight for this iteration     100.00

 Free energy of the ion-electron system (eV)
  ---------------------------------------------------
  alpha Z        PSCENC =       117.79976220
  Ewald energy   TEWEN  =     -1171.43779597
  -Hartree energ DENC   =      -228.04061711
  -exchange      EXHF   =         0.00000000
  -V(xc)+E(xc)   XCENC  =        14.27160946
  PAW double counting   =      1103.49540010    -1119.11610375
  entropy T*S    EENTRO =        -0.00096410
  eigenvalues    EBANDS =        78.35466413
  atomic energy  EATOM  =      1188.58965621
  Solvation  Ediel_sol  =         0.00000000
  ---------------------------------------------------
  free energy    TOTEN  =       -16.08438883 eV

  energy without entropy =      -16.08342473  energy(sigma->0) =      -16.08406747


--------------------------------------------------------------------------------------------------------




--------------------------------------- Iteration      1(   6)  ---------------------------------------


    POTLOK:  cpu time    0.0340: real time    0.0518
    SETDIJ:  cpu time    1.5438: real time    1.5438
     EDDAV:  cpu time    2.6336: real time    2.6358
       DOS:  cpu time    0.0070: real time    0.0078
    CHARGE:  cpu time    0.1560: real time    0.1563
    MIXING:  cpu time    0.0010: real time    0.0012
    --------------------------------------------
      LOOP:  cpu time    4.3763: real time    4.3968

 eigenvalue-minimisations  :  7440
 total energy-change (2. order) :-0.4869230E+00  (-0.5185628E+00)
 number of electron      16.0000001 magnetization       4.6255819
 augmentation part        8.4896245 magnetization       3.7940947

 Broyden mixing:
  rms(total) = 0.61723E+00    rms(broyden)= 0.61643E+00
  rms(prec ) = 0.69400E+00
  weight for this iteration     100.00

 eigenvalues of (default mixing * dielectric matrix)
  average eigenvalue GAMMA=   0.8777
  0.8777

 Free energy of the ion-electron system (eV)
  ---------------------------------------------------
  alpha Z        PSCENC =       117.79976220
  Ewald energy   TEWEN  =     -1171.43779597
  -Hartree energ DENC   =      -196.89513252
  -exchange      EXHF   =         0.00000000
  -V(xc)+E(xc)   XCENC  =         8.21744473
  PAW double counting   =      1215.23217831    -1227.45235662
  entropy T*S    EENTRO =         0.00018821
  eigenvalues    EBANDS =        49.37474362
  atomic energy  EATOM  =      1188.58965621
  Solvation  Ediel_sol  =         0.00000000
  ---------------------------------------------------
  free energy    TOTEN  =       -16.57131183 eV

  energy without entropy =      -16.57150004  energy(sigma->0) =      -16.57137457


--------------------------------------------------------------------------------------------------------




--------------------------------------- Iteration      1(   7)  ---------------------------------------


    POTLOK:  cpu time    0.0360: real time    0.0515
    SETDIJ:  cpu time    1.5368: real time    1.5370
     EDDAV:  cpu time    2.7766: real time    2.7801
       DOS:  cpu time    0.0080: real time    0.0081
    CHARGE:  cpu time    0.1550: real time    0.1561
    MIXING:  cpu time    0.0010: real time    0.0011
    --------------------------------------------
      LOOP:  cpu time    4.5133: real time    4.5339

 eigenvalue-minimisations  :  7960
 total energy-change (2. order) : 0.6220876E-01  (-0.3775748E-01)
 number of electron      16.0000001 magnetization       4.4944223
 augmentation part        8.2568522 magnetization       3.7117424

 Broyden mixing:
  rms(total) = 0.43678E+00    rms(broyden)= 0.43667E+00
  rms(prec ) = 0.51601E+00
  weight for this iteration     100.00

 eigenvalues of (default mixing * dielectric matrix)
  average eigenvalue GAMMA=   0.7728
  1.0259  0.5197

 Free energy of the ion-electron system (eV)
  ---------------------------------------------------
  alpha Z        PSCENC =       117.79976220
  Ewald energy   TEWEN  =     -1171.43779597
  -Hartree energ DENC   =      -199.46976091
  -exchange      EXHF   =         0.00000000
  -V(xc)+E(xc)   XCENC  =         8.86270226
  PAW double counting   =      1292.32745328    -1307.61196791
  entropy T*S    EENTRO =        -0.00142677
  eigenvalues    EBANDS =        54.43227455
  atomic energy  EATOM  =      1188.58965621
  Solvation  Ediel_sol  =         0.00000000
  ---------------------------------------------------
  free energy    TOTEN  =       -16.50910307 eV

  energy without entropy =      -16.50767630  energy(sigma->0) =      -16.50862748


--------------------------------------------------------------------------------------------------------




--------------------------------------- Iteration      1(   8)  ---------------------------------------


    POTLOK:  cpu time    0.0570: real time    0.0724
    SETDIJ:  cpu time    2.2237: real time    2.2276
     EDDAV:  cpu time    3.6994: real time    3.7055
       DOS:  cpu time    0.0080: real time    0.0083
    CHARGE:  cpu time    0.1560: real time    0.1560
    MIXING:  cpu time    0.0000: real time    0.0011
    --------------------------------------------
      LOOP:  cpu time    6.1441: real time    6.1710

 eigenvalue-minimisations  :  8620
 total energy-change (2. order) : 0.1665453E-01  (-0.9942247E-03)
 number of electron      16.0000001 magnetization       4.4274529
 augmentation part        8.2823287 magnetization       3.6441719

 Broyden mixing:
  rms(total) = 0.16181E+00    rms(broyden)= 0.16179E+00
  rms(prec ) = 0.23035E+00
  weight for this iteration     100.00

 eigenvalues of (default mixing * dielectric matrix)
  average eigenvalue GAMMA=   1.1174
  1.8968  0.8801  0.5754

 Free energy of the ion-electron system (eV)
  ---------------------------------------------------
  alpha Z        PSCENC =       117.79976220
  Ewald energy   TEWEN  =     -1171.43779597
  -Hartree energ DENC   =      -197.76725120
  -exchange      EXHF   =         0.00000000
  -V(xc)+E(xc)   XCENC  =         8.63284991
  PAW double counting   =      1330.94757202    -1347.07683722
  entropy T*S    EENTRO =        -0.00183582
  eigenvalues    EBANDS =        53.82143133
  atomic energy  EATOM  =      1188.58965621
  Solvation  Ediel_sol  =         0.00000000
  ---------------------------------------------------
  free energy    TOTEN  =       -16.49244855 eV

  energy without entropy =      -16.49061273  energy(sigma->0) =      -16.49183661


--------------------------------------------------------------------------------------------------------




--------------------------------------- Iteration      1(   9)  ---------------------------------------


    POTLOK:  cpu time    0.0360: real time    0.0512
    SETDIJ:  cpu time    1.5408: real time    1.5427
     EDDAV:  cpu time    3.3555: real time    3.3609
       DOS:  cpu time    0.0080: real time    0.0083
    CHARGE:  cpu time    0.1560: real time    0.1568
    MIXING:  cpu time    0.0010: real time    0.0012
    --------------------------------------------
      LOOP:  cpu time    5.0972: real time    5.1211

 eigenvalue-minimisations  :  9984
 total energy-change (2. order) : 0.1119931E-01  (-0.2791593E-03)
 number of electron      16.0000001 magnetization       4.4738710
 augmentation part        8.3211617 magnetization       3.6875534

 Broyden mixing:
  rms(total) = 0.42580E-01    rms(broyden)= 0.42562E-01
  rms(prec ) = 0.49349E-01
  weight for this iteration     100.00

 eigenvalues of (default mixing * dielectric matrix)
  average eigenvalue GAMMA=   1.1939
  2.3562  1.0564  0.6814  0.6814

 Free energy of the ion-electron system (eV)
  ---------------------------------------------------
  alpha Z        PSCENC =       117.79976220
  Ewald energy   TEWEN  =     -1171.43779597
  -Hartree energ DENC   =      -195.33463442
  -exchange      EXHF   =         0.00000000
  -V(xc)+E(xc)   XCENC  =         8.49534944
  PAW double counting   =      1392.40809932    -1409.93424008
  entropy T*S    EENTRO =        -0.00225490
  eigenvalues    EBANDS =        52.93480896
  atomic energy  EATOM  =      1188.58965621
  Solvation  Ediel_sol  =         0.00000000
  ---------------------------------------------------
  free energy    TOTEN  =       -16.48124924 eV

  energy without entropy =      -16.47899434  energy(sigma->0) =      -16.48049761


--------------------------------------------------------------------------------------------------------




--------------------------------------- Iteration      1(  10)  ---------------------------------------


    POTLOK:  cpu time    0.0360: real time    0.0519
    SETDIJ:  cpu time    1.5448: real time    1.5455
     EDDAV:  cpu time    2.8386: real time    2.8439
       DOS:  cpu time    0.0080: real time    0.0081
    CHARGE:  cpu time    0.1580: real time    0.1591
    MIXING:  cpu time    0.0010: real time    0.0012
    --------------------------------------------
      LOOP:  cpu time    4.5863: real time    4.6096

 eigenvalue-minimisations  :  8044
 total energy-change (2. order) : 0.3520182E-03  (-0.1578250E-03)
 number of electron      16.0000001 magnetization       4.4837567
 augmentation part        8.3087407 magnetization       3.6920769

 Broyden mixing:
  rms(total) = 0.59885E-02    rms(broyden)= 0.59841E-02
  rms(prec ) = 0.81831E-02
  weight for this iteration     100.00

 eigenvalues of (default mixing * dielectric matrix)
  average eigenvalue GAMMA=   1.1349
  2.4170  1.1105  0.6334  0.7568  0.7568

 Free energy of the ion-electron system (eV)
  ---------------------------------------------------
  alpha Z        PSCENC =       117.79976220
  Ewald energy   TEWEN  =     -1171.43779597
  -Hartree energ DENC   =      -195.19779244
  -exchange      EXHF   =         0.00000000
  -V(xc)+E(xc)   XCENC  =         8.53482053
  PAW double counting   =      1409.75983995    -1427.75717997
  entropy T*S    EENTRO =        -0.00201865
  eigenvalues    EBANDS =        53.22981091
  atomic energy  EATOM  =      1188.58965621
  Solvation  Ediel_sol  =         0.00000000
  ---------------------------------------------------
  free energy    TOTEN  =       -16.48089722 eV

  energy without entropy =      -16.47887857  energy(sigma->0) =      -16.48022434


--------------------------------------------------------------------------------------------------------




--------------------------------------- Iteration      1(  11)  ---------------------------------------


    POTLOK:  cpu time    0.0350: real time    0.0513
    SETDIJ:  cpu time    1.5428: real time    1.5428
     EDDAV:  cpu time    2.8126: real time    2.8147
       DOS:  cpu time    0.0070: real time    0.0084
    CHARGE:  cpu time    0.1570: real time    0.1564
    MIXING:  cpu time    0.0010: real time    0.0013
    --------------------------------------------
      LOOP:  cpu time    4.5543: real time    4.5749

 eigenvalue-minimisations  :  8056
 total energy-change (2. order) :-0.2741961E-04  (-0.7042460E-05)
 number of electron      16.0000001 magnetization       4.4811842
 augmentation part        8.3102130 magnetization       3.6897606

 Broyden mixing:
  rms(total) = 0.47613E-02    rms(broyden)= 0.47610E-02
  rms(prec ) = 0.51524E-02
  weight for this iteration     100.00

 eigenvalues of (default mixing * dielectric matrix)
  average eigenvalue GAMMA=   1.1195
  2.4110  1.2774  1.0178  0.6948  0.6948  0.6211

 Free energy of the ion-electron system (eV)
  ---------------------------------------------------
  alpha Z        PSCENC =       117.79976220
  Ewald energy   TEWEN  =     -1171.43779597
  -Hartree energ DENC   =      -195.15604730
  -exchange      EXHF   =         0.00000000
  -V(xc)+E(xc)   XCENC  =         8.54673508
  PAW double counting   =      1411.78017909    -1429.79659680
  entropy T*S    EENTRO =        -0.00202484
  eigenvalues    EBANDS =        53.19520770
  atomic energy  EATOM  =      1188.58965621
  Solvation  Ediel_sol  =         0.00000000
  ---------------------------------------------------
  free energy    TOTEN  =       -16.48092464 eV

  energy without entropy =      -16.47889980  energy(sigma->0) =      -16.48024969


--------------------------------------------------------------------------------------------------------




--------------------------------------- Iteration      1(  12)  ---------------------------------------


    POTLOK:  cpu time    0.0350: real time    0.0511
    SETDIJ:  cpu time    1.5418: real time    1.5425
     EDDAV:  cpu time    2.5126: real time    2.5142
       DOS:  cpu time    0.0080: real time    0.0084
    CHARGE:  cpu time    0.1560: real time    0.1575
    MIXING:  cpu time    0.0020: real time    0.0013
    --------------------------------------------
      LOOP:  cpu time    4.2554: real time    4.2749

 eigenvalue-minimisations  :  6896
 total energy-change (2. order) : 0.1026247E-04  (-0.2653583E-06)
 number of electron      16.0000001 magnetization       4.4798454
 augmentation part        8.3104400 magnetization       3.6885875

 Broyden mixing:
  rms(total) = 0.19559E-02    rms(broyden)= 0.19558E-02
  rms(prec ) = 0.23024E-02
  weight for this iteration     100.00

 eigenvalues of (default mixing * dielectric matrix)
  average eigenvalue GAMMA=   1.2512
  2.4201  2.4201  1.0813  0.8283  0.6719  0.6719  0.6648

 Free energy of the ion-electron system (eV)
  ---------------------------------------------------
  alpha Z        PSCENC =       117.79976220
  Ewald energy   TEWEN  =     -1171.43779597
  -Hartree energ DENC   =      -195.16761826
  -exchange      EXHF   =         0.00000000
  -V(xc)+E(xc)   XCENC  =         8.54494348
  PAW double counting   =      1411.97585246    -1429.97112011
  entropy T*S    EENTRO =        -0.00202116
  eigenvalues    EBANDS =        53.18742678
  atomic energy  EATOM  =      1188.58965621
  Solvation  Ediel_sol  =         0.00000000
  ---------------------------------------------------
  free energy    TOTEN  =       -16.48091438 eV

  energy without entropy =      -16.47889321  energy(sigma->0) =      -16.48024066


--------------------------------------------------------------------------------------------------------




--------------------------------------- Iteration      1(  13)  ---------------------------------------


    POTLOK:  cpu time    0.0360: real time    0.0524
    SETDIJ:  cpu time    1.5458: real time    1.5454
     EDDAV:  cpu time    2.4036: real time    2.4069
       DOS:  cpu time    0.0080: real time    0.0081
    --------------------------------------------
      LOOP:  cpu time    3.9934: real time    4.0128

 eigenvalue-minimisations  :  6512
 total energy-change (2. order) :-0.1447920E-06  (-0.1777739E-06)
 number of electron      16.0000001 magnetization       4.4798454
 augmentation part        8.3104400 magnetization       3.6885875

 Free energy of the ion-electron system (eV)
  ---------------------------------------------------
  alpha Z        PSCENC =       117.79976220
  Ewald energy   TEWEN  =     -1171.43779597
  -Hartree energ DENC   =      -195.17640152
  -exchange      EXHF   =         0.00000000
  -V(xc)+E(xc)   XCENC  =         8.54504260
  PAW double counting   =      1412.45927246    -1430.44052022
  entropy T*S    EENTRO =        -0.00202386
  eigenvalues    EBANDS =        53.18209358
  atomic energy  EATOM  =      1188.58965621
  Solvation  Ediel_sol  =         0.00000000
  ---------------------------------------------------
  free energy    TOTEN  =       -16.48091452 eV

  energy without entropy =      -16.47889066  energy(sigma->0) =      -16.48023990


--------------------------------------------------------------------------------------------------------




 average (electrostatic) potential at core
  the test charge radii are     1.0103
  (the norm of the test charge is              1.0000)
       1 -43.6024       2 -43.6024
 
 
 
 E-fermi :   5.4843     XC(G=0): -12.9355     alpha+bet :-13.2097

 Fermi energy:         5.4842547969

 spin component 1

 k-point     1 :       0.0000    0.0000    0.0000
  band No.  band energies     occupation 
      1      -2.7451      1.00000
      2       0.8400      1.00000
      3       0.8400      1.00000
      4       3.2537      1.00000
      5       3.2537      1.00000
      6       3.2537      1.00000
      7       4.4075      1.00000
      8       4.4075      1.00000
      9       5.5565      0.21521
     10       5.5565      0.21521
     11       5.5565      0.21521
     12      15.2061      0.00000
     13      15.2061      0.00000
     14      15.2061      0.00000
     15      20.8203      0.00000
     16      20.8203      0.00000
     17      25.5386      0.00000
     18      30.2048      0.00000
     19      30.2048      0.00000
     20      30.2048      0.00000

 k-point     2 :       0.0833   -0.0000    0.0000
  band No.  band energies     occupation 
      1      -2.6046      1.00000
      2       0.8990      1.00000
      3       0.9003      1.00000
      4       3.2529      1.00000
      5       3.2529      1.00000
      6       3.2914      1.00000
      7       4.3469      1.00000
      8       4.4314      1.00000
      9       5.4428      0.67143
     10       5.4428      0.67143
     11       5.5160      0.36751
     12      14.2216      0.00000
     13      15.4686      0.00000
     14      15.4686      0.00000
     15      20.8635      0.00000
     16      21.5379      0.00000
     17      26.0201      0.00000
     18      29.2762      0.00000
     19      30.0510      0.00000
     20      30.0510      0.00000

 k-point     3 :       0.1667    0.0000    0.0000
  band No.  band energies     occupation 
      1      -2.1916      1.00000
      2       1.0629      1.00000
      3       1.0720      1.00000
      4       3.2565      1.00000
      5       3.2565      1.00000
      6       3.4021      1.00000
      7       4.1687      1.00000
      8       4.5009      1.00000
      9       5.1423      1.01812
     10       5.1423      1.01812
     11       5.3969      0.83334
     12      12.2636      0.00000
     13      16.2125      0.00000
     14      16.2125      0.00000
     15      20.9954      0.00000
     16      22.5091      0.00000
     17      27.6368      0.00000
     18      27.6712      0.00000
     19      29.3252      0.00000
     20      29.3252      0.00000

 k-point     4 :       0.2500   -0.0000    0.0000
  band No.  band energies     occupation 
      1      -1.5346      1.00000
      2       1.2723      1.00000
      3       1.3493      1.00000
      4       3.2805      1.00000
      5       3.2805      1.00000
      6       3.5793      1.00000
      7       3.8835      1.00000
      8       4.6129      1.00000
      9       4.7450      1.00000
     10       4.7450      1.00000
     11       5.2083      1.03249
     12      10.1863     -0.00000
     13      17.3411      0.00000
     14      17.3411      0.00000
     15      21.2279      0.00000
     16      23.0764      0.00000
     17      26.0648      0.00000
     18      27.8498      0.00000
     19      27.8498      0.00000
     20      29.6283      0.00000

 k-point     5 :       0.3333    0.0000    0.0000
  band No.  band energies     occupation 
      1      -0.6932      1.00000
      2       1.4305      1.00000
      3       1.7141      1.00000
      4       3.3460      1.00000
      5       3.3460      1.00000
      6       3.5101      1.00000
      7       3.8121      1.00000
      8       4.3359      1.00000
      9       4.3359      1.00000
     10       4.7808      1.00000
     11       4.9641      1.00073
     12       8.2799     -0.00000
     13      18.7581      0.00000
     14      18.7581      0.00000
     15      21.5792      0.00000
     16      23.5346      0.00000
     17      24.7158      0.00000
     18      25.9985      0.00000
     19      25.9985      0.00000
     20      27.7658      0.00000

 k-point     6 :       0.4167    0.0000    0.0000
  band No.  band energies     occupation 
      1       0.2143      1.00000
      2       1.3858      1.00000
      3       2.1431      1.00000
      4       3.0742      1.00000
      5       3.4743      1.00000
      6       3.4743      1.00000
      7       3.9712      1.00000
      8       3.9712      1.00000
      9       4.0857      1.00000
     10       4.6820      1.00000
     11       5.0718      1.00651
     12       6.7196     -0.00000
     13      20.3880      0.00000
     14      20.3880      0.00000
     15      22.0742      0.00000
     16      23.6124      0.00000
     17      24.0656      0.00000
     18      24.0656      0.00000
     19      24.1292      0.00000
     20      26.2063      0.00000

 k-point     7 :       0.5000   -0.0000    0.0000
  band No.  band energies     occupation 
      1       0.9788      1.00000
      2       0.9788      1.00000
      3       2.6076      1.00000
      4       2.6076      1.00000
      5       3.6810      1.00000
      6       3.6810      1.00000
      7       3.6810      1.00000
      8       3.6810      1.00000
      9       4.3824      1.00000
     10       4.3824      1.00000
     11       5.6532     -0.00063
     12       5.6532     -0.00063
     13      22.1746      0.00000
     14      22.1746      0.00000
     15      22.1746      0.00000
     16      22.1746      0.00000
     17      22.7424      0.00000
     18      22.7424      0.00000
     19      24.9971      0.00000
     20      24.9971      0.00000

 k-point     8 :       0.0833    0.0833    0.0000
  band No.  band energies     occupation 
      1      -2.4658      1.00000
      2       0.9545      1.00000
      3       0.9621      1.00000
      4       3.1802      1.00000
      5       3.2465      1.00000
      6       3.4003      1.00000
      7       4.3381      1.00000
      8       4.4135      1.00000
      9       5.2424      1.03542
     10       5.3289      0.98387
     11       5.5737      0.16021
     12      14.2558      0.00000
     13      14.6718      0.00000
     14      15.7194      0.00000
     15      21.2288      0.00000
     16      22.0364      0.00000
     17      26.4355      0.00000
     18      28.4102      0.00000
     19      29.7392      0.00000
     20      29.9809      0.00000

 k-point     9 :       0.1667    0.0833    0.0000
  band No.  band energies     occupation 
      1      -2.0581      1.00000
      2       1.1114      1.00000
      3       1.1354      1.00000
      4       3.1258      1.00000
      5       3.2339      1.00000
      6       3.5670      1.00000
      7       4.2005      1.00000
      8       4.4718      1.00000
      9       4.8950      1.00013
     10       5.0324      1.00317
     11       5.5309      0.30849
     12      12.4356      0.00000
     13      15.1893      0.00000
     14      16.4348      0.00000
     15      21.4690      0.00000
     16      23.1314      0.00000
     17      26.6977      0.00000
     18      27.9329      0.00000
     19      28.9189      0.00000
     20      29.4264      0.00000

 k-point    10 :       0.2500    0.0833    0.0000
  band No.  band energies     occupation 
      1      -1.4118      1.00000
      2       1.3223      1.00000
      3       1.3995      1.00000
      4       3.1120      1.00000
      5       3.2238      1.00000
      6       3.7780      1.00000
      7       3.9686      1.00000
      8       4.4879      1.00000
      9       4.5864      1.00000
     10       4.6506      1.00000
     11       5.3864      0.86415
     12      10.3508     -0.00000
     13      16.1847      0.00000
     14      17.5304      0.00000
     15      21.7522      0.00000
     16      23.8674      0.00000
     17      24.9465      0.00000
     18      27.5278      0.00000
     19      27.9905      0.00000
     20      30.5168      0.00000

 k-point    11 :       0.3333    0.0833    0.0000
  band No.  band energies     occupation 
      1      -0.5896      1.00000
      2       1.4762      1.00000
      3       1.7449      1.00000
      4       3.1525      1.00000
      5       3.1803      1.00000
      6       3.7324      1.00000
      7       4.0292      1.00000
      8       4.0847      1.00000
      9       4.2795      1.00000
     10       4.7574      1.00000
     11       5.1679      1.02390
     12       8.4251     -0.00000
     13      17.4067      0.00000
     14      18.9176      0.00000
     15      22.1633      0.00000
     16      23.2927      0.00000
     17      24.4852      0.00000
     18      25.9976      0.00000
     19      26.1227      0.00000
     20      29.2773      0.00000

 k-point    12 :       0.4167    0.0833    0.0000
  band No.  band energies     occupation 
      1       0.2880      1.00000
      2       1.4225      1.00000
      3       2.1473      1.00000
      4       2.9558      1.00000
      5       3.2626      1.00000
      6       3.6745      1.00000
      7       3.7315      1.00000
      8       3.9868      1.00000
      9       4.3108      1.00000
     10       4.9004      1.00015
     11       5.0640      1.00569
     12       6.8243     -0.00000
     13      18.7692      0.00000
     14      20.5250      0.00000
     15      21.7251      0.00000
     16      22.7468      0.00000
     17      24.1826      0.00000
     18      24.6379      0.00000
     19      25.2548      0.00000
     20      27.6538      0.00000

 k-point    13 :       0.5000    0.0833    0.0000
  band No.  band energies     occupation 
      1       1.0222      1.00000
      2       1.0222      1.00000
      3       2.5706      1.00000
      4       2.5706      1.00000
      5       3.4544      1.00000
      6       3.4544      1.00000
      7       3.7886      1.00000
      8       3.7886      1.00000
      9       4.6074      1.00000
     10       4.6074      1.00000
     11       5.6945     -0.02965
     12       5.6945     -0.02965
     13      20.2175      0.00000
     14      20.2175      0.00000
     15      22.2962      0.00000
     16      22.2962      0.00000
     17      23.5556      0.00000
     18      23.5556      0.00000
     19      26.3010      0.00000
     20      26.3010      0.00000

 k-point    14 :       0.1667    0.1667    0.0000
  band No.  band energies     occupation 
      1      -1.6686      1.00000
      2       1.2306      1.00000
      3       1.3276      1.00000
      4       2.9831      1.00000
      5       3.1859      1.00000
      6       3.8152      1.00000
      7       4.2335      1.00000
      8       4.4343      1.00000
      9       4.4893      1.00000
     10       4.7557      1.00000
     11       5.6203      0.04730
     12      12.4288      0.00000
     13      13.7684      0.00000
     14      17.0787      0.00000
     15      21.8261      0.00000
     16      24.6734      0.00000
     17      24.8603      0.00000
     18      28.2267      0.00000
     19      28.9474      0.00000
     20      29.5183      0.00000

 k-point    15 :       0.2500    0.1667    0.0000
  band No.  band energies     occupation 
      1      -1.0594      1.00000
      2       1.3877      1.00000
      3       1.6077      1.00000
      4       2.8915      1.00000
      5       3.1401      1.00000
      6       4.0595      1.00000
      7       4.0913      1.00000
      8       4.1357      1.00000
      9       4.4288      1.00000
     10       4.5178      1.00000
     11       5.5901      0.11427
     12      10.7031     -0.00000
     13      14.2640      0.00000
     14      18.0870      0.00000
     15      22.0995      0.00000
     16      22.9565      0.00000
     17      25.9226      0.00000
     18      27.1163      0.00000
     19      28.4052      0.00000
     20      31.0694      0.00000

 k-point    16 :       0.3333    0.1667    0.0000
  band No.  band energies     occupation 
      1      -0.3055      1.00000
      2       1.4953      1.00000
      3       1.9348      1.00000
      4       2.8679      1.00000
      5       3.0778      1.00000
      6       3.6594      1.00000
      7       4.0184      1.00000
      8       4.1663      1.00000
      9       4.3856      1.00000
     10       4.6893      1.00000
     11       5.4559      0.61870
     12       8.7735     -0.00000
     13      15.3196      0.00000
     14      19.3918      0.00000
     15      21.1543      0.00000
     16      22.4574      0.00000
     17      25.8316      0.00000
     18      26.4807      0.00000
     19      26.8425      0.00000
     20      31.5968      0.00000

 k-point    17 :       0.4167    0.1667    0.0000
  band No.  band energies     occupation 
      1       0.4623      1.00000
[...]

 k-point    78 :       0.4167    0.4167    0.3333
  band No.  band energies     occupation 
      1       3.4809      1.00000
      2       3.5267      1.00000
      3       3.9774      1.00000
      4       4.0656      1.00000
      5       4.2399      1.00000
      6       4.4490      1.00000
      7       7.6477     -0.00000
      8       7.6855     -0.00000
      9       7.7663     -0.00000
     10       7.7867     -0.00000
     11      11.1815     -0.00000
     12      12.8051      0.00000
     13      14.7056      0.00000
     14      16.7857      0.00000
     15      16.9968      0.00000
     16      18.9595      0.00000
     17      20.0027      0.00000
     18      22.1612      0.00000
     19      36.8738      0.00000
     20      38.1232      0.00000

 k-point    79 :       0.5000    0.4167    0.3333
  band No.  band energies     occupation 
      1       3.5033      1.00000
      2       3.5033      1.00000
      3       3.9806      1.00000
      4       3.9806      1.00000
      5       4.4404      1.00000
      6       4.4404      1.00000
      7       7.6791     -0.00000
      8       7.6791     -0.00000
      9       7.8086     -0.00000
     10       7.8086     -0.00000
     11      12.0582      0.00000
     12      12.0582      0.00000
     13      15.4947      0.00000
     14      15.4947      0.00000
     15      17.9757      0.00000
     16      17.9757      0.00000
     17      20.7319      0.00000
     18      20.7319      0.00000
     19      37.7822      0.00000
     20      37.7822      0.00000

 k-point    80 :       0.5000    0.5000    0.3333
  band No.  band energies     occupation 
      1       3.5058      1.00000
      2       3.5058      1.00000
      3       3.9313      1.00000
      4       3.9313      1.00000
      5       4.5386      1.00000
      6       4.5386      1.00000
      7       7.7062     -0.00000
      8       7.7062     -0.00000
      9       7.8282     -0.00000
     10       7.8282     -0.00000
     11      12.4593      0.00000
     12      12.4593      0.00000
     13      14.8935      0.00000
     14      14.8935      0.00000
     15      18.7085      0.00000
     16      18.7085      0.00000
     17      19.6621      0.00000
     18      19.6621      0.00000
     19      38.2645      0.00000
     20      38.2645      0.00000

 k-point    81 :       0.4167    0.4167    0.4167
  band No.  band energies     occupation 
      1       3.6755      1.00000
      2       3.9365      1.00000
      3       3.9544      1.00000
      4       3.9545      1.00000
      5       4.1784      1.00000
      6       4.1785      1.00000
      7       7.7676     -0.00000
      8       7.7678     -0.00000
      9       7.7849     -0.00000
     10       7.7850     -0.00000
     11      12.1435      0.00000
     12      14.2068      0.00000
     13      14.2068      0.00000
     14      16.3701      0.00000
     15      17.2967      0.00000
     16      17.2968      0.00000
     17      18.6657      0.00000
     18      20.4819      0.00000
     19      39.6683      0.00000
     20      39.6683      0.00000

 k-point    82 :       0.5000    0.4167    0.4167
  band No.  band energies     occupation 
      1       3.7720      1.00000
      2       3.7720      1.00000
      3       4.0153      1.00000
      4       4.0153      1.00000
      5       4.1903      1.00000
      6       4.1903      1.00000
      7       7.7774     -0.00000
      8       7.7774     -0.00000
      9       7.8189     -0.00000
     10       7.8189     -0.00000
     11      13.1730      0.00000
     12      13.1730      0.00000
     13      15.7080      0.00000
     14      15.7080      0.00000
     15      16.8274      0.00000
     16      16.8274      0.00000
     17      19.1085      0.00000
     18      19.1085      0.00000
     19      40.4695      0.00000
     20      40.4695      0.00000

 k-point    83 :       0.5000    0.5000    0.4167
  band No.  band energies     occupation 
      1       3.8720      1.00000
      2       3.8720      1.00000
      3       3.9265      1.00000
      4       3.9265      1.00000
      5       4.2119      1.00000
      6       4.2119      1.00000
      7       7.8020     -0.00000
      8       7.8020     -0.00000
      9       7.8370     -0.00000
     10       7.8370     -0.00000
     11      13.8984      0.00000
     12      13.8984      0.00000
     13      15.1979      0.00000
     14      15.1979      0.00000
     15      17.0372      0.00000
     16      17.0372      0.00000
     17      18.1740      0.00000
     18      18.1740      0.00000
     19      41.4765      0.00000
     20      41.4765      0.00000

 k-point    84 :       0.5000    0.5000    0.5000
  band No.  band energies     occupation 
      1       4.0117      1.00000
      2       4.0117      1.00000
      3       4.0118      1.00000
      4       4.0118      1.00000
      5       4.0118      1.00000
      6       4.0118      1.00000
      7       7.8398     -0.00000
      8       7.8398     -0.00000
      9       7.8400     -0.00000
     10       7.8400     -0.00000
     11      15.4287      0.00000
     12      15.4287      0.00000
     13      15.4287      0.00000
     14      15.4287      0.00000
     15      15.4287      0.00000
     16      15.4287      0.00000
     17      17.5220      0.00000
     18      17.5220      0.00000
     19      44.7505      0.00000
     20      44.7505      0.00000


--------------------------------------------------------------------------------------------------------


 soft charge-density along one line, spin component           1
         0         1         2         3         4         5         6         7         8         9
 total charge-density along one line
 
 soft charge-density along one line, spin component           2
         0         1         2         3         4         5         6         7         8         9
 total charge-density along one line
 
 pseudopotential strength for first ion, spin component:           1
 -5.559  -0.000  -0.000  -0.000  -0.000  -6.091  -0.000  -0.000
 -0.000  -5.559   0.000   0.000   0.000  -0.000  -6.091   0.000
 -0.000   0.000  -5.770   0.000   0.000  -0.000   0.000  -6.295
 -0.000   0.000   0.000  -5.559  -0.000  -0.000   0.000   0.000
 -0.000   0.000   0.000  -0.000  -5.770  -0.000   0.000   0.000
 -6.091  -0.000  -0.000  -0.000  -0.000  -6.581  -0.000  -0.000
 -0.000  -6.091   0.000   0.000   0.000  -0.000  -6.581   0.000
 -0.000   0.000  -6.295   0.000   0.000  -0.000   0.000  -6.778
 -0.000   0.000   0.000  -6.091  -0.000  -0.000   0.000   0.000
 -0.000   0.000   0.000  -0.000  -6.295  -0.000   0.000   0.000
 -0.000   0.000   0.000   0.000  -0.000  -0.000   0.000   0.000
 -0.000   0.000   0.000   0.000  -0.000  -0.000   0.000   0.000
  0.000   0.000  -0.000  -0.000  -0.000   0.000   0.000  -0.000
 -0.000   0.000   0.000  -0.000   0.000  -0.000   0.000   0.000
  0.000  -0.000  -0.000   0.000  -0.000   0.000  -0.000  -0.000
  0.000   0.000  -0.000  -0.000  -0.000   0.000   0.000  -0.000
 -0.000   0.000   0.000  -0.000   0.000  -0.000   0.000   0.000
  0.000  -0.000   0.000   0.000  -0.000   0.000  -0.000  -0.000
 pseudopotential strength for first ion, spin component:           2
 -4.132   0.000   0.000   0.000   0.000  -4.707   0.000   0.000
  0.000  -4.132  -0.000  -0.000  -0.000   0.000  -4.707  -0.000
  0.000  -0.000  -3.880  -0.000  -0.000   0.000  -0.000  -4.465
  0.000  -0.000  -0.000  -4.132   0.000   0.000  -0.000  -0.000
  0.000  -0.000  -0.000   0.000  -3.880   0.000  -0.000  -0.000
 -4.707   0.000   0.000   0.000   0.000  -5.240   0.000   0.000
  0.000  -4.707  -0.000  -0.000  -0.000   0.000  -5.240  -0.000
  0.000  -0.000  -4.465  -0.000  -0.000   0.000  -0.000  -5.005
  0.000  -0.000  -0.000  -4.707   0.000   0.000  -0.000  -0.000
  0.000  -0.000  -0.000   0.000  -4.464   0.000  -0.000  -0.000
  0.000  -0.000  -0.000  -0.000   0.000   0.000  -0.000  -0.000
  0.000  -0.000  -0.000  -0.000   0.000   0.000  -0.000  -0.000
  0.000   0.000  -0.000  -0.000  -0.000   0.000   0.000  -0.000
 -0.000   0.000   0.000   0.000   0.000  -0.000   0.000   0.000
  0.000  -0.000  -0.000   0.000  -0.000   0.000  -0.000  -0.000
  0.000   0.000  -0.000  -0.000  -0.000   0.000   0.000  -0.000
 -0.000   0.000   0.000   0.000   0.000  -0.000   0.000   0.000
  0.000  -0.000  -0.000   0.000  -0.000   0.000  -0.000  -0.000
 total augmentation occupancy for first ion, spin component:           1
  2.248   0.000  -0.000   0.000  -0.000  -1.252  -0.000   0.000  -0.000   0.000   0.000   0.000  -0.000   0.000   0.000   0.000
  0.000   2.248   0.000   0.000  -0.000  -0.000  -1.252   0.000  -0.000   0.000  -0.000  -0.000   0.000  -0.000   0.000  -0.000
 -0.000   0.000   3.673   0.000   0.000   0.000  -0.000  -2.397  -0.000   0.000  -0.000   0.000  -0.000  -0.000  -0.000   0.000
  0.000   0.000   0.000   2.248   0.000  -0.000  -0.000  -0.000  -1.252  -0.000  -0.000  -0.000   0.000  -0.000   0.000   0.000
 -0.000  -0.000  -0.000   0.000   3.673   0.000   0.000   0.000  -0.000  -2.397  -0.000   0.000   0.000   0.000  -0.000  -0.000
 -1.252  -0.000   0.000  -0.000   0.000   1.650   0.000  -0.000   0.000  -0.000   0.000   0.000   0.000   0.000   0.000   0.000
 -0.000  -1.252  -0.000  -0.000   0.000   0.000   1.650   0.000   0.000  -0.000  -0.000  -0.000  -0.000   0.000   0.000  -0.000
  0.000  -0.000  -2.397  -0.000   0.000  -0.000   0.000   2.381   0.000   0.000   0.000  -0.000  -0.000   0.000  -0.000   0.000
 -0.000  -0.000   0.000  -1.252  -0.000   0.000   0.000   0.000   1.650   0.000  -0.000   0.000   0.000   0.000   0.000  -0.000
  0.000   0.000   0.000  -0.000  -2.397  -0.000  -0.000   0.000   0.000   2.381   0.000   0.000   0.000  -0.000   0.000   0.000
  0.000  -0.000  -0.000   0.000  -0.000   0.000  -0.000   0.000  -0.000   0.000   2.435  -0.284  -0.000  -0.000  -0.000   0.000
  0.000  -0.000   0.000  -0.000  -0.000  -0.000  -0.000  -0.000   0.000   0.000  -0.284   0.039   0.000   0.000  -0.000  -0.000
 -0.000   0.000  -0.000   0.000   0.000  -0.000   0.000  -0.000   0.000   0.000   0.000  -0.000   0.297   0.000   0.000  -0.026
  0.000   0.000   0.000  -0.000   0.000   0.000   0.000   0.000  -0.000  -0.000  -0.000   0.000   0.000   0.297   0.000  -0.000
 -0.000   0.000   0.000   0.000   0.000  -0.000   0.000   0.000   0.000   0.000   0.000   0.000   0.000   0.000   0.297  -0.000
 -0.000   0.000   0.000   0.000   0.000   0.000   0.000   0.000  -0.000   0.000   0.000   0.000  -0.026  -0.000  -0.000   0.003
  0.000  -0.000   0.000  -0.000   0.000  -0.000   0.000   0.000   0.000   0.000  -0.000  -0.000  -0.000  -0.026  -0.000   0.000
  0.000   0.000   0.000  -0.000   0.000   0.000   0.000  -0.000  -0.000   0.000  -0.000   0.000  -0.000  -0.000  -0.026   0.000
 total augmentation occupancy for first ion, spin component:           2
  1.860   0.000  -0.000   0.000  -0.000  -0.777  -0.000   0.000  -0.000   0.000   0.000  -0.000   0.000   0.000  -0.000   0.000
  0.000   1.860   0.000   0.000  -0.000  -0.000  -0.777  -0.000  -0.000   0.000   0.000   0.000   0.000   0.000   0.000  -0.000
 -0.000   0.000   3.102   0.000   0.000   0.000  -0.000  -1.383  -0.000   0.000   0.000  -0.000   0.000   0.000   0.000   0.000
  0.000   0.000   0.000   1.860   0.000  -0.000  -0.000  -0.000  -0.777  -0.000  -0.000   0.000   0.000   0.000   0.000   0.000
 -0.000  -0.000   0.000   0.000   3.102   0.000   0.000  -0.000  -0.000  -1.383   0.000  -0.000   0.000   0.000   0.000  -0.000
 -0.777  -0.000   0.000  -0.000   0.000   0.087   0.000  -0.000   0.000  -0.000  -0.000  -0.000   0.000   0.000   0.000  -0.000
 -0.000  -0.777  -0.000  -0.000   0.000   0.000   0.087  -0.000   0.000  -0.000   0.000   0.000   0.000  -0.000  -0.000   0.000
  0.000  -0.000  -1.383  -0.000  -0.000  -0.000  -0.000   0.378  -0.000   0.000   0.000   0.000   0.000   0.000  -0.000  -0.000
 -0.000  -0.000  -0.000  -0.777  -0.000   0.000   0.000  -0.000   0.087   0.000   0.000   0.000  -0.000   0.000   0.000   0.000
  0.000   0.000  -0.000  -0.000  -1.383  -0.000  -0.000   0.000   0.000   0.378  -0.000   0.000   0.000   0.000   0.000   0.000
 -0.000  -0.000   0.000  -0.000  -0.000  -0.000   0.000  -0.000   0.000   0.000  -0.329   0.099   0.000   0.000   0.000   0.000
 -0.000   0.000  -0.000   0.000   0.000   0.000   0.000   0.000   0.000   0.000   0.099  -0.017   0.000   0.000   0.000   0.000
  0.000  -0.000  -0.000   0.000  -0.000   0.000   0.000   0.000  -0.000   0.000   0.000  -0.000  -0.037  -0.000  -0.000   0.006
  0.000  -0.000   0.000   0.000  -0.000   0.000  -0.000   0.000   0.000  -0.000   0.000  -0.000  -0.000  -0.037  -0.000   0.000
  0.000   0.000  -0.000   0.000  -0.000   0.000  -0.000  -0.000   0.000   0.000   0.000   0.000  -0.000  -0.000  -0.037   0.000
 -0.000   0.000   0.000   0.000   0.000   0.000  -0.000  -0.000   0.000   0.000   0.000  -0.000   0.006   0.000   0.000  -0.001
  0.000  -0.000  -0.000   0.000   0.000   0.000   0.000   0.000  -0.000   0.000   0.000   0.000   0.000   0.006   0.000  -0.000
 -0.000   0.000  -0.000   0.000  -0.000  -0.000   0.000   0.000  -0.000  -0.000   0.000   0.000   0.000   0.000   0.006  -0.000


------------------------ aborting loop because EDIFF is reached ----------------------------------------





 total charge

# of ion       s       p       d       tot
------------------------------------------
    1        0.489   0.546   6.239   7.275
    2        0.489   0.546   6.239   7.275
--------------------------------------------------
tot          0.979   1.093  12.478  14.550



 magnetization (x)

# of ion       s       p       d       tot
------------------------------------------
    1       -0.014  -0.056   2.240   2.170
    2       -0.014  -0.056   2.240   2.170
--------------------------------------------------
tot         -0.027  -0.112   4.479   4.340
 
    CHARGE:  cpu time    0.1580: real time    0.1581
    FORLOC:  cpu time    0.0000: real time    0.0008
    FORNL :  cpu time    0.3539: real time    0.3540
    STRESS:  cpu time    1.2258: real time    1.2268
    FORCOR:  cpu time    0.0330: real time    0.0337
    FORHAR:  cpu time    0.0030: real time    0.0029
    MIXING:  cpu time    0.0000: real time    0.0010
    OFIELD:  cpu time    0.0010: real time    0.0002

  FORCE on cell =-STRESS in cart. coord.  units (eV):
  Direction    XX          YY          ZZ          XY          YZ          ZX
  --------------------------------------------------------------------------------------
  Alpha Z   122.29365   122.29365   122.29365
  Ewald    -395.38280  -395.38280  -395.38280    -0.00000    -0.00000    -0.00000
  Hartree    63.10642    63.10642    63.10642    -0.00000    -0.00000    -0.00000
  E(xc)     -79.45683   -79.45683   -79.45683     0.00000    -0.00000     0.00000
  Local     118.20965   118.20965   118.20965    -0.00000     0.00000    -0.00000
  n-local   -54.78845   -51.65167   -48.97896     2.37949    -0.86823     0.67974
  augment    77.40800    77.40800    77.40800     0.00000     0.00000     0.00000
  Kinetic   148.06494   145.24963   143.57396     2.75685    -0.52692     0.14726
  Fock        0.00000     0.00000     0.00000     0.00000     0.00000     0.00000
  -------------------------------------------------------------------------------------
  Total       0.00123     0.00123     0.00123    -0.00000    -0.00000     0.00000
  in kB       0.08752     0.08752     0.08752    -0.00000    -0.00000     0.00000
  external pressure =        0.09 kB  Pullay stress =        0.00 kB


 VOLUME and BASIS-vectors are now :
 -----------------------------------------------------------------------------
  energy-cutoff  :      350.00
  volume of cell :       22.61
      direct lattice vectors                 reciprocal lattice vectors
     2.827527932 -0.000000000  0.000000000     0.353665825 -0.000000000 -0.000000000
     0.000000000  2.827527932  0.000000000     0.000000000  0.353665825 -0.000000000
     0.000000000  0.000000000  2.827527932    -0.000000000 -0.000000000  0.353665825

  length of vectors
     2.827527932  2.827527932  2.827527932     0.353665825  0.353665825  0.353665825


 FORCES acting on ions
    electron-ion (+dipol)            ewald-force                    non-local-force                 convergence-correction
 -----------------------------------------------------------------------------------------------
   -.191E-13 -.104E-13 -.184E-13   0.188E-14 -.283E-14 -.226E-14   -.677E-26 0.207E-24 0.103E-24   0.174E-13 0.244E-13 -.940E-14
   0.132E-12 -.549E-12 0.375E-13   -.271E-14 0.190E-14 0.356E-14   0.292E-24 0.457E-27 0.207E-24   0.201E-13 0.174E-13 -.336E-14
 -----------------------------------------------------------------------------------------------
   0.113E-12 -.559E-12 0.191E-13   -.824E-15 -.934E-15 0.130E-14   0.285E-24 0.207E-24 0.310E-24   0.375E-13 0.418E-13 -.128E-13
 
 
 POSITION                                       TOTAL-FORCE (eV/Angst)
 -----------------------------------------------------------------------------------
     -0.00000     -0.00000      0.00000        -0.000000     -0.000000      0.000000
      1.41376      1.41376      1.41376         0.000000      0.000000     -0.000000
 -----------------------------------------------------------------------------------
    total drift:                                0.000000     -0.000000      0.000000


--------------------------------------------------------------------------------------------------------



  FREE ENERGIE OF THE ION-ELECTRON SYSTEM (eV)
  ---------------------------------------------------
  free  energy   TOTEN  =       -16.49879176 eV

  energy  without entropy=      -16.49600087  energy(sigma->0) =      -16.49786146
 
 d Force = 0.0000000E+00[ 0.000E+00, 0.000E+00]  d Energy = 0.1276721E-01-0.128E-01
 d Force = 0.0000000E+00[ 0.000E+00, 0.000E+00]  d Ewald  =-0.1216571E+02 0.122E+02


--------------------------------------------------------------------------------------------------------


    POTLOK:  cpu time    1.5848: real time    1.5919


--------------------------------------------------------------------------------------------------------




--------------------------------------------------------------------------------------------------------


  
 reached required accuracy - stopping structural energy minimisation
 writing wavefunctions
     LOOP+:  cpu time   42.8755: real time   43.8869
    4ORBIT:  cpu time    0.0000: real time    0.0000



 total charge

# of ion       s       p       d       tot
------------------------------------------
    1        0.489   0.546   6.239   7.275
    2        0.489   0.546   6.239   7.275
--------------------------------------------------
tot          0.979   1.093  12.478  14.550



 magnetization (x)

# of ion       s       p       d       tot
------------------------------------------
    1       -0.014  -0.056   2.240   2.170
    2       -0.014  -0.056   2.240   2.170
--------------------------------------------------
tot         -0.027  -0.112   4.479   4.340
 

 total amount of memory used by VASP MPI-rank0    43082. kBytes
=======================================================================

   base      :      30000. kBytes
   nonl-proj :       4463. kBytes
   fftplans  :       1775. kBytes
   grid      :       1353. kBytes
   one-center:         62. kBytes
   wavefun   :       5429. kBytes
 
  
  
 General timing and accounting informations for this job:
 ========================================================
  
                  Total CPU time used (sec):      147.836
                            User time (sec):      145.514
                          System time (sec):        2.322
                         Elapsed time (sec):      155.181
  
                   Maximum memory used (kb):       73484.
                   Average memory used (kb):          N/A
  
                          Minor page faults:        11184
                          Major page faults:            1
                 Voluntary context switches:       195851
