PROCAR lm decomposed
# of k-points:   84         # of bands:   20         # of ions:    2

 k-point     1 :    0.00000000 0.00000000 0.00000000     weight = 0.00057870

band     1 # energy   -2.58590526 # occ.  1.00000000
 
ion      s     py     pz     px    dxy    dyz    dz2    dxz  x2-y2    tot
    1  0.368  0.000  0.000  0.000  0.000  0.000  0.000  0.000  0.000  0.368
    2  0.368  0.000  0.000  0.000  0.000  0.000  0.000  0.000  0.000  0.368
tot    0.736  0.000  0.000  0.000  0.000  0.000  0.000  0.000  0.000  0.736
 
band     2 # energy    1.00462839 # occ.  1.00000000
 
ion      s     py     pz     px    dxy    dyz    dz2    dxz  x2-y2    tot
    1  0.000  0.000  0.000  0.000  0.000  0.000  0.165  0.000  0.273  0.438
    2  0.000  0.000  0.000  0.000  0.000  0.000  0.165  0.000  0.273  0.438
tot    0.000  0.000  0.000  0.000  0.000  0.000  0.331  0.000  0.546  0.877
 
band     3 # energy    1.00462855 # occ.  1.00000000
 
ion      s     py     pz     px    dxy    dyz    dz2    dxz  x2-y2    tot
    1  0.000  0.000  0.000  0.000  0.000  0.000  0.273  0.000  0.165  0.438
    2  0.000  0.000  0.000  0.000  0.000  0.000  0.273  0.000  0.165  0.438
tot    0.000  0.000  0.000  0.000  0.000  0.000  0.546  0.000  0.331  0.877
 
band     4 # energy    3.57269144 # occ.  1.00000000
 
ion      s     py     pz     px    dxy    dyz    dz2    dxz  x2-y2    tot
    1  0.000  0.000  0.000  0.000  0.489  0.000  0.000  0.000  0.000  0.489
    2  0.000  0.000  0.000  0.000  0.489  0.000  0.000  0.000  0.000  0.489
tot    0.000  0.000  0.000  0.000  0.979  0.000  0.000  0.000  0.000  0.979
 
band     5 # energy    3.57269233 # occ.  1.00000000
 
ion      s     py     pz     px    dxy    dyz    dz2    dxz  x2-y2    tot
    1  0.000  0.000  0.000  0.000  0.000  0.000  0.000  0.489  0.000  0.489
    2  0.000  0.000  0.000  0.000  0.000  0.000  0.000  0.489  0.000  0.489
tot    0.000  0.000  0.000  0.000  0.000  0.001  0.000  0.978  0.000  0.979
 
band     6 # energy    3.57269235 # occ.  1.00000000
 
ion      s     py     pz     px    dxy    dyz    dz2    dxz  x2-y2    tot
    1  0.000  0.000  0.000  0.000  0.000  0.489  0.000  0.000  0.000  0.489
    2  0.000  0.000  0.000  0.000  0.000  0.489  0.000  0.000  0.000  0.489
tot    0.000  0.000  0.000  0.000  0.000  0.978  0.000  0.001  0.000  0.979
 
band     7 # energy    4.79059074 # occ.  1.00000000
 
ion      s     py     pz     px    dxy    dyz    dz2    dxz  x2-y2    tot
    1  0.000  0.000  0.000  0.000  0.000  0.000  0.482  0.000  0.004  0.485
    2  0.000  0.000  0.000  0.000  0.000  0.000  0.482  0.000  0.004  0.485
tot    0.000  0.000  0.000  0.000  0.000  0.000  0.963  0.000  0.007  0.970
 
band     8 # energy    4.79059177 # occ.  1.00000000
 
ion      s     py     pz     px    dxy    dyz    dz2    dxz  x2-y2    tot
    1  0.000  0.000  0.000  0.000  0.000  0.000  0.004  0.000  0.482  0.485
    2  0.000  0.000  0.000  0.000  0.000  0.000  0.004  0.000  0.482  0.485
tot    0.000  0.000  0.000  0.000  0.000  0.000  0.007  0.000  0.963  0.970
 
band     9 # energy    6.01064620 # occ.  0.07381739
 
ion      s     py     pz     px    dxy    dyz    dz2    dxz  x2-y2    tot
    1  0.000  0.000  0.000  0.000  0.494  0.000  0.000  0.000  0.000  0.494
    2  0.000  0.000  0.000  0.000  0.494  0.000  0.000  0.000  0.000  0.494
tot    0.000  0.000  0.000  0.000  0.988  0.000  0.000  0.000  0.000  0.988
 
band    10 # energy    6.01064784 # occ.  0.07381382
 
ion      s     py     pz     px    dxy    dyz    dz2    dxz  x2-y2    tot
    1  0.000  0.000  0.000  0.000  0.000  0.020  0.000  0.474  0.000  0.494
    2  0.000  0.000  0.000  0.000  0.000  0.020  0.000  0.474  0.000  0.494
tot    0.000  0.000  0.000  0.000  0.000  0.039  0.000  0.949  0.000  0.988
 
band    11 # energy    6.01064787 # occ.  0.07381375
 
ion      s     py     pz     px    dxy    dyz    dz2    dxz  x2-y2    tot
    1  0.000  0.000  0.000  0.000  0.000  0.474  0.000  0.020  0.000  0.494
    2  0.000  0.000  0.000  0.000  0.000  0.474  0.000  0.020  0.000  0.494
tot    0.000  0.000  0.000  0.000  0.000  0.949  0.000  0.039  0.000  0.988
 
band    12 # energy   15.84923116 # occ.  0.00000000
 
ion      s     py     pz     px    dxy    dyz    dz2    dxz  x2-y2    tot
    1  0.000  0.048  0.000  0.329  0.000  0.000  0.000  0.000  0.000  0.377
    2  0.000  0.048  0.000  0.329  0.000  0.000  0.000  0.000  0.000  0.377
tot    0.000  0.096  0.000  0.658  0.000  0.000  0.000  0.000  0.000  0.754
 
band    13 # energy   15.84923130 # occ.  0.00000000
 
ion      s     py     pz     px    dxy    dyz    dz2    dxz  x2-y2    tot
    1  0.000  0.329  0.000  0.048  0.000  0.000  0.000  0.000  0.000  0.377
    2  0.000  0.329  0.000  0.048  0.000  0.000  0.000  0.000  0.000  0.377
tot    0.000  0.658  0.000  0.096  0.000  0.000  0.000  0.000  0.000  0.754
 
band    14 # energy   15.84923142 # occ.  0.00000000
 
ion      s     py     pz     px    dxy    dyz    dz2    dxz  x2-y2    tot
    1  0.000  0.000  0.377  0.000  0.000  0.000  0.000  0.000  0.000  0.377
    2  0.000  0.000  0.377  0.000  0.000  0.000  0.000  0.000  0.000  0.377
tot    0.000  0.000  0.754  0.000  0.000  0.000  0.000  0.000  0.000  0.754
 
band    15 # energy   21.58090235 # occ.  0.00000000
 
ion      s     py     pz     px    dxy    dyz    dz2    dxz  x2-y2    tot
    1  0.000  0.000  0.000  0.000  0.000  0.000  0.477  0.000  0.000  0.477
    2  0.000  0.000  0.000  0.000  0.000  0.000  0.477  0.000  0.000  0.477
tot    0.000  0.000  0.000  0.000  0.000  0.000  0.954  0.000  0.000  0.954
 
band    16 # energy   21.58090415 # occ.  0.00000000
 
ion      s     py     pz     px    dxy    dyz    dz2    dxz  x2-y2    tot
    1  0.000  0.000  0.000  0.000  0.000  0.000  0.000  0.000  0.477  0.477
    2  0.000  0.000  0.000  0.000  0.000  0.000  0.000  0.000  0.477  0.477
tot    0.000  0.000  0.000  0.000  0.000  0.000  0.000  0.000  0.954  0.954
 
band    17 # energy   26.75366232 # occ.  0.00000000
 
ion      s     py     pz     px    dxy    dyz    dz2    dxz  x2-y2    tot
    1  0.391  0.000  0.000  0.000  0.000  0.000  0.000  0.000  0.000  0.391
    2  0.391  0.000  0.000  0.000  0.000  0.000  0.000  0.000  0.000  0.391
tot    0.782  0.000  0.000  0.000  0.000  0.000  0.000  0.000  0.000  0.782
 
band    18 # energy   30.94961980 # occ.  0.00000000
 
ion      s     py     pz     px    dxy    dyz    dz2    dxz  x2-y2    tot
    1  0.000  0.000  0.000  0.000  0.000  0.000  0.000  0.000  0.000  0.000
    2  0.000  0.000  0.000  0.000  0.000  0.000  0.000  0.000  0.000  0.000
tot    0.000  0.000  0.000  0.000  0.000  0.000  0.000  0.000  0.000  0.000
 
band    19 # energy   30.94961982 # occ.  0.00000000
 
ion      s     py     pz     px    dxy    dyz    dz2    dxz  x2-y2    tot
    1  0.000  0.000  0.000  0.000  0.000  0.000  0.000  0.000  0.000  0.000
    2  0.000  0.000  0.000  0.000  0.000  0.000  0.000  0.000  0.000  0.000
tot    0.000  0.000  0.000  0.000  0.000  0.000  0.000  0.000  0.000  0.000
 
band    20 # energy   30.94961985 # occ.  0.00000000
 
ion      s     py     pz     px    dxy    dyz    dz2    dxz  x2-y2    tot
    1  0.000  0.000  0.000  0.000  0.000  0.000  0.000  0.000  0.000  0.000
    2  0.000  0.000  0.000  0.000  0.000  0.000  0.000  0.000  0.000  0.000
tot    0.000  0.000  0.000  0.000  0.000  0.000  0.000  0.000  0.000  0.000
 

 k-point     2 :    0.08333333-0.00000000 0.00000000     weight = 0.00347222

band     1 # energy   -2.44122131 # occ.  1.00000000
 
ion      s     py     pz     px    dxy    dyz    dz2    dxz  x2-y2    tot
    1  0.363  0.000  0.000  0.005  0.000  0.000  0.000  0.000  0.000  0.368
    2  0.363  0.000  0.000  0.005  0.000  0.000  0.000  0.000  0.000  0.368
tot    0.726  0.000  0.000  0.010  0.000  0.000  0.000  0.000  0.000  0.736
 
band     2 # energy    1.06666635 # occ.  1.00000000
 
ion      s     py     pz     px    dxy    dyz    dz2    dxz  x2-y2    tot
    1  0.000  0.000  0.000  0.000  0.000  0.000  0.329  0.000  0.110  0.439
    2  0.000  0.000  0.000  0.000  0.000  0.000  0.329  0.000  0.110  0.439
tot    0.000  0.000  0.000  0.000  0.000  0.000  0.658  0.000  0.219  0.877
 
band     3 # energy    1.06893803 # occ.  1.00000000
 
ion      s     py     pz     px    dxy    dyz    dz2    dxz  x2-y2    tot
    1  0.000  0.000  0.000  0.004  0.000  0.000  0.109  0.000  0.326  0.438
    2  0.000  0.000  0.000  0.004  0.000  0.000  0.109  0.000  0.326  0.438
tot    0.000  0.000  0.000  0.008  0.000  0.000  0.217  0.000  0.651  0.876
 
band     4 # energy    3.57163640 # occ.  1.00000000
 
ion      s     py     pz     px    dxy    dyz    dz2    dxz  x2-y2    tot
    1  0.000  0.001  0.000  0.000  0.488  0.000  0.000  0.000  0.000  0.489
    2  0.000  0.001  0.000  0.000  0.488  0.000  0.000  0.000  0.000  0.489
tot    0.000  0.001  0.000  0.000  0.977  0.000  0.000  0.000  0.000  0.978
 
band     5 # energy    3.57163729 # occ.  1.00000000
 
ion      s     py     pz     px    dxy    dyz    dz2    dxz  x2-y2    tot
    1  0.000  0.000  0.001  0.000  0.000  0.000  0.000  0.488  0.000  0.489
    2  0.000  0.000  0.001  0.000  0.000  0.000  0.000  0.488  0.000  0.489
tot    0.000  0.000  0.001  0.000  0.000  0.000  0.000  0.977  0.000  0.978
 
band     6 # energy    3.61243388 # occ.  1.00000000
 
ion      s     py     pz     px    dxy    dyz    dz2    dxz  x2-y2    tot
    1  0.000  0.000  0.000  0.000  0.000  0.489  0.000  0.000  0.000  0.489
    2  0.000  0.000  0.000  0.000  0.000  0.489  0.000  0.000  0.000  0.489
tot    0.000  0.000  0.000  0.000  0.000  0.978  0.000  0.000  0.000  0.978
 
band     7 # energy    4.72574756 # occ.  1.00000000
 
ion      s     py     pz     px    dxy    dyz    dz2    dxz  x2-y2    tot
    1  0.000  0.000  0.000  0.000  0.000  0.000  0.363  0.000  0.121  0.484
    2  0.000  0.000  0.000  0.000  0.000  0.000  0.363  0.000  0.121  0.484
tot    0.000  0.000  0.000  0.000  0.000  0.000  0.726  0.000  0.242  0.968
 
band     8 # energy    4.81620754 # occ.  1.00000000
 
ion      s     py     pz     px    dxy    dyz    dz2    dxz  x2-y2    tot
    1  0.000  0.000  0.000  0.000  0.000  0.000  0.121  0.000  0.364  0.486
    2  0.000  0.000  0.000  0.000  0.000  0.000  0.121  0.000  0.364  0.486
tot    0.000  0.000  0.000  0.000  0.000  0.000  0.243  0.000  0.728  0.971
 
band     9 # energy    5.88926053 # occ.  0.49404502
 
ion      s     py     pz     px    dxy    dyz    dz2    dxz  x2-y2    tot
    1  0.000  0.003  0.000  0.000  0.489  0.000  0.000  0.000  0.000  0.492
    2  0.000  0.003  0.000  0.000  0.489  0.000  0.000  0.000  0.000  0.492
tot    0.000  0.007  0.000  0.000  0.977  0.000  0.000  0.000  0.000  0.984
 
band    10 # energy    5.88926212 # occ.  0.49403828
 
ion      s     py     pz     px    dxy    dyz    dz2    dxz  x2-y2    tot
    1  0.000  0.000  0.003  0.000  0.000  0.000  0.000  0.489  0.000  0.492
    2  0.000  0.000  0.003  0.000  0.000  0.000  0.000  0.489  0.000  0.492
tot    0.000  0.000  0.007  0.000  0.000  0.000  0.000  0.977  0.000  0.984
 
band    11 # energy    5.96765328 # occ.  0.19029401
 
ion      s     py     pz     px    dxy    dyz    dz2    dxz  x2-y2    tot
    1  0.000  0.000  0.000  0.000  0.000  0.493  0.000  0.000  0.000  0.493
    2  0.000  0.000  0.000  0.000  0.000  0.493  0.000  0.000  0.000  0.493
tot    0.000  0.000  0.000  0.000  0.000  0.987  0.000  0.000  0.000  0.987
 
band    12 # energy   14.85387793 # occ.  0.00000000
 
ion      s     py     pz     px    dxy    dyz    dz2    dxz  x2-y2    tot
    1  0.023  0.000  0.000  0.327  0.000  0.000  0.010  0.000  0.030  0.390
    2  0.023  0.000  0.000  0.327  0.000  0.000  0.010  0.000  0.030  0.390
tot    0.046  0.000  0.000  0.654  0.000  0.000  0.020  0.000  0.060  0.781
 
band    13 # energy   16.12299110 # occ.  0.00000000
 
ion      s     py     pz     px    dxy    dyz    dz2    dxz  x2-y2    tot
    1  0.000  0.371  0.000  0.000  0.011  0.000  0.000  0.000  0.000  0.381
    2  0.000  0.371  0.000  0.000  0.011  0.000  0.000  0.000  0.000  0.381
tot    0.000  0.741  0.000  0.000  0.022  0.000  0.000  0.000  0.000  0.763
 
band    14 # energy   16.12299130 # occ.  0.00000000
 
ion      s     py     pz     px    dxy    dyz    dz2    dxz  x2-y2    tot
    1  0.000  0.000  0.371  0.000  0.000  0.000  0.000  0.011  0.000  0.381
    2  0.000  0.000  0.371  0.000  0.000  0.000  0.000  0.011  0.000  0.381
tot    0.000  0.000  0.741  0.000  0.000  0.000  0.000  0.022  0.000  0.763
 
band    15 # energy   21.62282095 # occ.  0.00000000
 
ion      s     py     pz     px    dxy    dyz    dz2    dxz  x2-y2    tot
    1  0.000  0.000  0.000  0.000  0.000  0.000  0.355  0.000  0.118  0.474
    2  0.000  0.000  0.000  0.000  0.000  0.000  0.355  0.000  0.118  0.474
tot    0.000  0.000  0.000  0.000  0.000  0.000  0.711  0.000  0.237  0.948
 
band    16 # energy   22.31064897 # occ.  0.00000000
 
ion      s     py     pz     px    dxy    dyz    dz2    dxz  x2-y2    tot
    1  0.011  0.000  0.000  0.016  0.000  0.000  0.107  0.000  0.321  0.455
    2  0.011  0.000  0.000  0.016  0.000  0.000  0.107  0.000  0.321  0.455
tot    0.022  0.000  0.000  0.033  0.000  0.000  0.214  0.000  0.642  0.911
 
band    17 # energy   27.23254908 # occ.  0.00000000
 
ion      s     py     pz     px    dxy    dyz    dz2    dxz  x2-y2    tot
    1  0.356  0.000  0.000  0.031  0.000  0.000  0.001  0.000  0.004  0.393
    2  0.356  0.000  0.000  0.031  0.000  0.000  0.001  0.000  0.004  0.393
tot    0.711  0.000  0.000  0.062  0.000  0.000  0.003  0.000  0.009  0.785
 
band    18 # energy   30.02666792 # occ.  0.00000000
 
ion      s     py     pz     px    dxy    dyz    dz2    dxz  x2-y2    tot
    1  0.000  0.000  0.000  0.000  0.000  0.000  0.062  0.000  0.021  0.083
    2  0.000  0.000  0.000  0.000  0.000  0.000  0.062  0.000  0.021  0.083
tot    0.000  0.000  0.000  0.000  0.000  0.000  0.125  0.000  0.042  0.166
 
band    19 # energy   30.81615483 # occ.  0.00000000
 
ion      s     py     pz     px    dxy    dyz    dz2    dxz  x2-y2    tot
    1  0.000  0.002  0.000  0.000  0.057  0.000  0.000  0.000  0.000  0.060
    2  0.000  0.002  0.000  0.000  0.057  0.000  0.000  0.000  0.000  0.060
tot    0.000  0.005  0.000  0.000  0.114  0.000  0.000  0.000  0.000  0.119
 
band    20 # energy   30.81615498 # occ.  0.00000000
 
ion      s     py     pz     px    dxy    dyz    dz2    dxz  x2-y2    tot
    1  0.000  0.000  0.002  0.000  0.000  0.000  0.000  0.057  0.000  0.060
    2  0.000  0.000  0.002  0.000  0.000  0.000  0.000  0.057  0.000  0.060
tot    0.000  0.000  0.005  0.000  0.000  0.000  0.000  0.114  0.000  0.119
 

 k-point     3 :    0.16666667 0.00000000 0.00000000     weight = 0.00347222

band     1 # energy   -2.01631649 # occ.  1.00000000
 
ion      s     py     pz     px    dxy    dyz    dz2    dxz  x2-y2    tot
    1  0.347  0.000  0.000  0.020  0.000  0.000  0.000  0.000  0.001  0.368
    2  0.347  0.000  0.000  0.020  0.000  0.000  0.000  0.000  0.001  0.368
tot    0.694  0.000  0.000  0.040  0.000  0.000  0.001  0.000  0.002  0.737
 
band     2 # energy    1.24276637 # occ.  1.00000000
 
ion      s     py     pz     px    dxy    dyz    dz2    dxz  x2-y2    tot
    1  0.001  0.000  0.000  0.015  0.000  0.000  0.105  0.000  0.315  0.437
    2  0.001  0.000  0.000  0.015  0.000  0.000  0.105  0.000  0.315  0.437
tot    0.003  0.000  0.000  0.030  0.000  0.000  0.210  0.000  0.631  0.874
 
band     3 # energy    1.24892057 # occ.  1.00000000
 
ion      s     py     pz     px    dxy    dyz    dz2    dxz  x2-y2    tot
    1  0.000  0.000  0.000  0.000  0.000  0.000  0.330  0.000  0.110  0.440
    2  0.000  0.000  0.000  0.000  0.000  0.000  0.330  0.000  0.110  0.440
tot    0.000  0.000  0.000  0.000  0.000  0.000  0.659  0.000  0.220  0.879
 
band     4 # energy    3.57475487 # occ.  1.00000000
 
ion      s     py     pz     px    dxy    dyz    dz2    dxz  x2-y2    tot
    1  0.000  0.002  0.000  0.000  0.485  0.000  0.000  0.000  0.000  0.487
    2  0.000  0.002  0.000  0.000  0.485  0.000  0.000  0.000  0.000  0.487
tot    0.000  0.004  0.000  0.000  0.971  0.000  0.000  0.000  0.000  0.975
 
band     5 # energy    3.57475575 # occ.  1.00000000
 
ion      s     py     pz     px    dxy    dyz    dz2    dxz  x2-y2    tot
    1  0.000  0.000  0.002  0.000  0.000  0.000  0.000  0.485  0.000  0.487
    2  0.000  0.000  0.002  0.000  0.000  0.000  0.000  0.485  0.000  0.487
tot    0.000  0.000  0.004  0.000  0.000  0.000  0.000  0.971  0.000  0.975
 
band     6 # energy    3.72933101 # occ.  1.00000000
 
ion      s     py     pz     px    dxy    dyz    dz2    dxz  x2-y2    tot
    1  0.000  0.000  0.000  0.000  0.000  0.489  0.000  0.000  0.000  0.489
    2  0.000  0.000  0.000  0.000  0.000  0.489  0.000  0.000  0.000  0.489
tot    0.000  0.000  0.000  0.000  0.000  0.977  0.000  0.000  0.000  0.977
 
band     7 # energy    4.53507271 # occ.  1.00000000
 
ion      s     py     pz     px    dxy    dyz    dz2    dxz  x2-y2    tot
    1  0.000  0.000  0.000  0.000  0.000  0.000  0.360  0.000  0.120  0.480
    2  0.000  0.000  0.000  0.000  0.000  0.000  0.360  0.000  0.120  0.480
tot    0.000  0.000  0.000  0.000  0.000  0.000  0.720  0.000  0.240  0.960
 
band     8 # energy    4.89064449 # occ.  1.00000000
 
ion      s     py     pz     px    dxy    dyz    dz2    dxz  x2-y2    tot
    1  0.001  0.000  0.000  0.000  0.000  0.000  0.122  0.000  0.365  0.487
    2  0.001  0.000  0.000  0.000  0.000  0.000  0.122  0.000  0.365  0.487
tot    0.001  0.000  0.000  0.000  0.000  0.000  0.243  0.000  0.729  0.974
 
band     9 # energy    5.56912580 # occ.  1.02336015
 
ion      s     py     pz     px    dxy    dyz    dz2    dxz  x2-y2    tot
    1  0.000  0.010  0.000  0.000  0.478  0.000  0.000  0.000  0.000  0.488
    2  0.000  0.010  0.000  0.000  0.478  0.000  0.000  0.000  0.000  0.488
tot    0.000  0.020  0.000  0.000  0.955  0.000  0.000  0.000  0.000  0.975
 
band    10 # energy    5.56912726 # occ.  1.02336048
 
ion      s     py     pz     px    dxy    dyz    dz2    dxz  x2-y2    tot
    1  0.000  0.000  0.010  0.000  0.000  0.000  0.000  0.478  0.000  0.488
    2  0.000  0.000  0.010  0.000  0.000  0.000  0.000  0.478  0.000  0.488
tot    0.000  0.000  0.020  0.000  0.000  0.000  0.000  0.955  0.000  0.975
 
band    11 # energy    5.84115051 # occ.  0.69176690
 
ion      s     py     pz     px    dxy    dyz    dz2    dxz  x2-y2    tot
    1  0.000  0.000  0.000  0.000  0.000  0.492  0.000  0.000  0.000  0.492
    2  0.000  0.000  0.000  0.000  0.000  0.492  0.000  0.000  0.000  0.492
tot    0.000  0.000  0.000  0.000  0.000  0.985  0.000  0.000  0.000  0.985
 
band    12 # energy   12.86557670 # occ.  0.00000000
 
ion      s     py     pz     px    dxy    dyz    dz2    dxz  x2-y2    tot
    1  0.060  0.000  0.000  0.264  0.000  0.000  0.020  0.000  0.061  0.405
    2  0.060  0.000  0.000  0.264  0.000  0.000  0.020  0.000  0.061  0.405
tot    0.121  0.000  0.000  0.527  0.000  0.000  0.040  0.000  0.121  0.810
 
band    13 # energy   16.89691636 # occ.  0.00000000
 
ion      s     py     pz     px    dxy    dyz    dz2    dxz  x2-y2    tot
    1  0.000  0.354  0.000  0.000  0.039  0.000  0.000  0.000  0.000  0.393
    2  0.000  0.354  0.000  0.000  0.039  0.000  0.000  0.000  0.000  0.393
tot    0.000  0.708  0.000  0.000  0.077  0.000  0.000  0.000  0.000  0.786
 
band    14 # energy   16.89691671 # occ.  0.00000000
 
ion      s     py     pz     px    dxy    dyz    dz2    dxz  x2-y2    tot
    1  0.000  0.000  0.354  0.000  0.000  0.000  0.000  0.039  0.000  0.393
    2  0.000  0.000  0.354  0.000  0.000  0.000  0.000  0.039  0.000  0.393
tot    0.000  0.000  0.708  0.000  0.000  0.000  0.000  0.077  0.000  0.786
 
band    15 # energy   21.75140365 # occ.  0.00000000
 
ion      s     py     pz     px    dxy    dyz    dz2    dxz  x2-y2    tot
    1  0.000  0.000  0.000  0.000  0.000  0.000  0.348  0.000  0.116  0.465
    2  0.000  0.000  0.000  0.000  0.000  0.000  0.348  0.000  0.116  0.465
tot    0.000  0.000  0.000  0.000  0.000  0.000  0.697  0.000  0.232  0.929
 
band    16 # energy   23.33010758 # occ.  0.00000000
 
ion      s     py     pz     px    dxy    dyz    dz2    dxz  x2-y2    tot
    1  0.076  0.000  0.000  0.004  0.000  0.000  0.083  0.000  0.249  0.412
    2  0.076  0.000  0.000  0.004  0.000  0.000  0.083  0.000  0.249  0.412
tot    0.152  0.000  0.000  0.009  0.000  0.000  0.166  0.000  0.498  0.824
 
band    17 # energy   28.38082476 # occ.  0.00000000
 
ion      s     py     pz     px    dxy    dyz    dz2    dxz  x2-y2    tot
    1  0.000  0.000  0.000  0.000  0.000  0.000  0.129  0.000  0.043  0.172
    2  0.000  0.000  0.000  0.000  0.000  0.000  0.129  0.000  0.043  0.172
tot    0.000  0.000  0.000  0.000  0.000  0.000  0.257  0.000  0.086  0.343
 
band    18 # energy   28.86277156 # occ.  0.00000000
 
ion      s     py     pz     px    dxy    dyz    dz2    dxz  x2-y2    tot
    1  0.249  0.000  0.000  0.099  0.000  0.000  0.014  0.000  0.042  0.404
    2  0.249  0.000  0.000  0.099  0.000  0.000  0.014  0.000  0.042  0.404
tot    0.497  0.000  0.000  0.197  0.000  0.000  0.028  0.000  0.085  0.807
 
band    19 # energy   30.16327843 # occ.  0.00000000
 
ion      s     py     pz     px    dxy    dyz    dz2    dxz  x2-y2    tot
    1  0.000  0.034  0.000  0.000  0.204  0.000  0.000  0.000  0.000  0.238
    2  0.000  0.034  0.000  0.000  0.204  0.000  0.000  0.000  0.000  0.238
tot    0.000  0.068  0.000  0.000  0.408  0.000  0.000  0.000  0.000  0.477
 
band    20 # energy   30.16327893 # occ.  0.00000000
 
ion      s     py     pz     px    dxy    dyz    dz2    dxz  x2-y2    tot
    1  0.000  0.000  0.034  0.000  0.000  0.000  0.000  0.204  0.000  0.238
    2  0.000  0.000  0.034  0.000  0.000  0.000  0.000  0.204  0.000  0.238
tot    0.000  0.000  0.068  0.000  0.000  0.000  0.000  0.408  0.000  0.477
 

 k-point     4 :    0.25000000-0.00000000 0.00000000     weight = 0.00347222

band     1 # energy   -1.34173342 # occ.  1.00000000
 
ion      s     py     pz     px    dxy    dyz    dz2    dxz  x2-y2    tot
    1  0.320  0.000  0.000  0.044  0.000  0.000  0.001  0.000  0.004  0.369
    2  0.320  0.000  0.000  0.044  0.000  0.000  0.001  0.000  0.004  0.369
tot    0.640  0.000  0.000  0.087  0.000  0.000  0.003  0.000  0.009  0.739
 
band     2 # energy    1.46791277 # occ.  1.00000000
 
ion      s     py     pz     px    dxy    dyz    dz2    dxz  x2-y2    tot
    1  0.007  0.000  0.000  0.033  0.000  0.000  0.098  0.000  0.295  0.434
    2  0.007  0.000  0.000  0.033  0.000  0.000  0.098  0.000  0.295  0.434
tot    0.014  0.000  0.000  0.066  0.000  0.000  0.197  0.000  0.591  0.869
 
band     3 # energy    1.54119373 # occ.  1.00000000
 
ion      s     py     pz     px    dxy    dyz    dz2    dxz  x2-y2    tot
    1  0.000  0.000  0.000  0.000  0.000  0.000  0.331  0.000  0.110  0.441
    2  0.000  0.000  0.000  0.000  0.000  0.000  0.331  0.000  0.110  0.441
tot    0.000  0.000  0.000  0.000  0.000  0.000  0.662  0.000  0.221  0.882
 
band     4 # energy    3.59932293 # occ.  1.00000000
 
ion      s     py     pz     px    dxy    dyz    dz2    dxz  x2-y2    tot
    1  0.000  0.005  0.000  0.000  0.481  0.000  0.000  0.000  0.000  0.485
    2  0.000  0.005  0.000  0.000  0.481  0.000  0.000  0.000  0.000  0.485
tot    0.000  0.009  0.000  0.000  0.961  0.000  0.000  0.000  0.000  0.970
 
band     5 # energy    3.59932381 # occ.  1.00000000
 
ion      s     py     pz     px    dxy    dyz    dz2    dxz  x2-y2    tot
    1  0.000  0.000  0.005  0.000  0.000  0.000  0.000  0.481  0.000  0.485
    2  0.000  0.000  0.005  0.000  0.000  0.000  0.000  0.481  0.000  0.485
tot    0.000  0.000  0.009  0.000  0.000  0.000  0.000  0.961  0.000  0.970
 
band     6 # energy    3.91639704 # occ.  1.00000000
 
ion      s     py     pz     px    dxy    dyz    dz2    dxz  x2-y2    tot
    1  0.000  0.000  0.000  0.000  0.000  0.488  0.000  0.000  0.000  0.488
    2  0.000  0.000  0.000  0.000  0.000  0.488  0.000  0.000  0.000  0.488
tot    0.000  0.000  0.000  0.000  0.000  0.976  0.000  0.000  0.000  0.976
 
band     7 # energy    4.23027113 # occ.  1.00000000
 
ion      s     py     pz     px    dxy    dyz    dz2    dxz  x2-y2    tot
    1  0.000  0.000  0.000  0.000  0.000  0.000  0.356  0.000  0.119  0.474
    2  0.000  0.000  0.000  0.000  0.000  0.000  0.356  0.000  0.119  0.474
tot    0.000  0.000  0.000  0.000  0.000  0.000  0.711  0.000  0.237  0.948
 
band     8 # energy    5.01063086 # occ.  1.00000001
 
ion      s     py     pz     px    dxy    dyz    dz2    dxz  x2-y2    tot
    1  0.004  0.000  0.000  0.001  0.000  0.000  0.121  0.000  0.363  0.489
    2  0.004  0.000  0.000  0.001  0.000  0.000  0.121  0.000  0.363  0.489
tot    0.008  0.000  0.000  0.001  0.000  0.000  0.242  0.000  0.726  0.977
 
band     9 # energy    5.14697243 # occ.  1.00000107
 
ion      s     py     pz     px    dxy    dyz    dz2    dxz  x2-y2    tot
    1  0.000  0.016  0.000  0.000  0.468  0.000  0.000  0.000  0.000  0.483
    2  0.000  0.016  0.000  0.000  0.468  0.000  0.000  0.000  0.000  0.483
tot    0.000  0.032  0.000  0.000  0.935  0.000  0.000  0.000  0.000  0.967
 
band    10 # energy    5.14697374 # occ.  1.00000107
 
ion      s     py     pz     px    dxy    dyz    dz2    dxz  x2-y2    tot
    1  0.000  0.000  0.016  0.000  0.000  0.000  0.000  0.468  0.000  0.483
    2  0.000  0.000  0.016  0.000  0.000  0.000  0.000  0.468  0.000  0.483
tot    0.000  0.000  0.032  0.000  0.000  0.000  0.000  0.935  0.000  0.967
 
band    11 # energy    5.64084986 # occ.  1.03544187
 
ion      s     py     pz     px    dxy    dyz    dz2    dxz  x2-y2    tot
    1  0.000  0.000  0.000  0.000  0.000  0.491  0.000  0.000  0.000  0.491
    2  0.000  0.000  0.000  0.000  0.000  0.491  0.000  0.000  0.000  0.491
tot    0.000  0.000  0.000  0.000  0.000  0.982  0.000  0.000  0.000  0.982
 
band    12 # energy   10.74946523 # occ. -0.00000000
 
ion      s     py     pz     px    dxy    dyz    dz2    dxz  x2-y2    tot
    1  0.093  0.000  0.000  0.209  0.000  0.000  0.028  0.000  0.085  0.416
    2  0.093  0.000  0.000  0.209  0.000  0.000  0.028  0.000  0.085  0.416
tot    0.187  0.000  0.000  0.418  0.000  0.000  0.057  0.000  0.171  0.832
 
band    13 # energy   18.06706796 # occ.  0.00000000
 
ion      s     py     pz     px    dxy    dyz    dz2    dxz  x2-y2    tot
    1  0.000  0.333  0.000  0.000  0.076  0.000  0.000  0.000  0.000  0.409
    2  0.000  0.333  0.000  0.000  0.076  0.000  0.000  0.000  0.000  0.409
tot    0.000  0.666  0.000  0.000  0.152  0.000  0.000  0.000  0.000  0.818
 
band    14 # energy   18.06706847 # occ.  0.00000000
 
ion      s     py     pz     px    dxy    dyz    dz2    dxz  x2-y2    tot
    1  0.000  0.000  0.333  0.000  0.000  0.000  0.000  0.076  0.000  0.409
    2  0.000  0.000  0.333  0.000  0.000  0.000  0.000  0.076  0.000  0.409
tot    0.000  0.000  0.666  0.000  0.000  0.000  0.000  0.152  0.000  0.818
 
band    15 # energy   21.97856116 # occ.  0.00000000
 
ion      s     py     pz     px    dxy    dyz    dz2    dxz  x2-y2    tot
    1  0.000  0.000  0.000  0.000  0.000  0.000  0.337  0.000  0.112  0.449
    2  0.000  0.000  0.000  0.000  0.000  0.000  0.337  0.000  0.112  0.449
tot    0.000  0.000  0.000  0.000  0.000  0.000  0.674  0.000  0.225  0.898
 
band    16 # energy   23.93973342 # occ.  0.00000000
 
ion      s     py     pz     px    dxy    dyz    dz2    dxz  x2-y2    tot
    1  0.134  0.000  0.000  0.003  0.000  0.000  0.057  0.000  0.171  0.365
    2  0.134  0.000  0.000  0.003  0.000  0.000  0.057  0.000  0.171  0.365
tot    0.268  0.000  0.000  0.006  0.000  0.000  0.114  0.000  0.342  0.729
 
band    17 # energy   26.79918008 # occ.  0.00000000
 
ion      s     py     pz     px    dxy    dyz    dz2    dxz  x2-y2    tot
    1  0.000  0.000  0.000  0.000  0.000  0.000  0.176  0.000  0.059  0.235
    2  0.000  0.000  0.000  0.000  0.000  0.000  0.176  0.000  0.059  0.235
tot    0.000  0.000  0.000  0.000  0.000  0.000  0.352  0.000  0.117  0.469
 
band    18 # energy   28.75717348 # occ.  0.00000000
 
ion      s     py     pz     px    dxy    dyz    dz2    dxz  x2-y2    tot
    1  0.000  0.102  0.000  0.000  0.297  0.000  0.000  0.000  0.000  0.399
    2  0.000  0.102  0.000  0.000  0.297  0.000  0.000  0.000  0.000  0.399
tot    0.000  0.204  0.000  0.000  0.595  0.000  0.000  0.000  0.000  0.799
 
band    19 # energy   28.75717428 # occ.  0.00000000
 
ion      s     py     pz     px    dxy    dyz    dz2    dxz  x2-y2    tot
    1  0.000  0.000  0.102  0.000  0.000  0.000  0.000  0.297  0.000  0.399
    2  0.000  0.000  0.102  0.000  0.000  0.000  0.000  0.297  0.000  0.399
tot    0.000  0.000  0.204  0.000  0.000  0.000  0.000  0.595  0.000  0.799
 
band    20 # energy   30.61965322 # occ.  0.00000000
 
ion      s     py     pz     px    dxy    dyz    dz2    dxz  x2-y2    tot
    1  0.041  0.000  0.000  0.176  0.000  0.000  0.009  0.000  0.026  0.250
    2  0.041  0.000  0.000  0.176  0.000  0.000  0.009  0.000  0.026  0.250
tot    0.081  0.000  0.000  0.351  0.000  0.000  0.017  0.000  0.051  0.501
 

 k-point     5 :    0.33333333 0.00000000 0.00000000     weight = 0.00347222

band     1 # energy   -0.48110545 # occ.  1.00000000
 
ion      s     py     pz     px    dxy    dyz    dz2    dxz  x2-y2    tot
    1  0.279  0.000  0.000  0.072  0.000  0.000  0.005  0.000  0.016  0.372
    2  0.279  0.000  0.000  0.072  0.000  0.000  0.005  0.000  0.016  0.372
tot    0.558  0.000  0.000  0.143  0.000  0.000  0.011  0.000  0.032  0.744
 
band     2 # energy    1.64273268 # occ.  1.00000000
 
ion      s     py     pz     px    dxy    dyz    dz2    dxz  x2-y2    tot
    1  0.025  0.000  0.000  0.057  0.000  0.000  0.086  0.000  0.258  0.427
    2  0.025  0.000  0.000  0.057  0.000  0.000  0.086  0.000  0.258  0.427
tot    0.050  0.000  0.000  0.115  0.000  0.000  0.172  0.000  0.517  0.854
 
band     3 # energy    1.92624557 # occ.  1.00000000
 