   1   1   0   0
  0.1408159E+02  0.2710538E-09  0.2710538E-09  0.2710538E-09  0.5000000E-15
  1.000000000000000E-004
  CAR 
 unknown system                          
     38.24769618     -6.29990559  301     10.20329051      1.00000000
     -6.300  0.0000E+00  0.0000E+00
     -6.151  0.0000E+00  0.0000E+00
     -6.003  0.0000E+00  0.0000E+00
     -5.854  0.0000E+00  0.0000E+00
     -5.706  0.0000E+00  0.0000E+00
     -5.557  0.0000E+00  0.0000E+00
     -5.409  0.0000E+00  0.0000E+00
     -5.260  0.0000E+00  0.0000E+00
     -5.112  0.0000E+00  0.0000E+00
     -4.963  0.0000E+00  0.0000E+00
     -4.815  0.0000E+00  0.0000E+00
     -4.666  0.0000E+00  0.0000E+00
     -4.518  0.1931E-15  0.2867E-16
     -4.370  0.2306E-06  0.3425E-07
     -4.221  0.5739E-04  0.8556E-05
     -4.073  0.4767E-03  0.7934E-04
     -3.924  0.3859E-03  0.1366E-03
     -3.776  0.6384E-03  0.2314E-03
     -3.627  0.1146E-02  0.4016E-03
     -3.479  0.9119E-03  0.5370E-03
     -3.330  0.2836E-03  0.5791E-03
     -3.182  0.9606E-03  0.7218E-03
     -3.033  0.2061E-02  0.1028E-02
     -2.885  0.9670E-03  0.1171E-02
     -2.736  0.1291E-02  0.1363E-02
     -2.588  0.1181E-02  0.1538E-02
     -2.439  0.3903E-03  0.1596E-02
     -2.291  0.1218E-02  0.1777E-02
     -2.142  0.3870E-02  0.2352E-02
     -1.994  0.6428E-03  0.2447E-02
     -1.845  0.1179E-02  0.2623E-02
     -1.697  0.2571E-02  0.3004E-02
     -1.548  0.2214E-03  0.3037E-02
     -1.400  0.7364E-03  0.3147E-02
     -1.251  0.3907E-02  0.3727E-02
     -1.103  0.8249E-03  0.3849E-02
     -0.954  0.2646E-02  0.4242E-02
     -0.806  0.3977E-02  0.4833E-02
     -0.657  0.7156E-04  0.4843E-02
     -0.509  0.4113E-03  0.4904E-02
     -0.360  0.3921E-02  0.5487E-02
     -0.212  0.6967E-03  0.5590E-02
     -0.063  0.2079E-02  0.5899E-02
      0.085  0.4477E-02  0.6563E-02
      0.234  0.4104E-03  0.6624E-02
      0.382  0.1493E-02  0.6846E-02
      0.531  0.6568E-02  0.7821E-02
      0.679  0.7996E-03  0.7940E-02
      0.828  0.1358E-02  0.8142E-02
      0.976  0.2827E-02  0.8562E-02
      1.125  0.1938E-03  0.8590E-02
      1.273  0.1486E-02  0.8811E-02
      1.422  0.5601E-02  0.9643E-02
      1.570  0.8703E-03  0.9772E-02
      1.719  0.4168E-02  0.1039E-01
      1.867  0.5780E-02  0.1125E-01
      2.016  0.4466E-03  0.1132E-01
      2.164  0.1477E-03  0.1134E-01
      2.313  0.6617E-02  0.1232E-01
      2.461  0.8731E-03  0.1245E-01
      2.610  0.3938E-02  0.1303E-01
      2.758  0.1652E-02  0.1328E-01
      2.907  0.9924E-04  0.1329E-01
      3.055  0.2127E-02  0.1361E-01
      3.204  0.8564E-02  0.1488E-01
      3.352  0.4573E-03  0.1495E-01
      3.501  0.3867E-02  0.1552E-01
      3.649  0.6028E-02  0.1642E-01
      3.798  0.3236E-03  0.1647E-01
      3.946  0.8397E-03  0.1659E-01
      4.095  0.5566E-02  0.1742E-01
      4.243  0.8373E-03  0.1754E-01
      4.392  0.4178E-02  0.1816E-01
      4.540  0.4831E-02  0.1888E-01
      4.689  0.1444E-02  0.1909E-01
      4.837  0.2066E-02  0.1940E-01
      4.985  0.5723E-02  0.2025E-01
      5.134  0.1006E-02  0.2040E-01
      5.282  0.4559E-02  0.2108E-01
      5.431  0.6243E-02  0.2200E-01
      5.579  0.9851E-03  0.2215E-01
      5.728  0.1785E-02  0.2242E-01
      5.876  0.8828E-02  0.2373E-01
      6.025  0.1281E-02  0.2392E-01
      6.173  0.3074E-02  0.2437E-01
      6.322  0.4113E-02  0.2498E-01
      6.470  0.7766E-03  0.2510E-01
      6.619  0.9169E-03  0.2524E-01
      6.767  0.6951E-02  0.2627E-01
      6.916  0.2322E-02  0.2661E-01
      7.064  0.6595E-02  0.2759E-01
      7.213  0.2731E-02  0.2800E-01
      7.361  0.1192E-02  0.2817E-01
      7.510  0.2706E-02  0.2858E-01
      7.658  0.1049E-01  0.3013E-01
      7.807  0.2879E-02  0.3056E-01
      7.955  0.2162E-02  0.3088E-01
      8.104  0.4633E-02  0.3157E-01
      8.252  0.4187E-02  0.3219E-01
      8.401  0.2179E-02  0.3252E-01
      8.549  0.4755E-02  0.3322E-01
      8.698  0.1333E-02  0.3342E-01
      8.846  0.4216E-02  0.3405E-01
      8.995  0.5277E-02  0.3483E-01
      9.143  0.1148E-02  0.3500E-01
      9.292  0.6025E-02  0.3590E-01
      9.440  0.4377E-02  0.3655E-01
      9.589  0.2672E-02  0.3694E-01
      9.737  0.1207E-01  0.3873E-01
      9.886  0.1471E-02  0.3895E-01
     10.034  0.4251E-03  0.3902E-01
     10.183  0.5589E-02  0.3985E-01
     10.331  0.5460E-02  0.4066E-01
     10.480  0.3400E-02  0.4116E-01
     10.628  0.4176E-02  0.4178E-01
     10.777  0.4931E-02  0.4251E-01
     10.925  0.6654E-03  0.4261E-01
     11.074  0.4937E-02  0.4335E-01
     11.222  0.9372E-02  0.4474E-01
     11.371  0.4978E-02  0.4548E-01
     11.519  0.3600E-02  0.4601E-01
     11.668  0.7874E-03  0.4613E-01
     11.816  0.6376E-02  0.4708E-01
     11.965  0.2474E-02  0.4744E-01
     12.113  0.2232E-02  0.4777E-01
     12.262  0.9162E-02  0.4913E-01
     12.410  0.7957E-02  0.5032E-01
     12.559  0.1689E-02  0.5057E-01
     12.707  0.1069E-01  0.5215E-01
     12.856  0.3916E-02  0.5274E-01
     13.004  0.2283E-04  0.5274E-01
     13.153  0.6299E-02  0.5367E-01
     13.301  0.4035E-02  0.5427E-01
     13.450  0.6442E-02  0.5523E-01
     13.598  0.7903E-02  0.5640E-01
     13.747  0.4198E-02  0.5703E-01
     13.895  0.6560E-02  0.5800E-01
     14.043  0.5513E-02  0.5882E-01
     14.192  0.7129E-03  0.5893E-01
     14.340  0.9440E-02  0.6033E-01
     14.489  0.4113E-02  0.6094E-01
     14.637  0.4333E-02  0.6158E-01
     14.786  0.5091E-02  0.6234E-01
     14.934  0.2977E-02  0.6278E-01
     15.083  0.6508E-02  0.6375E-01
     15.231  0.5701E-02  0.6459E-01
     15.380  0.6717E-02  0.6559E-01
     15.528  0.5471E-02  0.6640E-01
     15.677  0.5094E-02  0.6716E-01
     15.825  0.1258E-02  0.6735E-01
     15.974  0.2021E-02  0.6765E-01
     16.122  0.6717E-02  0.6864E-01
     16.271  0.7359E-02  0.6974E-01
     16.419  0.2573E-02  0.7012E-01
     16.568  0.3427E-02  0.7063E-01
     16.716  0.7710E-02  0.7177E-01
     16.865  0.3969E-02  0.7236E-01
     17.013  0.3712E-02  0.7291E-01
     17.162  0.6884E-02  0.7393E-01
     17.310  0.7578E-03  0.7405E-01
     17.459  0.5807E-02  0.7491E-01
     17.607  0.8236E-02  0.7613E-01
     17.756  0.5539E-02  0.7695E-01
     17.904  0.1471E-02  0.7717E-01
     18.053  0.3571E-02  0.7770E-01
     18.201  0.6599E-02  0.7868E-01
     18.350  0.7291E-02  0.7977E-01
     18.498  0.5327E-02  0.8056E-01
     18.647  0.1770E-02  0.8082E-01
     18.795  0.8846E-02  0.8213E-01
     18.944  0.8481E-02  0.8339E-01
     19.092  0.3989E-02  0.8398E-01
     19.241  0.4795E-02  0.8470E-01
     19.389  0.3268E-02  0.8518E-01
     19.538  0.8662E-02  0.8647E-01
     19.686  0.5042E-02  0.8722E-01
     19.835  0.2936E-02  0.8765E-01
     19.983  0.7375E-02  0.8875E-01
     20.132  0.4057E-02  0.8935E-01
     20.280  0.5707E-02  0.9020E-01
     20.429  0.6281E-02  0.9113E-01
     20.577  0.2431E-02  0.9149E-01
     20.726  0.4697E-02  0.9219E-01
     20.874  0.3671E-02  0.9273E-01
     21.023  0.5400E-02  0.9354E-01
     21.171  0.1168E-01  0.9527E-01
     21.320  0.7556E-02  0.9639E-01
     21.468  0.5799E-02  0.9725E-01
     21.617  0.9018E-02  0.9859E-01
     21.765  0.6842E-02  0.9961E-01
     21.914  0.4387E-02  0.1003E+00
     22.062  0.5365E-02  0.1011E+00
     22.211  0.7195E-02  0.1021E+00
     22.359  0.5073E-02  0.1029E+00
     22.508  0.4568E-02  0.1036E+00
     22.656  0.7388E-02  0.1047E+00
     22.805  0.3905E-02  0.1052E+00
     22.953  0.2783E-02  0.1056E+00
     23.102  0.3247E-02  0.1061E+00
     23.250  0.4300E-02  0.1068E+00
     23.398  0.3308E-02  0.1073E+00
     23.547  0.7299E-02  0.1083E+00
     23.695  0.7038E-02  0.1094E+00
     23.844  0.9972E-02  0.1109E+00
     23.992  0.1092E-01  0.1125E+00
     24.141  0.9157E-02  0.1139E+00
     24.289  0.9913E-02  0.1153E+00
     24.438  0.6077E-02  0.1162E+00
     24.586  0.6999E-02  0.1173E+00
     24.735  0.7338E-02  0.1184E+00
     24.883  0.4061E-02  0.1190E+00
     25.032  0.2285E-02  0.1193E+00
     25.180  0.4216E-02  0.1199E+00
     25.329  0.1816E-02  0.1202E+00
     25.477  0.5560E-02  0.1210E+00
     25.626  0.3863E-02  0.1216E+00
     25.774  0.1271E-01  0.1235E+00
     25.923  0.7417E-02  0.1246E+00
     26.071  0.1042E-01  0.1261E+00
     26.220  0.5251E-02  0.1269E+00
     26.368  0.8956E-02  0.1282E+00
     26.517  0.5095E-02  0.1290E+00
     26.665  0.5574E-02  0.1298E+00
     26.814  0.7899E-02  0.1310E+00
     26.962  0.5612E-02  0.1318E+00
     27.111  0.4984E-02  0.1326E+00
     27.259  0.3398E-02  0.1331E+00
     27.408  0.5819E-02  0.1339E+00
     27.556  0.7604E-02  0.1351E+00
     27.705  0.6320E-02  0.1360E+00
     27.853  0.4066E-02  0.1366E+00
     28.002  0.5766E-02  0.1375E+00
     28.150  0.4988E-02  0.1382E+00
     28.299  0.8124E-02  0.1394E+00
     28.447  0.6196E-02  0.1403E+00
     28.596  0.4245E-02  0.1410E+00
     28.744  0.7310E-02  0.1420E+00
     28.893  0.3903E-02  0.1426E+00
     29.041  0.3600E-02  0.1432E+00
     29.190  0.4530E-02  0.1438E+00
     29.338  0.3519E-02  0.1444E+00
     29.487  0.7071E-02  0.1454E+00
     29.635  0.3921E-02  0.1460E+00
     29.784  0.5063E-02  0.1467E+00
     29.932  0.9279E-02  0.1481E+00
     30.081  0.4008E-02  0.1487E+00
     30.229  0.8270E-03  0.1488E+00
     30.378  0.8809E-02  0.1501E+00
     30.526  0.6245E-02  0.1511E+00
     30.675  0.3895E-02  0.1516E+00
     30.823  0.3998E-02  0.1522E+00
     30.972  0.9211E-04  0.1523E+00
     31.120  0.5735E-02  0.1531E+00
     31.269  0.1797E-02  0.1534E+00
     31.417  0.2045E-02  0.1537E+00
     31.566  0.2448E-02  0.1540E+00
     31.714  0.4599E-02  0.1547E+00
     31.863  0.1689E-02  0.1550E+00
     32.011  0.2369E-02  0.1553E+00
     32.160  0.2731E-02  0.1557E+00
     32.308  0.2705E-02  0.1561E+00
     32.457  0.2329E-02  0.1565E+00
     32.605  0.4303E-02  0.1571E+00
     32.753  0.3100E-03  0.1572E+00
     32.902  0.1417E-02  0.1574E+00
     33.050  0.1151E-02  0.1575E+00
     33.199  0.2818E-02  0.1580E+00
     33.347  0.6834E-03  0.1581E+00
     33.496  0.1266E-02  0.1583E+00
     33.644  0.3521E-03  0.1583E+00
     33.793  0.7519E-03  0.1584E+00
     33.941  0.2193E-02  0.1587E+00
     34.090  0.5900E-06  0.1587E+00
     34.238  0.5268E-03  0.1588E+00
     34.387  0.1680E-02  0.1591E+00
     34.535  0.3822E-04  0.1591E+00
     34.684  0.1802E-02  0.1593E+00
     34.832  0.1810E-02  0.1596E+00
     34.981  0.3968E-03  0.1597E+00
     35.129  0.1103E-02  0.1598E+00
     35.278  0.3094E-06  0.1598E+00
     35.426  0.0000E+00  0.1598E+00
     35.575  0.8800E-16  0.1598E+00
     35.723  0.6544E-06  0.1598E+00
     35.872  0.6312E-03  0.1599E+00
     36.020  0.1038E-03  0.1599E+00
     36.169  0.2330E-04  0.1599E+00
     36.317  0.3431E-03  0.1600E+00
     36.466  0.1384E-05  0.1600E+00
     36.614  0.1159E-14  0.1600E+00
     36.763  0.0000E+00  0.1600E+00
     36.911  0.0000E+00  0.1600E+00
     37.060  0.0000E+00  0.1600E+00
     37.208  0.0000E+00  0.1600E+00
     37.357  0.0000E+00  0.1600E+00
     37.505  0.0000E+00  0.1600E+00
     37.654  0.0000E+00  0.1600E+00
     37.802  0.0000E+00  0.1600E+00
     37.951  0.0000E+00  0.1600E+00
     38.099  0.0000E+00  0.1600E+00
     38.248  0.0000E+00  0.1600E+00
