    1    1  100    1
  0.1408159E+02  0.2710538E-09  0.2710538E-09  0.2710538E-09  0.5000000E-15
  1.000000000000000E-004
  CAR 
 unknown system                          
      4     84      8
 
  0.0000000E+00  0.0000000E+00  0.0000000E+00  0.4551661E-03
    1       -4.275015   1.000000
    2       21.362213   0.000000
    3       21.362221   0.000000
    4       21.362229   0.000000
    5       22.166725   0.000000
    6       22.166734   0.000000
    7       22.166743   0.000000
    8       27.482521   0.000000
 
  0.7692308E-01  0.0000000E+00  0.0000000E+00  0.3641329E-02
    1       -4.102435   1.000000
    2       18.789655   0.000000
    3       20.568647   0.000000
    4       20.568658   0.000000
    5       23.164125   0.000000
    6       23.164139   0.000000
    7       23.295986   0.000000
    8       28.237708   0.000000
 
  0.1538462E+00  0.6938894E-17  0.0000000E+00  0.3641329E-02
    1       -3.585603   1.000000
    2       15.501254   0.000000
    3       19.733682   0.000000
    4       19.733693   0.000000
    5       23.479332   0.000000
    6       24.310351   0.000000
    7       24.310365   0.000000
    8       27.163372   0.000000
 
  0.2307692E+00  0.1387779E-16  0.0000000E+00  0.3641329E-02
    1       -2.727345   1.000000
    2       12.282160   0.000000
    3       19.154112   0.000000
    4       19.154121   0.000000
    5       23.364153   0.000000
    6       23.948879   0.000000
    7       23.948889   0.000000
    8       27.879850   0.000000
 
  0.3076923E+00  0.1387779E-16  0.0000000E+00  0.3641329E-02
    1       -1.532556   1.000000
    2        9.269060   1.000000
    3       18.834592   0.000000
    4       18.834599   0.000000
    5       22.774892   0.000000
    6       22.774901   0.000000
    7       23.298629   0.000000
    8       27.968075   0.000000
 
  0.3846154E+00  0.2775558E-16  0.0000000E+00  0.3641329E-02
    1       -0.009508   1.000000
    2        6.518109   1.000000
    3       18.738284   0.000000
    4       18.738290   0.000000
    5       21.757692   0.000000
    6       21.757703   0.000000
    7       23.368775   0.000000
    8       26.807051   0.000000
 
  0.4615385E+00  0.2775558E-16  0.0000000E+00  0.3641329E-02
    1        1.812778   1.000000
    2        4.077466   1.000000
    3       18.766740   0.000000
    4       18.766744   0.000000
    5       21.152536   0.000000
    6       21.152548   0.000000
    7       23.499366   0.000000
    8       26.103782   0.000000
 
  0.7692308E-01  0.7692308E-01  0.0000000E+00  0.2730997E-02
    1       -4.044936   1.000000
    2       19.405069   0.000000
    3       19.405070   0.000000
    4       20.832478   0.000000
    5       21.002364   0.000000
    6       24.403076   0.000000
    7       24.403077   0.000000
    8       26.797547   0.000000
 
  0.1538462E+00  0.7692308E-01  0.0000000E+00  0.1092399E-01
    1       -3.642901   1.000000
    2       16.691176   0.000000
    3       18.473868   0.000000
    4       20.129070   0.000000
    5       21.700302   0.000000
    6       25.007092   0.000000
    7       25.244648   0.000000
    8       25.696278   0.000000
 
  0.2307692E+00  0.7692308E-01  0.0000000E+00  0.1092399E-01
    1       -2.898535   1.000000
    2       13.462851   0.000000
    3       17.821895   0.000000
    4       19.434045   0.000000
    5       22.033199   0.000000
    6       24.436030   0.000000
    7       25.588070   0.000000
    8       25.899568   0.000000
 
  0.3076923E+00  0.7692308E-01  0.0000000E+00  0.1092399E-01
    1       -1.815977   1.000000
    2       10.383640   0.000000
    3       17.457868   0.000000
    4       18.859999   0.000000
    5       21.071777   0.000000
    6       24.621884   0.000000
    7       24.818123   0.000000
    8       27.018041   0.000000
 
  0.3846154E+00  0.7692308E-01  0.0000000E+00  0.1092399E-01
    1       -0.402035   1.000000
    2        7.546027   1.000000
    3       17.382199   0.000000
    4       18.258434   0.000000
    5       20.367374   0.000000
    6       23.659011   0.000000
    7       24.663749   0.000000
    8       28.244257   0.000000
 
  0.4615385E+00  0.7692308E-01  0.0000000E+00  0.1092399E-01
    1        1.327915   1.000000
    2        4.995273   1.000000
    3       17.566401   0.000000
    4       17.584891   0.000000
    5       20.288726   0.000000
    6       22.717389   0.000000
    7       24.679396   0.000000
    8       27.660634   0.000000
 
 -0.4615385E+00  0.7692308E-01  0.0000000E+00  0.1092399E-01
    1        2.574551   1.000000
    2        3.542345   1.000000
    3       16.959164   0.000000
    4       18.043386   0.000000
    5       20.710373   0.000000
    6       22.078708   0.000000
    7       24.576949   0.000000
    8       27.566380   0.000000
 
 -0.3846154E+00  0.7692308E-01  0.0000000E+00  0.1092399E-01
    1        0.718346   1.000000
    2        5.810299   1.000000
    3       16.569963   0.000000
    4       18.706107   0.000000
    5       21.509379   0.000000
    6       21.817138   0.000000
    7       24.384367   0.000000
    8       28.076891   0.000000
 
 -0.3076923E+00  0.7692308E-01  0.0000000E+00  0.1092399E-01
    1       -0.909613   1.000000
    2        8.461387   1.000000
    3       16.450061   0.000000
    4       19.465197   0.000000
    5       22.023291   0.000000
    6       22.613900   0.000000
    7       24.237622   0.000000
    8       28.920425   0.000000
 
 -0.2307692E+00  0.7692308E-01  0.0000000E+00  0.1092399E-01
    1       -2.214108   1.000000
    2       11.384048   0.000000
    3       16.618560   0.000000
    4       20.195108   0.000000
    5       22.735090   0.000000
    6       23.936134   0.000000
    7       24.199463   0.000000
    8       26.925351   0.000000
 
 -0.1538462E+00  0.7692308E-01  0.0000000E+00  0.1092399E-01
    1       -3.184528   1.000000
    2       14.524322   0.000000
    3       17.081554   0.000000
    4       20.905052   0.000000
    5       23.335545   0.000000
    6       24.152476   0.000000
    7       25.129616   0.000000
    8       25.630958   0.000000
 
 -0.7692308E-01  0.7692308E-01  0.0000000E+00  0.5461994E-02
    1       -3.815124   1.000000
    2       17.635681   0.000000
    3       17.960917   0.000000
    4       21.451321   0.000000
    5       22.606719   0.000000
    6       23.787632   0.000000
    7       24.823895   0.000000
    8       26.599774   0.000000
 
  0.1538462E+00  0.1538462E+00  0.0000000E+00  0.2730997E-02
    1       -3.356141   1.000000
    2       17.444880   0.000000
    3       17.444881   0.000000
    4       19.078603   0.000000
    5       19.438924   0.000000
    6       22.971577   0.000000
    7       27.169417   0.000000
    8       27.169418   0.000000
 
  0.2307692E+00  0.1538462E+00  0.0000000E+00  0.1092399E-01
    1       -2.726833   1.000000
    2       14.868418   0.000000
    3       16.698157   0.000000
    4       18.400084   0.000000
    5       19.590238   0.000000
    6       21.859115   0.000000
    7       27.946173   0.000000
    8       27.988992   0.000000
 
  0.3076923E+00  0.1538462E+00  0.0000000E+00  0.1092399E-01
    1       -1.758437   1.000000
    2       11.786147   0.000000
    3       16.244723   0.000000
    4       17.370436   0.000000
    5       19.178628   0.000000
    6       23.076319   0.000000
    7       27.207569   0.000000
    8       28.104051   0.000000
 
  0.3846154E+00  0.1538462E+00  0.0000000E+00  0.1092399E-01
    1       -0.456698   1.000000
    2        8.883834   1.000000
    3       16.086687   0.000000
    4       16.206716   0.000000
    5       18.836470   0.000000
    6       25.050194   0.000000
    7       26.055687   0.000000
    8       28.272357   0.000000
 
  0.4615385E+00  0.1538462E+00  0.0000000E+00  0.1092399E-01
    1        1.167924   1.000000
    2        6.242977   1.000000
    3       15.141971   0.000000
    4       16.223042   0.000000
    5       18.914207   0.000000
    6       25.038727   0.000000
    7       26.422679   0.000000
    8       29.205913   0.000000
 
 -0.4615385E+00  0.1538462E+00  0.0000000E+00  0.1092399E-01
    1        3.024538   1.000000
    2        3.976506   1.000000
    3       14.309707   0.000000
    4       16.648189   0.000000
    5       19.358897   0.000000
    6       24.265388   0.000000
    7       26.565922   0.000000
    8       30.729160   0.000000
 
 -0.3846154E+00  0.1538462E+00  0.0000000E+00  0.1092399E-01
    1        1.776324   1.000000
    2        5.428114   1.000000
    3       13.761934   0.000000
    4       17.351268   0.000000
    5       20.136576   0.000000
    6       23.784096   0.000000
    7       26.309670   0.000000
    8       31.048111   0.000000
 
 -0.3076923E+00  0.1538462E+00  0.0000000E+00  0.1092399E-01
    1        0.049443   1.000000
    2        7.966062   1.000000
    3       13.518077   0.000000
    4       18.308419   0.000000
    5       21.220129   0.000000
    6       23.623044   0.000000
    7       26.018891   0.000000
    8       28.703661   0.000000
 
 -0.2307692E+00  0.1538462E+00  0.0000000E+00  0.1092399E-01
    1       -1.361580   1.000000
    2       10.769711   0.000000
    3       13.596485   0.000000
    4       19.461375   0.000000
    5       22.564397   0.000000
    6       23.800102   0.000000
    7       25.713095   0.000000
    8       26.285119   0.000000
 
 -0.1538462E+00  0.1538462E+00  0.0000000E+00  0.5461994E-02
    1       -2.441818   1.000000
    2       13.527836   0.000000
    3       14.255878   0.000000
    4       20.629293   0.000000
    5       23.932086   0.000000
    6       24.051274   0.000000
    7       24.732593   0.000000
    8       25.152020   0.000000
 
  0.2307692E+00  0.2307692E+00  0.0000000E+00  0.2730997E-02
    1       -2.213144   1.000000
    2       15.853772   0.000000
    3       15.853773   0.000000
    4       16.981071   0.000000
    5       17.359945   0.000000
    6       19.979426   0.000000
    7       29.933903   0.000000
    8       29.933903   0.000000
 
  0.3076923E+00  0.2307692E+00  0.0000000E+00  0.1092399E-01
    1       -1.360305   1.000000
    2       13.407532   0.000000
    3       15.301866   0.000000
    4       15.453317   0.000000
    5       17.633029   0.000000
    6       20.053449   0.000000
    7       29.750703   0.000000
    8       30.702317   0.000000
 
  0.3846154E+00  0.2307692E+00  0.0000000E+00  0.1092399E-01
    1       -0.173172   1.000000
    2       10.505952   0.000000
    3       13.964942   0.000000
    4       15.048388   0.000000
    5       17.590853   0.000000
    6       21.949425   0.000000
    7       28.704070   0.000000
    8       30.727830   0.000000
 
  0.4615385E+00  0.2307692E+00  0.0000000E+00  0.1092399E-01
    1        1.339939   1.000000
    2        7.800768   1.000000
    3       12.698781   0.000000
    4       15.093120   0.000000
    5       17.674708   0.000000
    6       24.375416   0.000000
    7       27.665681   0.000000
    8       30.403188   0.000000
 
 -0.4615385E+00  0.2307692E+00  0.0000000E+00  0.1092399E-01
    1        3.152572   1.000000
    2        5.381874   1.000000
    3       11.716448   0.000000
    4       15.434025   0.000000
    5       18.062412   0.000000
    6       26.820612   0.000000
    7       26.822388   0.000000
    8       30.046386   0.000000
 
 -0.3846154E+00  0.2307692E+00  0.0000000E+00  0.1092399E-01
    1        3.153469   1.000000
    2        5.374986   1.000000
    3       11.043726   0.000000
    4       16.066584   0.000000
    5       18.768421   0.000000
    6       26.238455   0.000000
    7       28.187521   0.000000
    8       30.456747   0.000000
 
 -0.3076923E+00  0.2307692E+00  0.0000000E+00  0.1092399E-01
    1        1.339063   1.000000
    2        7.768693   1.000000
    3       10.707567   0.000000
    4       16.980317   0.000000
    5       19.782772   0.000000
    6       25.940081   0.000000
    7       27.948735   0.000000
    8       28.559819   0.000000
 
 -0.2307692E+00  0.2307692E+00  0.0000000E+00  0.5461994E-02
    1       -0.174540   1.000000
    2       10.118713   0.991626
    3       11.027428   0.000000
    4       18.146874   0.000000
    5       21.074939   0.000000
    6       25.835189   0.000000
    7       26.113102   0.000000
    8       27.092285   0.000000
 
  0.3076923E+00  0.3076923E+00  0.0000000E+00  0.2730997E-02
    1       -0.623788   1.000000
    2       13.501433   0.000000
    3       14.651516   0.000000
    4       14.651517   0.000000
    5       16.016031   0.000000
    6       18.402295   0.000000
    7       32.107586   0.000000
    8       32.481909   0.000000
 
  0.3846154E+00  0.3076923E+00  0.0000000E+00  0.1092399E-01
    1        0.446832   1.000000
    2       11.753815   0.000000
    3       12.478698   0.000000
    4       14.299645   0.000000
    5       16.484330   0.000000
    6       18.984629   0.000000
    7       31.443676   0.000000
    8       33.099892   0.000000
 
  0.4615385E+00  0.3076923E+00  0.0000000E+00  0.1092399E-01
    1        1.843897   1.000000
    2        9.585900   1.000000
    3       10.523721   0.000000
    4       14.247091   0.000000
    5       16.682878   0.000000
    6       21.184261   0.000000
    7       30.475753   0.000000
    8       32.823946   0.000000
 
 -0.4615385E+00  0.3076923E+00  0.0000000E+00  0.1092399E-01
    1        3.551005   1.000000
    2        7.133065   1.000000
    3        9.368643   1.000000
    4       14.493525   0.000000
    5       17.013993   0.000000
    6       23.881183   0.000000
    7       29.597198   0.000000
    8       32.080185   0.000000
 
 -0.3846154E+00  0.3076923E+00  0.0000000E+00  0.1092399E-01
    1        4.807284   1.000000
    2        5.658608   1.000000
    3        8.587562   1.000000
    4       15.036706   0.000000
    5       17.636797   0.000000
    6       26.727884   0.000000
    7       28.915663   0.000000
    8       31.055842   0.000000
 
 -0.3076923E+00  0.3076923E+00  0.0000000E+00  0.5461994E-02
    1        2.948972   1.000000
    2        7.534049   1.000000
    3        8.493022   1.000000
    4       15.870776   0.000000
    5       18.565952   0.000000
    6       28.210493   0.000000
    7       29.073478   0.000000
    8       29.340697   0.000000
 
  0.3846154E+00  0.3846154E+00  0.0000000E+00  0.2730997E-02
    1        1.399028   1.000000
    2        9.990101   1.000000
    3       13.848016   0.000000
    4       13.848017   0.000000
    5       15.113908   0.000000
    6       17.507738   0.000000
    7       33.558461   0.000000
    8       34.685632   0.000000
 
  0.4615385E+00  0.3846154E+00  0.0000000E+00  0.1092399E-01
    1        2.674965   1.000000
    2        8.442970   1.000000
    3       11.777759   0.000000
    4       13.696722   0.000000
    5       15.813558   0.000000
    6       18.360323   0.000000
    7       33.181784   0.000000
    8       35.004673   0.000000
 
 -0.4615385E+00  0.3846154E+00  0.0000000E+00  0.1092399E-01
    1        4.250242   1.000000
    2        7.207686   1.000000
    3        9.289665   1.000000
    4       13.845466   0.000000
    5       16.236697   0.000000
    6       20.794942   0.000000
    7       32.357652   0.000000
    8       34.262421   0.000000
 
 -0.3846154E+00  0.3846154E+00  0.0000000E+00  0.5461994E-02
    1        5.805295   1.000000
    2        6.409196   1.000000
    3        7.232788   1.000000
    4       14.293306   0.000000
    5       16.794747   0.000000
    6       23.708727   0.000000
    7       31.281540   0.000000
    8       32.590093   0.000000
 
  0.4615385E+00  0.4615385E+00  0.0000000E+00  0.2730997E-02
    1        3.813866   1.000000
    2        6.798473   1.000000
    3       13.445642   0.000000
    4       13.445643   0.000000
    5       14.659895   0.000000
    6       17.071082   0.000000
    7       34.683452   0.000000
    8       36.222805   0.000000
 
 -0.4615385E+00  0.4615385E+00  0.0000000E+00  0.5461994E-02
    1        4.939975   1.000000
    2        5.790284   1.000000
    3       11.561801   0.000000
    4       13.495525   0.000000
    5       15.590598   0.000000
    6       18.152560   0.000000
    7       34.265830   0.000000
    8       35.833811   0.000000
 
  0.2307692E+00  0.1538462E+00  0.7692308E-01  0.1092399E-01
    1       -3.127182   1.000000
    2       15.604002   0.000000
    3       16.105330   0.000000
    4       20.399980   0.000000
    5       21.271708   0.000000
    6       23.560740   0.000000
    7       26.280146   0.000000
    8       26.363283   0.000000
 
  0.3076923E+00  0.1538462E+00  0.7692308E-01  0.2184797E-01
    1       -2.270744   1.000000
    2       12.660563   0.000000
    3       15.342543   0.000000
    4       19.416454   0.000000
    5       21.479150   0.000000
    6       23.785762   0.000000
    7       25.699730   0.000000
    8       26.753220   0.000000
 
  0.3846154E+00  0.1538462E+00  0.7692308E-01  0.2184797E-01
    1       -1.078457   1.000000
    2        9.683042   1.000000
    3       15.066905   0.000000
    4       18.207347   0.000000
    5       21.110415   0.000000
    6       24.107702   0.000000
    7       25.694726   0.000000
    8       27.291621   0.000000
 
  0.4615385E+00  0.1538462E+00  0.7692308E-01  0.2184797E-01
    1        0.441496   1.000000
    2        6.947259   1.000000
    3       15.090867   0.000000
    4       17.098577   0.000000
    5       21.029566   0.000000
    6       23.104502   0.000000
    7       26.274004   0.000000
    8       29.048755   0.000000
 
 -0.4615385E+00  0.1538462E+00  0.7692308E-01  0.2184797E-01
    1        2.261256   1.000000
    2        4.513712   1.000000
    3       15.354398   0.000000
    4       16.271046   0.000000
    5       21.186836   0.000000
    6       22.351157   0.000000
    7       26.448231   0.000000
    8       29.807928   0.000000
 
  0.3076923E+00  0.2307692E+00  0.7692308E-01  0.1092399E-01
    1       -1.985606   1.000000
    2       13.934199   0.000000
    3       14.510543   0.000000
    4       17.511510   0.000000
    5       19.669321   0.000000
    6       21.228730   0.000000
    7       27.867000   0.000000
    8       29.325428   0.000000
 
  0.3846154E+00  0.2307692E+00  0.7692308E-01  0.2184797E-01
    1       -0.907673   1.000000
    2       11.180508   0.000000
    3       13.903064   0.000000
    4       16.027820   0.000000
    5       19.900811   0.000000
    6       22.555247   0.000000
    7       26.832594   0.000000
    8       29.827822   0.000000
 
  0.4615385E+00  0.2307692E+00  0.7692308E-01  0.2184797E-01
    1        0.500258   1.000000
    2        8.391370   1.000000
    3       13.763210   0.000000
    4       14.760249   0.000000
    5       19.897796   0.000000
    6       24.567310   0.000000
    7       25.957001   0.000000
    8       29.903490   0.000000
 
 -0.4615385E+00  0.2307692E+00  0.7692308E-01  0.2184797E-01
    1        2.223325   1.000000
    2        5.861828   1.000000
    3       13.402730   0.000000
    4       14.299691   0.000000
    5       20.150560   0.000000
    6       24.497274   0.000000
    7       27.379070   0.000000
    8       29.941564   0.000000
 
 -0.3846154E+00  0.2307692E+00  0.7692308E-01  0.2184797E-01
    1        3.473125   1.000000
    2        4.407609   1.000000
    3       12.719922   0.000000
    4       14.767134   0.000000
    5       20.687052   0.000000
    6       23.862090   0.000000
    7       28.465584   0.000000
    8       30.352425   0.000000
 
 -0.3076923E+00  0.2307692E+00  0.7692308E-01  0.2184797E-01
    1        1.615818   1.000000
    2        6.666690   1.000000
    3       12.278318   0.000000
    4       15.606021   0.000000
    5       21.481486   0.000000
    6       23.493649   0.000000
    7       27.756200   0.000000
    8       29.455364   0.000000
 
 -0.2307692E+00  0.2307692E+00  0.7692308E-01  0.2184797E-01
    1       -0.005603   1.000000
    2        9.273926   1.000000
    3       12.156326   0.000000
    4       16.738476   0.000000
    5       22.400320   0.000000
    6       23.470153   0.000000
    7       25.789795   0.000000
    8       28.755123   0.000000
 
 -0.1538462E+00  0.2307692E+00  0.7692308E-01  0.1092399E-01
    1       -1.304541   1.000000
    2       11.830237   0.000000
    3       12.651252   0.000000
    4       18.106197   0.000000
    5       22.934757   0.000000
    6       23.201503   0.000000
    7       24.801212   0.000000
    8       28.031414   0.000000
 
  0.3846154E+00  0.3076923E+00  0.7692308E-01  0.1092399E-01
    1       -0.398277   1.000000
    2       12.668238   0.000000
    3       13.115665   0.000000
    4       14.033445   0.000000
    5       18.413708   0.000000
    6       19.921547   0.000000
    7       29.416101   0.000000
    8       32.185145   0.000000
 
  0.4615385E+00  0.3076923E+00  0.7692308E-01  0.2184797E-01
    1        0.894615   1.000000
    2       10.100365   0.998200
    3       12.183229   0.000000
    4       13.090728   0.000000
    5       18.850638   0.000000
    6       21.636895   0.000000
    7       28.401398   0.000000
    8       32.522196   0.000000
 
 -0.4615385E+00  0.3076923E+00  0.7692308E-01  0.2184797E-01
    1        2.507416   1.000000
    2        7.519547   1.000000
    3       11.069304   0.000000
    4       13.130142   0.000000
    5       19.088395   0.000000
    6       24.144233   0.000000
    7       27.475486   0.000000
    8       31.982247   0.000000
 
 -0.3846154E+00  0.3076923E+00  0.7692308E-01  0.2184797E-01
    1        4.361133   1.000000
    2        5.264865   1.000000
    3       10.192027   0.624973
    4       13.571642   0.000000
    5       19.575586   0.000000
    6       26.138902   0.000000
    7       27.446740   0.000000
    8       30.610362   0.000000
 
 -0.3076923E+00  0.3076923E+00  0.7692308E-01  0.2184797E-01
    1        3.112061   1.000000
    2        6.688471   1.000000
    3        9.643794   1.000000
    4       14.335305   0.000000
    5       20.345119   0.000000
    6       25.931812   0.000000
    7       28.241904   0.000000
    8       29.740875   0.000000
 
 -0.2307692E+00  0.3076923E+00  0.7692308E-01  0.1092399E-01
    1        1.395961   1.000000
    2        8.828462   1.000000
    3        9.762236   1.000000
    4       15.400848   0.000000
    5       21.371868   0.000000
    6       25.437741   0.000000
    7       26.003695   0.000000
    8       30.365437   0.000000
 
  0.4615385E+00  0.3846154E+00  0.7692308E-01  0.1092399E-01
    1        1.621817   1.000000
    2       10.175513   0.783973
    3       11.819746   0.000000
    4       12.609171   0.000000
    5       17.562759   0.000000
    6       19.107575   0.000000
    7       31.178608   0.000000
    8       34.604330   0.000000
 
 -0.4615385E+00  0.3846154E+00  0.7692308E-01  0.2184797E-01
    1        3.115937   1.000000
    2        8.787926   1.000000
    3        9.585637   1.000000
    4       12.350854   0.000000
    5       18.220338   0.000000
    6       21.069822   0.000000
    7       30.298272   0.000000
    8       33.816274   0.000000
 
 -0.3846154E+00  0.3846154E+00  0.7692308E-01  0.2184797E-01
    1        4.894391   1.000000
    2        7.010687   1.000000
    3        8.007684   1.000000
    4       12.687844   0.000000
    5       18.679615   0.000000
    6       23.833686   0.000000
    7       29.495614   0.000000
    8       31.577896   0.000000
 
 -0.3076923E+00  0.3846154E+00  0.7692308E-01  0.1092399E-01
    1        4.907139   1.000000
    2        6.670116   1.000000
    3        7.644808   1.000000
    4       13.356691   0.000000
    5       19.379388   0.000000
    6       26.664994   0.000000
    7       28.683568   0.000000
    8       29.154762   0.000000
 
 -0.4615385E+00  0.4615385E+00  0.7692308E-01  0.1092399E-01
    1        4.032749   1.000000
    2        7.010334   1.000000
    3       11.394233   0.000000
    4       12.165270   0.000000
    5       17.134468   0.000000
    6       18.701109   0.000000
    7       33.033194   0.000000
    8       34.759248   0.000000
 
 -0.3846154E+00  0.4615385E+00  0.7692308E-01  0.1092399E-01
    1        5.372758   1.000000
    2        6.211884   1.000000
    3        9.305520   1.000000
    4       12.133015   0.000000
    5       18.010833   0.000000
    6       20.877891   0.000000
    7       32.238523   0.000000
    8       32.454882   0.000000
 
  0.4615385E+00  0.3076923E+00  0.1538462E+00  0.1092399E-01
    1        0.276737   1.000000
    2       10.547436   0.000000
    3       11.388348   0.000000
    4       14.496539   0.000000
    5       21.750778   0.000000
    6       22.546670   0.000000
    7       25.768929   0.000000
    8       31.382277   0.000000
 
 -0.4615385E+00  0.3076923E+00  0.1538462E+00  0.2184797E-01
    1        1.786449   1.000000
    2        8.194504   1.000000
    3       11.077905   0.000000
    4       13.221326   0.000000
    5       22.126689   0.000000
    6       23.917898   0.000000
    7       25.477010   0.000000
    8       31.709905   0.000000
 
 -0.3846154E+00  0.3076923E+00  0.1538462E+00  0.2184797E-01
    1        3.596261   1.000000
    2        5.806833   1.000000
    3       11.334221   0.000000
    4       12.313418   0.000000
    5       22.309259   0.000000
    6       23.627665   0.000000
    7       27.663430   0.000000
    8       30.262543   0.000000
 
 -0.4615385E+00  0.3846154E+00  0.1538462E+00  0.1092399E-01
    1        2.288184   1.000000
    2        9.689114   1.000000
    3       10.290432   0.006856
    4       11.224367   0.000000
    5       20.930906   0.000000
    6       21.931167   0.000000
    7       27.423171   0.000000
    8       33.384335   0.000000
 
 -0.3846154E+00  0.3846154E+00  0.1538462E+00  0.2184797E-01
    1        3.991383   1.000000
    2        7.532646   1.000000
    3        9.654427   1.000000
    4       10.673680   0.000000
    5       21.611791   0.000000
    6       24.112504   0.000000
    7       26.621427   0.000000
    8       31.047845   0.000000
 
 -0.3076923E+00  0.3846154E+00  0.1538462E+00  0.2184797E-01
    1        5.245328   1.000000
    2        6.083745   1.000000
    3        8.972902   1.000000
    4       11.132155   0.000000
    5       22.161037   0.000000
    6       25.387823   0.000000
    7       27.050113   0.000000
    8       28.727614   0.000000
 
 -0.2307692E+00  0.3846154E+00  0.1538462E+00  0.1092399E-01
    1        3.391130   1.000000
    2        7.966355   1.000000
    3        8.884926   1.000000
    4       12.008572   0.000000
    5       22.866665   0.000000
    6       24.676791   0.000000
    7       25.677027   0.000000
    8       30.506260   0.000000
 
 -0.3846154E+00  0.4615385E+00  0.1538462E+00  0.1092399E-01
    1        4.686379   1.000000
    2        7.623154   1.000000
    3        9.259678   1.000000
    4       10.287407   0.008676
    5       20.516602   0.000000
    6       21.592254   0.000000
    7       29.457550   0.000000
    8       31.689146   0.000000
 
 -0.3076923E+00  0.4615385E+00  0.1538462E+00  0.1092399E-01
    1        6.237989   1.000000
    2        6.851811   1.000000
    3        7.583941   1.000000
    4       10.359472   0.000005
    5       21.425244   0.000000
    6       24.026744   0.000000
    7       28.332627   0.000000
    8       29.204400   0.000000
 
 -0.3076923E+00  0.4615385E+00  0.2307692E+00  0.1092399E-01
    1        5.759194   1.000000
    2        7.534739   1.000000
    3        8.164917   1.000000
    4        9.168074   1.000000
    5       24.177533   0.000000
    6       24.280786   0.000000
    7       25.925922   0.000000
    8       28.441908   0.000000
