       N       E                     dE             d eps       ncg     rms          rms(c)
DAV:   1    -0.342282941567E+01   -0.34228E+01   -0.14672E+03  1472   0.275E+02
DAV:   2    -0.489869922383E+01   -0.14759E+01   -0.14075E+01  2016   0.224E+01
DAV:   3    -0.490450336263E+01   -0.58041E-02   -0.58024E-02  1528   0.144E+00
DAV:   4    -0.490450795901E+01   -0.45964E-05   -0.45967E-05  2200   0.409E-02
DAV:   5    -0.490450796091E+01   -0.19015E-08   -0.15599E-08  1512   0.434E-04    0.280E+00
DAV:   6    -0.489105393760E+01    0.13454E-01   -0.38809E-03  1584   0.272E-01    0.155E+00
DAV:   7    -0.488328570268E+01    0.77682E-02   -0.79018E-03  1560   0.387E-01    0.135E-01
DAV:   8    -0.488324756677E+01    0.38136E-04   -0.25566E-05  1992   0.401E-02    0.152E-02
DAV:   9    -0.488324790642E+01   -0.33965E-06   -0.33075E-07  1696   0.333E-03
   1 F= -.48832479E+01 E0= -.48828064E+01  d E =-.488325E+01
       N       E                     dE             d eps       ncg     rms          rms(c)
DAV:   1    -0.488721062468E+01   -0.39631E-02   -0.90747E-02  1400   0.117E+00    0.282E-01
DAV:   2    -0.488624613572E+01    0.96449E-03   -0.48031E-04  1768   0.159E-01    0.159E-01
DAV:   3    -0.488568056903E+01    0.56557E-03   -0.64180E-04  1448   0.106E-01    0.475E-02
DAV:   4    -0.488567984545E+01    0.72358E-06   -0.11640E-06  1872   0.927E-03    0.402E-02
DAV:   5    -0.488567624076E+01    0.36047E-05   -0.23585E-07  1080   0.334E-03    0.823E-03
DAV:   6    -0.488567650425E+01   -0.26349E-06   -0.77044E-09   784   0.734E-04
   2 F= -.48856765E+01 E0= -.48852375E+01  d E =-.242860E-02
       N       E                     dE             d eps       ncg     rms          rms(c)
DAV:   1    -0.488574679577E+01   -0.70555E-04   -0.13872E-03  1416   0.146E-01    0.343E-02
DAV:   2    -0.488573180128E+01    0.14994E-04   -0.73070E-06  1752   0.196E-02    0.193E-02
DAV:   3    -0.488572363943E+01    0.81618E-05   -0.99640E-06  1464   0.132E-02    0.609E-03
DAV:   4    -0.488572366644E+01   -0.27007E-07   -0.17084E-08   688   0.114E-03    0.518E-03
DAV:   5    -0.488572391634E+01   -0.24991E-06   -0.48934E-09   696   0.527E-04    0.745E-04
DAV:   6    -0.488572388494E+01    0.31400E-07   -0.16275E-10   680   0.102E-04
   3 F= -.48857239E+01 E0= -.48852925E+01  d E =-.247598E-02
