 vasp.6.2.0 18Jan21 (build Aug 12 2022 13:00:08) complex                        
  
 executed on             LinuxIFC date 2024.11.03  21:55:08
 running on    4 total cores
 distrk:  each k-point on    4 cores,    1 groups
 distr:  one band on NCORE=   1 cores,    4 groups


--------------------------------------------------------------------------------------------------------


 INCAR:
   ISTART = 0            (Read existing wavefunction, if there)
   ISPIN = 1            (Non-Spin polarised DFT)
   LREAL = .FALSE.       (Projection operators: automatic)
   LWAVE = .FALSE.        (Write WAVECAR or not)
   LCHARG = .FALSE.        (Write CHGCAR or not)
   ADDGRID = .TRUE.        (Increase grid, helps GGA convergence)
   LASPH = .TRUE.        (Give more accurate total energies and band structure calculations)
   PREC = Accurate      (Accurate strictly avoids any aliasing or wrap around errors)
   ENCUT = 350          (Cut-off energy for plane wave basis set, in eV)
   ISMEAR = 0            (Gaussian smearing, metals:1)
   SIGMA = 0.05         (Smearing value in eV, metals:0.2)
   NELM = 90           (Max electronic SCF steps)
   NELMIN = 6            (Min electronic SCF steps)
   EDIFF = 1E-06        (SCF energy convergence, in eV)
   NSW = 100          (Max ionic steps)
   IBRION = 2            (Algorithm: 0-MD, 1-Quasi-New, 2-CG)
   ISIF = 3            (Stress/relaxation: 2-Ions, 3-Shape/Ions/V, 4-Shape/Ions)
   EDIFFG = -2E-03        (Ionic convergence, eV/AA)
   ISYM = 2              (Symmetry: 0\=none, 2\=GGA, 3\=hybrids)

 POTCAR:    PAW_PBE Si 05Jan2001                  
 POTCAR:    PAW_PBE Si 05Jan2001                  
   VRHFIN =Si: s2p2                                                                                 
   LEXCH  = PE                                                                                      
   EATOM  =   103.0669 eV,    7.5752 Ry                                                             
                                                                                                    
   TITEL  = PAW_PBE Si 05Jan2001                                                                    
   LULTRA =        F    use ultrasoft PP ?                                                          
   IUNSCR =        1    unscreen: 0-lin 1-nonlin 2-no                                               
   RPACOR =    1.500    partial core radius                                                         
   POMASS =   28.085; ZVAL   =    4.000    mass and valenz                                          
   RCORE  =    1.900    outmost cutoff radius                                                       
   RWIGS  =    2.480; RWIGS  =    1.312    wigner-seitz radius (au A)                               
   ENMAX  =  245.345; ENMIN  =  184.009 eV                                                          
   ICORE  =        2    local potential                                                             
   LCOR   =        T    correct aug charges                                                         
   LPAW   =        T    paw PP                                                                      
   EAUG   =  322.069                                                                                
   DEXC   =    0.000                                                                                
   RMAX   =    1.950    core radius for proj-oper                                                   
   RAUG   =    1.300    factor for augmentation sphere                                              
   RDEP   =    1.993    radius for radial grids                                                     
   RDEPT  =    1.837    core radius for aug-charge                                                  
                                                                                                    
   Atomic configuration                                                                             
    6 entries                                                                                       
     n  l   j            E        occ.                                                              
     1  0  0.50     -1785.8828   2.0000                                                             
     2  0  0.50      -139.4969   2.0000                                                             
     2  1  1.50       -95.5546   6.0000                                                             
     3  0  0.50       -10.8127   2.0000                                                             
     3  1  0.50        -4.0811   2.0000                                                             
     3  2  1.50        -4.0817   0.0000                                                             
   Description                                                                                      
     l       E           TYP  RCUT    TYP  RCUT                                                     
     0    -10.8127223     23  1.900                                                                 
     0     -7.6451159     23  1.900                                                                 
     1     -4.0811372     23  1.900                                                                 
     1      2.4879257     23  1.900                                                                 
     2     -4.0817478      7  1.900                                                                 
  local pseudopotential read in
  partial core-charges read in
  partial kinetic energy density read in
  atomic valenz-charges read in
  non local Contribution for L=           0  read in
    real space projection operators read in
  non local Contribution for L=           0  read in
    real space projection operators read in
  non local Contribution for L=           1  read in
    real space projection operators read in
  non local Contribution for L=           1  read in
    real space projection operators read in
    PAW grid and wavefunctions read in
 
   number of l-projection  operators is LMAX  =           4
   number of lm-projection operators is LMMAX =           8
 
  PAW_PBE Si 05Jan2001                  :
 energy of atom  1       EATOM= -103.0669
 kinetic energy error for atom=    0.0013 (will be added to EATOM!!)
 
 
 POSCAR: Si1
  positions in direct lattice
  No initial velocities read in
 exchange correlation table for  LEXCH =        8
   RHO(1)=    0.500       N(1)  =     2000
   RHO(2)=  100.500       N(2)  =     4000
 


--------------------------------------------------------------------------------------------------------


 ion  position               nearest neighbor table
   1  0.000  0.000  0.000-
 
  LATTYP: Found a face centered cubic cell.
 ALAT       =     3.8332789147
  
  Lattice vectors:
  
 A1 = (   2.3473950000,   0.0000000000,   1.3552680000)
 A2 = (   0.7824650000,   2.2131450000,   1.3552680000)
 A3 = (   0.0000000000,   0.0000000000,   2.7105380000)


Analysis of symmetry for initial positions (statically):
=====================================================================
 Subroutine PRICEL returns:
 Original cell was already a primitive cell.
 

 Routine SETGRP: Setting up the symmetry group for a 
 face centered cubic supercell.


 Subroutine GETGRP returns: Found 48 space group operations
 (whereof 48 operations were pure point group operations)
 out of a pool of 48 trial point group operations.


The static configuration has the point symmetry O_h .


Analysis of symmetry for dynamics (positions and initial velocities):
=====================================================================
 Subroutine PRICEL returns:
 Original cell was already a primitive cell.
 

 Routine SETGRP: Setting up the symmetry group for a 
 face centered cubic supercell.


 Subroutine GETGRP returns: Found 48 space group operations
 (whereof 48 operations were pure point group operations)
 out of a pool of 48 trial point group operations.


The dynamic configuration has the point symmetry O_h .


 Subroutine INISYM returns: Found 48 space group operations
 (whereof 48 operations are pure point group operations),
 and found     1 'primitive' translations


----------------------------------------------------------------------------------------

                                     Primitive cell                                     

  volume of cell :      14.0816

  direct lattice vectors                    reciprocal lattice vectors
     2.347395000  0.000000000  1.355268000     0.426004145 -0.150615226  0.000000000
     0.782465000  2.213145000  1.355268000     0.000000000  0.451845677  0.000000000
     0.000000000  0.000000000  2.710538000    -0.213001915 -0.150615114  0.368930448

  length of vectors
     2.710537703  2.710537515  2.710538000     0.451845635  0.451845677  0.451845554

  position of ions in fractional coordinates (direct lattice)
     0.000000000  0.000000000  0.000000000

  ion indices of the primitive-cell ions
   primitive index   ion index
                 1           1

----------------------------------------------------------------------------------------

 
 
 KPOINTS: Automatic                               

Automatic generation of k-mesh.
 Grid dimensions read from file:
 generate k-points for:   13   13   13

 Generating k-lattice:

  Cartesian coordinates                     Fractional coordinates (reciprocal lattice)
     0.032769550 -0.011585787  0.000000000     0.076923077  0.000000000  0.000000000
     0.000000000  0.034757360  0.000000000     0.000000000  0.076923077  0.000000000
    -0.016384763 -0.011585778  0.028379265    -0.000000000 -0.000000000  0.076923077

  Length of vectors
     0.034757357  0.034757360  0.034757350

  Shift w.r.t. Gamma in fractional coordinates (k-lattice)
     0.000000000  0.000000000  0.000000000

 
 Subroutine IBZKPT returns following result:
 ===========================================
 
 Found     84 irreducible k-points:
 
 Following reciprocal coordinates:
            Coordinates               Weight
  0.000000  0.000000  0.000000      1.000000
  0.076923  0.000000  0.000000      8.000000
  0.153846  0.000000  0.000000      8.000000
  0.230769  0.000000  0.000000      8.000000
  0.307692  0.000000  0.000000      8.000000
  0.384615  0.000000  0.000000      8.000000
  0.461538  0.000000  0.000000      8.000000
  0.076923  0.076923  0.000000      6.000000
  0.153846  0.076923  0.000000     24.000000
  0.230769  0.076923  0.000000     24.000000
  0.307692  0.076923  0.000000     24.000000
  0.384615  0.076923  0.000000     24.000000
  0.461538  0.076923  0.000000     24.000000
 -0.461538  0.076923  0.000000     24.000000
 -0.384615  0.076923  0.000000     24.000000
 -0.307692  0.076923  0.000000     24.000000
 -0.230769  0.076923  0.000000     24.000000
 -0.153846  0.076923  0.000000     24.000000
 -0.076923  0.076923  0.000000     12.000000
  0.153846  0.153846  0.000000      6.000000
  0.230769  0.153846  0.000000     24.000000
  0.307692  0.153846  0.000000     24.000000
  0.384615  0.153846  0.000000     24.000000
  0.461538  0.153846  0.000000     24.000000
 -0.461538  0.153846  0.000000     24.000000
 -0.384615  0.153846  0.000000     24.000000
 -0.307692  0.153846  0.000000     24.000000
 -0.230769  0.153846  0.000000     24.000000
 -0.153846  0.153846  0.000000     12.000000
  0.230769  0.230769  0.000000      6.000000
  0.307692  0.230769  0.000000     24.000000
  0.384615  0.230769  0.000000     24.000000
  0.461538  0.230769  0.000000     24.000000
 -0.461538  0.230769  0.000000     24.000000
 -0.384615  0.230769  0.000000     24.000000
 -0.307692  0.230769  0.000000     24.000000
 -0.230769  0.230769  0.000000     12.000000
  0.307692  0.307692  0.000000      6.000000
  0.384615  0.307692  0.000000     24.000000
  0.461538  0.307692  0.000000     24.000000
 -0.461538  0.307692  0.000000     24.000000
 -0.384615  0.307692  0.000000     24.000000
 -0.307692  0.307692  0.000000     12.000000
  0.384615  0.384615  0.000000      6.000000
  0.461538  0.384615  0.000000     24.000000
 -0.461538  0.384615  0.000000     24.000000
 -0.384615  0.384615  0.000000     12.000000
  0.461538  0.461538  0.000000      6.000000
 -0.461538  0.461538  0.000000     12.000000
  0.230769  0.153846  0.076923     24.000000
  0.307692  0.153846  0.076923     48.000000
  0.384615  0.153846  0.076923     48.000000
  0.461538  0.153846  0.076923     48.000000
 -0.461538  0.153846  0.076923     48.000000
  0.307692  0.230769  0.076923     24.000000
  0.384615  0.230769  0.076923     48.000000
  0.461538  0.230769  0.076923     48.000000
 -0.461538  0.230769  0.076923     48.000000
 -0.384615  0.230769  0.076923     48.000000
 -0.307692  0.230769  0.076923     48.000000
 -0.230769  0.230769  0.076923     48.000000
 -0.153846  0.230769  0.076923     24.000000
  0.384615  0.307692  0.076923     24.000000
  0.461538  0.307692  0.076923     48.000000
 -0.461538  0.307692  0.076923     48.000000
 -0.384615  0.307692  0.076923     48.000000
 -0.307692  0.307692  0.076923     48.000000
 -0.230769  0.307692  0.076923     24.000000
  0.461538  0.384615  0.076923     24.000000
 -0.461538  0.384615  0.076923     48.000000
 -0.384615  0.384615  0.076923     48.000000
 -0.307692  0.384615  0.076923     24.000000
 -0.461538  0.461538  0.076923     24.000000
 -0.384615  0.461538  0.076923     24.000000
  0.461538  0.307692  0.153846     24.000000
 -0.461538  0.307692  0.153846     48.000000
 -0.384615  0.307692  0.153846     48.000000
 -0.461538  0.384615  0.153846     24.000000
 -0.384615  0.384615  0.153846     48.000000
 -0.307692  0.384615  0.153846     48.000000
 -0.230769  0.384615  0.153846     24.000000
 -0.384615  0.461538  0.153846     24.000000
 -0.307692  0.461538  0.153846     24.000000
 -0.307692  0.461538  0.230769     24.000000
 
 Following cartesian coordinates:
            Coordinates               Weight
  0.000000  0.000000  0.000000      1.000000
  0.032770 -0.011586  0.000000      8.000000
  0.065539 -0.023172  0.000000      8.000000
  0.098309 -0.034757  0.000000      8.000000
  0.131078 -0.046343  0.000000      8.000000
  0.163848 -0.057929  0.000000      8.000000
  0.196617 -0.069515  0.000000      8.000000
  0.032770  0.023172  0.000000      6.000000
  0.065539  0.011586  0.000000     24.000000
  0.098309  0.000000  0.000000     24.000000
  0.131078 -0.011586  0.000000     24.000000
  0.163848 -0.023172  0.000000     24.000000
  0.196617 -0.034757  0.000000     24.000000
 -0.196617  0.104272  0.000000     24.000000
 -0.163848  0.092686  0.000000     24.000000
 -0.131078  0.081101  0.000000     24.000000
 -0.098309  0.069515  0.000000     24.000000
 -0.065539  0.057929  0.000000     24.000000
 -0.032770  0.046343  0.000000     12.000000
  0.065539  0.046343  0.000000      6.000000
  0.098309  0.034757  0.000000     24.000000
  0.131078  0.023172  0.000000     24.000000
  0.163848  0.011586  0.000000     24.000000
  0.196617  0.000000  0.000000     24.000000
 -0.196617  0.139029  0.000000     24.000000
 -0.163848  0.127444  0.000000     24.000000
 -0.131078  0.115858  0.000000     24.000000
 -0.098309  0.104272  0.000000     24.000000
 -0.065539  0.092686  0.000000     12.000000
  0.098309  0.069515  0.000000      6.000000
  0.131078  0.057929  0.000000     24.000000
  0.163848  0.046343  0.000000     24.000000
  0.196617  0.034757  0.000000     24.000000
 -0.196617  0.173787  0.000000     24.000000
 -0.163848  0.162201  0.000000     24.000000
 -0.131078  0.150615  0.000000     24.000000
 -0.098309  0.139029  0.000000     12.000000
  0.131078  0.092686  0.000000      6.000000
  0.163848  0.081101  0.000000     24.000000
  0.196617  0.069515  0.000000     24.000000
 -0.196617  0.208544  0.000000     24.000000
 -0.163848  0.196958  0.000000     24.000000
 -0.131078  0.185373  0.000000     12.000000
  0.163848  0.115858  0.000000      6.000000
  0.196617  0.104272  0.000000     24.000000
 -0.196617  0.243302  0.000000     24.000000
 -0.163848  0.231716  0.000000     12.000000
  0.196617  0.139029  0.000000      6.000000
 -0.196617  0.278059  0.000000     12.000000
  0.081924  0.023172  0.028379     24.000000
  0.114693  0.011586  0.028379     48.000000
  0.147463  0.000000  0.028379     48.000000
  0.180233 -0.011586  0.028379     48.000000
 -0.213002  0.127444  0.028379     48.000000
  0.114693  0.046343  0.028379     24.000000
  0.147463  0.034757  0.028379     48.000000
  0.180233  0.023172  0.028379     48.000000
 -0.213002  0.162201  0.028379     48.000000
 -0.180233  0.150615  0.028379     48.000000
 -0.147463  0.139029  0.028379     48.000000
 -0.114693  0.127444  0.028379     48.000000
 -0.081924  0.115858  0.028379     24.000000
  0.147463  0.069515  0.028379     24.000000
  0.180233  0.057929  0.028379     48.000000
 -0.213002  0.196958  0.028379     48.000000
 -0.180233  0.185373  0.028379     48.000000
 -0.147463  0.173787  0.028379     48.000000
 -0.114693  0.162201  0.028379     24.000000
  0.180233  0.092686  0.028379     24.000000
 -0.213002  0.231716  0.028379     48.000000
 -0.180233  0.220130  0.028379     48.000000
 -0.147463  0.208544  0.028379     24.000000
 -0.213002  0.266473  0.028379     24.000000
 -0.180233  0.254887  0.028379     24.000000
  0.163848  0.046343  0.056759     24.000000
 -0.229387  0.185373  0.056759     48.000000
 -0.196617  0.173787  0.056759     48.000000
 -0.229387  0.220130  0.056759     24.000000
 -0.196617  0.208544  0.056759     48.000000
 -0.163848  0.196958  0.056759     48.000000
 -0.131078  0.185373  0.056759     24.000000
 -0.196617  0.243302  0.056759     24.000000
 -0.163848  0.231716  0.056759     24.000000
 -0.180232  0.220130  0.085138     24.000000
 


--------------------------------------------------------------------------------------------------------




 Dimension of arrays:
   k-points           NKPTS =     84   k-points in BZ     NKDIM =     84   number of bands    NBANDS=      8
   number of dos      NEDOS =    301   number of ions     NIONS =      1
   non local maximal  LDIM  =      4   non local SUM 2l+1 LMDIM =      8
   total plane-waves  NPLWV =   5832
   max r-space proj   IRMAX =      1   max aug-charges    IRDMAX= 110965
   dimension x,y,z NGX =    18 NGY =   18 NGZ =   18
   dimension x,y,z NGXF=    36 NGYF=   36 NGZF=   36
   support grid    NGXF=    72 NGYF=   72 NGZF=   72
   ions per type =               1
   NGX,Y,Z   is equivalent  to a cutoff of  11.04, 11.04, 11.04 a.u.
   NGXF,Y,Z  is equivalent  to a cutoff of  22.08, 22.08, 22.08 a.u.

 SYSTEM =  unknown system                          
 POSCAR =  Si1                                     

 Startparameter for this run:
   NWRITE =      2    write-flag & timer
   PREC   = accura    normal or accurate (medium, high low for compatibility)
   ISTART =      0    job   : 0-new  1-cont  2-samecut
   ICHARG =      2    charge: 1-file 2-atom 10-const
   ISPIN  =      1    spin polarized calculation?
   LNONCOLLINEAR =      F non collinear calculations
   LSORBIT =      F    spin-orbit coupling
   INIWAV =      1    electr: 0-lowe 1-rand  2-diag
   LASPH  =      T    aspherical Exc in radial PAW
   METAGGA=      F    non-selfconsistent MetaGGA calc.

 Electronic Relaxation 1
   ENCUT  =  350.0 eV  25.72 Ry    5.07 a.u.   4.13  4.13  4.13*2*pi/ulx,y,z
   ENINI  =  350.0     initial cutoff
   ENAUG  =  322.1 eV  augmentation charge cutoff
   NELM   =     90;   NELMIN=  6; NELMDL= -5     # of ELM steps 
   EDIFF  = 0.1E-05   stopping-criterion for ELM
   LREAL  =      F    real-space projection
   NLSPLINE    = F    spline interpolate recip. space projectors
   LCOMPAT=      F    compatible to vasp.4.4
   GGA_COMPAT  = T    GGA compatible to vasp.4.4-vasp.4.6
   LMAXPAW     = -100 max onsite density
   LMAXMIX     =    2 max onsite mixed and CHGCAR
   VOSKOWN=      0    Vosko Wilk Nusair interpolation
   ROPT   =    0.00000
 Ionic relaxation
   EDIFFG = -.2E-02   stopping-criterion for IOM
   NSW    =    100    number of steps for IOM
   NBLOCK =      1;   KBLOCK =    100    inner block; outer block 
   IBRION =      2    ionic relax: 0-MD 1-quasi-New 2-CG
   NFREE  =      1    steps in history (QN), initial steepest desc. (CG)
   ISIF   =      3    stress and relaxation
   IWAVPR =     11    prediction:  0-non 1-charg 2-wave 3-comb
   ISYM   =      2    0-nonsym 1-usesym 2-fastsym
   LCORR  =      T    Harris-Foulkes like correction to forces

   POTIM  = 0.5000    time-step for ionic-motion
   TEIN   =    0.0    initial temperature
   TEBEG  =    0.0;   TEEND  =   0.0 temperature during run
   SMASS  =  -3.00    Nose mass-parameter (am)
   estimated Nose-frequenzy (Omega)   =  0.10E-29 period in steps = 0.13E+47 mass=  -0.168E-27a.u.
   SCALEE = 1.0000    scale energy and forces
   NPACO  =    256;   APACO  = 16.0  distance and # of slots for P.C.
   PSTRESS=    0.0 pullay stress

  Mass of Ions in am
   POMASS =  28.09
  Ionic Valenz
   ZVAL   =   4.00
  Atomic Wigner-Seitz radii
   RWIGS  =  -1.00
  virtual crystal weights 
   VCA    =   1.00
   NELECT =       4.0000    total number of electrons
   NUPDOWN=      -1.0000    fix difference up-down

 DOS related values:
   EMIN   =  10.00;   EMAX   =-10.00  energy-range for DOS
   EFERMI =   0.00
   ISMEAR =     0;   SIGMA  =   0.05  broadening in eV -4-tet -1-fermi 0-gaus

 Electronic relaxation 2 (details)
   IALGO  =     38    algorithm
   LDIAG  =      T    sub-space diagonalisation (order eigenvalues)
   LSUBROT=      F    optimize rotation matrix (better conditioning)
   TURBO    =      0    0=normal 1=particle mesh
   IRESTART =      0    0=no restart 2=restart with 2 vectors
   NREBOOT  =      0    no. of reboots
   NMIN     =      0    reboot dimension
   EREF     =   0.00    reference energy to select bands
   IMIX   =      4    mixing-type and parameters
     AMIX     =   0.40;   BMIX     =  1.00
     AMIX_MAG =   1.60;   BMIX_MAG =  1.00
     AMIN     =   0.10
     WC   =   100.;   INIMIX=   1;  MIXPRE=   1;  MAXMIX= -45

 Intra band minimization:
   WEIMIN = 0.0010     energy-eigenvalue tresh-hold
   EBREAK =  0.31E-07  absolut break condition
   DEPER  =   0.30     relativ break condition  

   TIME   =   0.40     timestep for ELM

  volume/ion in A,a.u.               =      14.08        95.03
  Fermi-wavevector in a.u.,A,eV,Ry     =   1.076162  2.033651 15.757242  1.158125
  Thomas-Fermi vector in A             =   2.212039
 
 Write flags
   LWAVE        =      F    write WAVECAR
   LDOWNSAMPLE  =      F    k-point downsampling of WAVECAR
   LCHARG       =      F    write CHGCAR
   LVTOT        =      F    write LOCPOT, total local potential
   LVHAR        =      F    write LOCPOT, Hartree potential only
   LELF         =      F    write electronic localiz. function (ELF)
   LORBIT       =      0    0 simple, 1 ext, 2 COOP (PROOUT), +10 PAW based schemes


 Dipole corrections
   LMONO  =      F    monopole corrections only (constant potential shift)
   LDIPOL =      F    correct potential (dipole corrections)
   IDIPOL =      0    1-x, 2-y, 3-z, 4-all directions 
   EPSILON=  1.0000000 bulk dielectric constant

 Exchange correlation treatment:
   GGA     =    --    GGA type
   LEXCH   =     8    internal setting for exchange type
   VOSKOWN=      0    Vosko Wilk Nusair interpolation
   LHFCALC =     F    Hartree Fock is set to
   LHFONE  =     F    Hartree Fock one center treatment
   AEXX    =    0.0000 exact exchange contribution

 Linear response parameters
   LEPSILON=     F    determine dielectric tensor
   LRPA    =     F    only Hartree local field effects (RPA)
   LNABLA  =     F    use nabla operator in PAW spheres
   LVEL    =     F    velocity operator in full k-point grid
   LINTERFAST=   F  fast interpolation
   KINTER  =     0    interpolate to denser k-point grid
   CSHIFT  =0.1000    complex shift for real part using Kramers Kronig
   OMEGAMAX=  -1.0    maximum frequency
   DEG_THRESHOLD= 0.2000000E-02 threshold for treating states as degnerate
   RTIME   =   -0.100 relaxation time in fs
  (WPLASMAI=    0.000 imaginary part of plasma frequency in eV, 0.658/RTIME)
   DFIELD  = 0.0000000 0.0000000 0.0000000 field for delta impulse in time
 
 Orbital magnetization related:
   ORBITALMAG=     F  switch on orbital magnetization
   LCHIMAG   =     F  perturbation theory with respect to B field
   DQ        =  0.001000  dq finite difference perturbation B field
   LLRAUG    =     F  two centre corrections for induced B field



--------------------------------------------------------------------------------------------------------


 conjugate gradient relaxation of ions
 charge density and potential will be updated during run
 non-spin polarized calculation
 Variant of blocked Davidson
 Davidson routine will perform the subspace rotation
 perform sub-space diagonalisation
    after iterative eigenvector-optimisation
 modified Broyden-mixing scheme, WC =      100.0
 initial mixing is a Kerker type mixing with AMIX =  0.4000 and BMIX =      1.0000
 Hartree-type preconditioning will be used
 using additional bands            6
 reciprocal scheme for non local part
 use partial core corrections
 calculate Harris-corrections to forces 
   (improved forces if not selfconsistent)
 use gradient corrections 
 use of overlap-Matrix (Vanderbilt PP)
 Gauss-broadening in eV      SIGMA  =   0.05


--------------------------------------------------------------------------------------------------------


  energy-cutoff  :      350.00
  volume of cell :       14.08
      direct lattice vectors                 reciprocal lattice vectors
     2.347395000  0.000000000  1.355268000     0.426004145 -0.150615226  0.000000000
     0.782465000  2.213145000  1.355268000     0.000000000  0.451845677  0.000000000
     0.000000000  0.000000000  2.710538000    -0.213001915 -0.150615114  0.368930448

  length of vectors
     2.710537703  2.710537515  2.710538000     0.451845635  0.451845677  0.451845554


 
 k-points in units of 2pi/SCALE and weight: Automatic                               
   0.00000000  0.00000000  0.00000000       0.000
   0.03276955 -0.01158579  0.00000000       0.004
   0.06553910 -0.02317157  0.00000000       0.004
   0.09830865 -0.03475736  0.00000000       0.004
   0.13107820 -0.04634315  0.00000000       0.004
   0.16384775 -0.05792893  0.00000000       0.004
   0.19661730 -0.06951472  0.00000000       0.004
   0.03276955  0.02317157  0.00000000       0.003
   0.06553910  0.01158579  0.00000000       0.011
   0.09830865  0.00000000  0.00000000       0.011
   0.13107820 -0.01158579  0.00000000       0.011
   0.16384775 -0.02317157  0.00000000       0.011
   0.19661730 -0.03475736  0.00000000       0.011
  -0.19661730  0.10427208  0.00000000       0.011
  -0.16384775  0.09268629  0.00000000       0.011
  -0.13107820  0.08110051  0.00000000       0.011
  -0.09830865  0.06951472  0.00000000       0.011
  -0.06553910  0.05792893  0.00000000       0.011
  -0.03276955  0.04634315  0.00000000       0.005
   0.06553910  0.04634315  0.00000000       0.003
   0.09830865  0.03475736  0.00000000       0.011
   0.13107820  0.02317157  0.00000000       0.011
   0.16384775  0.01158579  0.00000000       0.011
   0.19661730  0.00000000  0.00000000       0.011
  -0.19661730  0.13902944  0.00000000       0.011
  -0.16384775  0.12744365  0.00000000       0.011
  -0.13107820  0.11585787  0.00000000       0.011
  -0.09830865  0.10427208  0.00000000       0.011
  -0.06553910  0.09268629  0.00000000       0.005
   0.09830865  0.06951472  0.00000000       0.003
   0.13107820  0.05792893  0.00000000       0.011
   0.16384775  0.04634315  0.00000000       0.011
   0.19661730  0.03475736  0.00000000       0.011
  -0.19661730  0.17378680  0.00000000       0.011
  -0.16384775  0.16220101  0.00000000       0.011
  -0.13107820  0.15061523  0.00000000       0.011
  -0.09830865  0.13902944  0.00000000       0.005
   0.13107820  0.09268629  0.00000000       0.003
   0.16384775  0.08110051  0.00000000       0.011
   0.19661730  0.06951472  0.00000000       0.011
  -0.19661730  0.20854416  0.00000000       0.011
  -0.16384775  0.19695837  0.00000000       0.011
  -0.13107820  0.18537259  0.00000000       0.005
   0.16384775  0.11585787  0.00000000       0.003
   0.19661730  0.10427208  0.00000000       0.011
  -0.19661730  0.24330152  0.00000000       0.011
  -0.16384775  0.23171573  0.00000000       0.005
   0.19661730  0.13902944  0.00000000       0.003
  -0.19661730  0.27805888  0.00000000       0.005
   0.08192389  0.02317158  0.02837927       0.011
   0.11469344  0.01158580  0.02837927       0.022
   0.14746299  0.00000001  0.02837927       0.022
   0.18023253 -0.01158578  0.02837927       0.022
  -0.21300206  0.12744366  0.02837927       0.022
   0.11469344  0.04634315  0.02837927       0.011
   0.14746299  0.03475737  0.02837927       0.022
   0.18023253  0.02317158  0.02837927       0.022
  -0.21300206  0.16220102  0.02837927       0.022
  -0.18023251  0.15061523  0.02837927       0.022
  -0.14746296  0.13902945  0.02837927       0.022
  -0.11469341  0.12744366  0.02837927       0.022
  -0.08192386  0.11585787  0.02837927       0.011
   0.14746299  0.06951473  0.02837927       0.011
   0.18023253  0.05792894  0.02837927       0.022
  -0.21300206  0.19695838  0.02837927       0.022
  -0.18023251  0.18537259  0.02837927       0.022
  -0.14746296  0.17378681  0.02837927       0.022
  -0.11469341  0.16220102  0.02837927       0.011
   0.18023253  0.09268630  0.02837927       0.011
  -0.21300206  0.23171574  0.02837927       0.022
  -0.18023251  0.22012995  0.02837927       0.022
  -0.14746296  0.20854417  0.02837927       0.011
  -0.21300206  0.26647310  0.02837927       0.011
  -0.18023251  0.25488731  0.02837927       0.011
   0.16384777  0.04634316  0.05675853       0.011
  -0.22938682  0.18537260  0.05675853       0.022
  -0.19661727  0.17378682  0.05675853       0.022
  -0.22938682  0.22012996  0.05675853       0.011
  -0.19661727  0.20854418  0.05675853       0.022
  -0.16384772  0.19695839  0.05675853       0.022
  -0.13107817  0.18537260  0.05675853       0.011
  -0.19661727  0.24330154  0.05675853       0.011
  -0.16384772  0.23171575  0.05675853       0.011
  -0.18023249  0.22012997  0.08513780       0.011
 
 k-points in reciprocal lattice and weights: Automatic                               
   0.00000000  0.00000000  0.00000000       0.000
   0.07692308  0.00000000  0.00000000       0.004
   0.15384615  0.00000000  0.00000000       0.004
   0.23076923  0.00000000  0.00000000       0.004
   0.30769231  0.00000000  0.00000000       0.004
   0.38461538  0.00000000  0.00000000       0.004
   0.46153846  0.00000000  0.00000000       0.004
   0.07692308  0.07692308  0.00000000       0.003
   0.15384615  0.07692308  0.00000000       0.011
   0.23076923  0.07692308  0.00000000       0.011
   0.30769231  0.07692308  0.00000000       0.011
   0.38461538  0.07692308  0.00000000       0.011
   0.46153846  0.07692308  0.00000000       0.011
  -0.46153846  0.07692308  0.00000000       0.011
  -0.38461538  0.07692308  0.00000000       0.011
  -0.30769231  0.07692308  0.00000000       0.011
  -0.23076923  0.07692308  0.00000000       0.011
  -0.15384615  0.07692308  0.00000000       0.011
  -0.07692308  0.07692308  0.00000000       0.005
   0.15384615  0.15384615  0.00000000       0.003
   0.23076923  0.15384615  0.00000000       0.011
   0.30769231  0.15384615  0.00000000       0.011
   0.38461538  0.15384615  0.00000000       0.011
   0.46153846  0.15384615  0.00000000       0.011
  -0.46153846  0.15384615  0.00000000       0.011
  -0.38461538  0.15384615  0.00000000       0.011
  -0.30769231  0.15384615  0.00000000       0.011
  -0.23076923  0.15384615  0.00000000       0.011
  -0.15384615  0.15384615  0.00000000       0.005
   0.23076923  0.23076923  0.00000000       0.003
   0.30769231  0.23076923  0.00000000       0.011
   0.38461538  0.23076923  0.00000000       0.011
   0.46153846  0.23076923  0.00000000       0.011
  -0.46153846  0.23076923  0.00000000       0.011
  -0.38461538  0.23076923  0.00000000       0.011
  -0.30769231  0.23076923  0.00000000       0.011
  -0.23076923  0.23076923  0.00000000       0.005
   0.30769231  0.30769231  0.00000000       0.003
   0.38461538  0.30769231  0.00000000       0.011
   0.46153846  0.30769231  0.00000000       0.011
  -0.46153846  0.30769231  0.00000000       0.011
  -0.38461538  0.30769231  0.00000000       0.011
  -0.30769231  0.30769231  0.00000000       0.005
   0.38461538  0.38461538  0.00000000       0.003
   0.46153846  0.38461538  0.00000000       0.011
  -0.46153846  0.38461538  0.00000000       0.011
  -0.38461538  0.38461538  0.00000000       0.005
   0.46153846  0.46153846  0.00000000       0.003
  -0.46153846  0.46153846  0.00000000       0.005
   0.23076923  0.15384615  0.07692308       0.011
   0.30769231  0.15384615  0.07692308       0.022
   0.38461538  0.15384615  0.07692308       0.022
   0.46153846  0.15384615  0.07692308       0.022
  -0.46153846  0.15384615  0.07692308       0.022
   0.30769231  0.23076923  0.07692308       0.011
   0.38461538  0.23076923  0.07692308       0.022
   0.46153846  0.23076923  0.07692308       0.022
  -0.46153846  0.23076923  0.07692308       0.022
  -0.38461538  0.23076923  0.07692308       0.022
  -0.30769231  0.23076923  0.07692308       0.022
  -0.23076923  0.23076923  0.07692308       0.022
  -0.15384615  0.23076923  0.07692308       0.011
   0.38461538  0.30769231  0.07692308       0.011
   0.46153846  0.30769231  0.07692308       0.022
  -0.46153846  0.30769231  0.07692308       0.022
  -0.38461538  0.30769231  0.07692308       0.022
  -0.30769231  0.30769231  0.07692308       0.022
  -0.23076923  0.30769231  0.07692308       0.011
   0.46153846  0.38461538  0.07692308       0.011
  -0.46153846  0.38461538  0.07692308       0.022
  -0.38461538  0.38461538  0.07692308       0.022
  -0.30769231  0.38461538  0.07692308       0.011
  -0.46153846  0.46153846  0.07692308       0.011
  -0.38461538  0.46153846  0.07692308       0.011
   0.46153846  0.30769231  0.15384615       0.011
  -0.46153846  0.30769231  0.15384615       0.022
  -0.38461538  0.30769231  0.15384615       0.022
  -0.46153846  0.38461538  0.15384615       0.011
  -0.38461538  0.38461538  0.15384615       0.022
  -0.30769231  0.38461538  0.15384615       0.022
  -0.23076923  0.38461538  0.15384615       0.011
  -0.38461538  0.46153846  0.15384615       0.011
  -0.30769231  0.46153846  0.15384615       0.011
  -0.30769231  0.46153846  0.23076923       0.011
 
 position of ions in fractional coordinates (direct lattice) 
   0.00000000  0.00000000  0.00000000
 
 position of ions in cartesian coordinates  (Angst):
   0.00000000  0.00000000  0.00000000
 


--------------------------------------------------------------------------------------------------------


 k-point   1 :   0.0000 0.0000 0.0000  plane waves:     181
 k-point   2 :   0.0769 0.0000 0.0000  plane waves:     193
 k-point   3 :   0.1538 0.0000 0.0000  plane waves:     199
 k-point   4 :   0.2308 0.0000 0.0000  plane waves:     205
 k-point   5 :   0.3077 0.0000 0.0000  plane waves:     205
 k-point   6 :   0.3846 0.0000 0.0000  plane waves:     204
 k-point   7 :   0.4615 0.0000 0.0000  plane waves:     213
 k-point   8 :   0.0769 0.0769 0.0000  plane waves:     198
 k-point   9 :   0.1538 0.0769 0.0000  plane waves:     199
 k-point  10 :   0.2308 0.0769 0.0000  plane waves:     202
 k-point  11 :   0.3077 0.0769 0.0000  plane waves:     207
 k-point  12 :   0.3846 0.0769 0.0000  plane waves:     209
 k-point  13 :   0.4615 0.0769 0.0000  plane waves:     210
 k-point  14 :  -0.4615 0.0769 0.0000  plane waves:     215
 k-point  15 :  -0.3846 0.0769 0.0000  plane waves:     210
 k-point  16 :  -0.3077 0.0769 0.0000  plane waves:     207
 k-point  17 :  -0.2308 0.0769 0.0000  plane waves:     206
 k-point  18 :  -0.1538 0.0769 0.0000  plane waves:     206
 k-point  19 :  -0.0769 0.0769 0.0000  plane waves:     198
 k-point  20 :   0.1538 0.1538 0.0000  plane waves:     202
 k-point  21 :   0.2308 0.1538 0.0000  plane waves:     207
 k-point  22 :   0.3077 0.1538 0.0000  plane waves:     206
 k-point  23 :   0.3846 0.1538 0.0000  plane waves:     208
 k-point  24 :   0.4615 0.1538 0.0000  plane waves:     208
 k-point  25 :  -0.4615 0.1538 0.0000  plane waves:     213
 k-point  26 :  -0.3846 0.1538 0.0000  plane waves:     212
 k-point  27 :  -0.3077 0.1538 0.0000  plane waves:     210
 k-point  28 :  -0.2308 0.1538 0.0000  plane waves:     210
 k-point  29 :  -0.1538 0.1538 0.0000  plane waves:     208
 k-point  30 :   0.2308 0.2308 0.0000  plane waves:     202
 k-point  31 :   0.3077 0.2308 0.0000  plane waves:     213
 k-point  32 :   0.3846 0.2308 0.0000  plane waves:     211
 k-point  33 :   0.4615 0.2308 0.0000  plane waves:     211
 k-point  34 :  -0.4615 0.2308 0.0000  plane waves:     211
 k-point  35 :  -0.3846 0.2308 0.0000  plane waves:     210
 k-point  36 :  -0.3077 0.2308 0.0000  plane waves:     209
 k-point  37 :  -0.2308 0.2308 0.0000  plane waves:     210
 k-point  38 :   0.3077 0.3077 0.0000  plane waves:     218
 k-point  39 :   0.3846 0.3077 0.0000  plane waves:     210
 k-point  40 :   0.4615 0.3077 0.0000  plane waves:     210
 k-point  41 :  -0.4615 0.3077 0.0000  plane waves:     213
 k-point  42 :  -0.3846 0.3077 0.0000  plane waves:     216
 k-point  43 :  -0.3077 0.3077 0.0000  plane waves:     212
 k-point  44 :   0.3846 0.3846 0.0000  plane waves:     214
 k-point  45 :   0.4615 0.3846 0.0000  plane waves:     210
 k-point  46 :  -0.4615 0.3846 0.0000  plane waves:     211
 k-point  47 :  -0.3846 0.3846 0.0000  plane waves:     212
 k-point  48 :   0.4615 0.4615 0.0000  plane waves:     218
 k-point  49 :  -0.4615 0.4615 0.0000  plane waves:     214
 k-point  50 :   0.2308 0.1538 0.0769  plane waves:     203
 k-point  51 :   0.3077 0.1538 0.0769  plane waves:     207
 k-point  52 :   0.3846 0.1538 0.0769  plane waves:     208
 k-point  53 :   0.4615 0.1538 0.0769  plane waves:     209
 k-point  54 :  -0.4615 0.1538 0.0769  plane waves:     214
 k-point  55 :   0.3077 0.2308 0.0769  plane waves:     209
 k-point  56 :   0.3846 0.2308 0.0769  plane waves:     208
 k-point  57 :   0.4615 0.2308 0.0769  plane waves:     209
 k-point  58 :  -0.4615 0.2308 0.0769  plane waves:     208
 k-point  59 :  -0.3846 0.2308 0.0769  plane waves:     213
 k-point  60 :  -0.3077 0.2308 0.0769  plane waves:     208
 k-point  61 :  -0.2308 0.2308 0.0769  plane waves:     209
 k-point  62 :  -0.1538 0.2308 0.0769  plane waves:     207
 k-point  63 :   0.3846 0.3077 0.0769  plane waves:     212
 k-point  64 :   0.4615 0.3077 0.0769  plane waves:     211
 k-point  65 :  -0.4615 0.3077 0.0769  plane waves:     211
 k-point  66 :  -0.3846 0.3077 0.0769  plane waves:     212
 k-point  67 :  -0.3077 0.3077 0.0769  plane waves:     210
 k-point  68 :  -0.2308 0.3077 0.0769  plane waves:     210
 k-point  69 :   0.4615 0.3846 0.0769  plane waves:     208
 k-point  70 :  -0.4615 0.3846 0.0769  plane waves:     210
 k-point  71 :  -0.3846 0.3846 0.0769  plane waves:     210
 k-point  72 :  -0.3077 0.3846 0.0769  plane waves:     211
 k-point  73 :  -0.4615 0.4615 0.0769  plane waves:     210
 k-point  74 :  -0.3846 0.4615 0.0769  plane waves:     208
 k-point  75 :   0.4615 0.3077 0.1538  plane waves:     208
 k-point  76 :  -0.4615 0.3077 0.1538  plane waves:     210
 k-point  77 :  -0.3846 0.3077 0.1538  plane waves:     208
 k-point  78 :  -0.4615 0.3846 0.1538  plane waves:     212
 k-point  79 :  -0.3846 0.3846 0.1538  plane waves:     210
 k-point  80 :  -0.3077 0.3846 0.1538  plane waves:     208
 k-point  81 :  -0.2308 0.3846 0.1538  plane waves:     208
 k-point  82 :  -0.3846 0.4615 0.1538  plane waves:     210
 k-point  83 :  -0.3077 0.4615 0.1538  plane waves:     210
 k-point  84 :  -0.3077 0.4615 0.2308  plane waves:     208

 maximum and minimum number of plane-waves per node :       218      181

 maximum number of plane-waves:       218
 maximum index in each direction: 
   IXMAX=    4   IYMAX=    4   IZMAX=    4
   IXMIN=   -4   IYMIN=   -4   IZMIN=   -4


 serial   3D FFT for wavefunctions
 parallel 3D FFT for charge:
    minimum data exchange during FFTs selected (reduces bandwidth)


 total amount of memory used by VASP MPI-rank0    34395. kBytes
=======================================================================

   base      :      30000. kBytes
   nonl-proj :       1186. kBytes
   fftplans  :       1775. kBytes
   grid      :        819. kBytes
   one-center:          3. kBytes
   wavefun   :        612. kBytes
 
     INWAV:  cpu time    0.0000: real time    0.0005
 Broyden mixing: mesh for mixing (old mesh)
   NGX =  9   NGY =  9   NGZ =  9
  (NGX  = 36   NGY  = 36   NGZ  = 36)
  gives a total of    729 points

 initial charge density was supplied:
 charge density of overlapping atoms calculated
 number of electron       4.0000000 magnetization 
 keeping initial charge density in first step


--------------------------------------------------------------------------------------------------------


 Maximum index for augmentation-charges        26783 (set IRDMAX)


--------------------------------------------------------------------------------------------------------


 First call to EWALD:  gamma=   0.734
 Maximum number of real-space cells 3x 3x 3
 Maximum number of reciprocal cells 3x 3x 3

    FEWALD:  cpu time    0.0030: real time    0.0034


--------------------------------------- Iteration      1(   1)  ---------------------------------------


    POTLOK:  cpu time    0.0130: real time    0.0172
    SETDIJ:  cpu time    0.1680: real time    0.1672
     EDDAV:  cpu time    0.4109: real time    0.4126
       DOS:  cpu time    0.0020: real time    0.0016
    --------------------------------------------
      LOOP:  cpu time    0.5939: real time    0.5990

 eigenvalue-minimisations  :  1472
 total energy-change (2. order) :-0.3422829E+01  (-0.1467200E+03)
 number of electron       4.0000000 magnetization 
 augmentation part        4.0000000 magnetization 

 Free energy of the ion-electron system (eV)
  ---------------------------------------------------
  alpha Z        PSCENC =         2.39057823
  Ewald energy   TEWEN  =      -137.78496289
  -Hartree energ DENC   =        -0.54229904
  -exchange      EXHF   =         0.00000000
  -V(xc)+E(xc)   XCENC  =        -8.73348015
  PAW double counting   =        88.12379961      -70.53051779
  entropy T*S    EENTRO =        -0.00032336
  eigenvalues    EBANDS =        20.58874890
  atomic energy  EATOM  =       103.06562707
  Solvation  Ediel_sol  =         0.00000000
  ---------------------------------------------------
  free energy    TOTEN  =        -3.42282942 eV

  energy without entropy =       -3.42250606  energy(sigma->0) =       -3.42266774


--------------------------------------------------------------------------------------------------------




--------------------------------------- Iteration      1(   2)  ---------------------------------------


     EDDAV:  cpu time    0.5569: real time    0.5651
       DOS:  cpu time    0.0010: real time    0.0014
    --------------------------------------------
      LOOP:  cpu time    0.5589: real time    0.5665

 eigenvalue-minimisations  :  2016
 total energy-change (2. order) :-0.1475870E+01  (-0.1407498E+01)
 number of electron       4.0000000 magnetization 
 augmentation part        4.0000000 magnetization 

 Free energy of the ion-electron system (eV)
  ---------------------------------------------------
  alpha Z        PSCENC =         2.39057823
  Ewald energy   TEWEN  =      -137.78496289
  -Hartree energ DENC   =        -0.54229904
  -exchange      EXHF   =         0.00000000
  -V(xc)+E(xc)   XCENC  =        -8.73348015
  PAW double counting   =        88.12379961      -70.53051779
  entropy T*S    EENTRO =        -0.00087799
  eigenvalues    EBANDS =        19.11343372
  atomic energy  EATOM  =       103.06562707
  Solvation  Ediel_sol  =         0.00000000
  ---------------------------------------------------
  free energy    TOTEN  =        -4.89869922 eV

  energy without entropy =       -4.89782124  energy(sigma->0) =       -4.89826023


--------------------------------------------------------------------------------------------------------




--------------------------------------- Iteration      1(   3)  ---------------------------------------


     EDDAV:  cpu time    0.4299: real time    0.4399
       DOS:  cpu time    0.0020: real time    0.0016
    --------------------------------------------
      LOOP:  cpu time    0.4309: real time    0.4415

 eigenvalue-minimisations  :  1528
 total energy-change (2. order) :-0.5804139E-02  (-0.5802389E-02)
 number of electron       4.0000000 magnetization 
 augmentation part        4.0000000 magnetization 

 Free energy of the ion-electron system (eV)
  ---------------------------------------------------
  alpha Z        PSCENC =         2.39057823
  Ewald energy   TEWEN  =      -137.78496289
  -Hartree energ DENC   =        -0.54229904
  -exchange      EXHF   =         0.00000000
  -V(xc)+E(xc)   XCENC  =        -8.73348015
  PAW double counting   =        88.12379961      -70.53051779
  entropy T*S    EENTRO =        -0.00090604
  eigenvalues    EBANDS =        19.10765764
  atomic energy  EATOM  =       103.06562707
  Solvation  Ediel_sol  =         0.00000000
  ---------------------------------------------------
  free energy    TOTEN  =        -4.90450336 eV

  energy without entropy =       -4.90359732  energy(sigma->0) =       -4.90405034


--------------------------------------------------------------------------------------------------------




--------------------------------------- Iteration      1(   4)  ---------------------------------------


     EDDAV:  cpu time    0.6199: real time    0.6333
       DOS:  cpu time    0.0010: real time    0.0016
    --------------------------------------------
      LOOP:  cpu time    0.6209: real time    0.6351

 eigenvalue-minimisations  :  2200
 total energy-change (2. order) :-0.4596378E-05  (-0.4596723E-05)
 number of electron       4.0000000 magnetization 
 augmentation part        4.0000000 magnetization 

 Free energy of the ion-electron system (eV)
  ---------------------------------------------------
  alpha Z        PSCENC =         2.39057823
  Ewald energy   TEWEN  =      -137.78496289
  -Hartree energ DENC   =        -0.54229904
  -exchange      EXHF   =         0.00000000
  -V(xc)+E(xc)   XCENC  =        -8.73348015
  PAW double counting   =        88.12379961      -70.53051779
  entropy T*S    EENTRO =        -0.00090607
  eigenvalues    EBANDS =        19.10765307
  atomic energy  EATOM  =       103.06562707
  Solvation  Ediel_sol  =         0.00000000
  ---------------------------------------------------
  free energy    TOTEN  =        -4.90450796 eV

  energy without entropy =       -4.90360189  energy(sigma->0) =       -4.90405492


--------------------------------------------------------------------------------------------------------




--------------------------------------- Iteration      1(   5)  ---------------------------------------


     EDDAV:  cpu time    0.4229: real time    0.4339
       DOS:  cpu time    0.0010: real time    0.0015
    CHARGE:  cpu time    0.0320: real time    0.0314
    MIXING:  cpu time    0.0000: real time    0.0008
    --------------------------------------------
      LOOP:  cpu time    0.4569: real time    0.4673

 eigenvalue-minimisations  :  1512
 total energy-change (2. order) :-0.1901540E-08  (-0.1559886E-08)
 number of electron       4.0000000 magnetization 
 augmentation part       -0.2402697 magnetization 

 Broyden mixing:
  rms(total) = 0.28032E+00    rms(broyden)= 0.28032E+00
  rms(prec ) = 0.41780E+00
  weight for this iteration     100.00

 Free energy of the ion-electron system (eV)
  ---------------------------------------------------
  alpha Z        PSCENC =         2.39057823
  Ewald energy   TEWEN  =      -137.78496289
  -Hartree energ DENC   =        -0.54229904
  -exchange      EXHF   =         0.00000000
  -V(xc)+E(xc)   XCENC  =        -8.73348015
  PAW double counting   =        88.12379961      -70.53051779
  entropy T*S    EENTRO =        -0.00090607
  eigenvalues    EBANDS =        19.10765307
  atomic energy  EATOM  =       103.06562707
  Solvation  Ediel_sol  =         0.00000000
  ---------------------------------------------------
  free energy    TOTEN  =        -4.90450796 eV

  energy without entropy =       -4.90360189  energy(sigma->0) =       -4.90405492


--------------------------------------------------------------------------------------------------------




--------------------------------------- Iteration      1(   6)  ---------------------------------------


    POTLOK:  cpu time    0.0170: real time    0.0295
    SETDIJ:  cpu time    0.1660: real time    0.1666
     EDDAV:  cpu time    0.4599: real time    0.4602
       DOS:  cpu time    0.0010: real time    0.0015
    CHARGE:  cpu time    0.0300: real time    0.0301
    MIXING:  cpu time    0.0010: real time    0.0009
    --------------------------------------------
      LOOP:  cpu time    0.6749: real time    0.6888

 eigenvalue-minimisations  :  1584
 total energy-change (2. order) : 0.1345402E-01  (-0.3880876E-03)
 number of electron       4.0000000 magnetization 
 augmentation part       -0.2424494 magnetization 

 Broyden mixing:
  rms(total) = 0.15499E+00    rms(broyden)= 0.15499E+00
  rms(prec ) = 0.24175E+00
  weight for this iteration     100.00

 eigenvalues of (default mixing * dielectric matrix)
  average eigenvalue GAMMA=   2.2258
  2.2258

 Free energy of the ion-electron system (eV)
  ---------------------------------------------------
  alpha Z        PSCENC =         2.39057823
  Ewald energy   TEWEN  =      -137.78496289
  -Hartree energ DENC   =        -0.47492745
  -exchange      EXHF   =         0.00000000
  -V(xc)+E(xc)   XCENC  =        -8.71150976
  PAW double counting   =       172.33147172     -154.73867588
  entropy T*S    EENTRO =        -0.00089561
  eigenvalues    EBANDS =        19.03224063
  atomic energy  EATOM  =       103.06562707
  Solvation  Ediel_sol  =         0.00000000
  ---------------------------------------------------
  free energy    TOTEN  =        -4.89105394 eV

  energy without entropy =       -4.89015833  energy(sigma->0) =       -4.89060613


--------------------------------------------------------------------------------------------------------




--------------------------------------- Iteration      1(   7)  ---------------------------------------


    POTLOK:  cpu time    0.0160: real time    0.0244
    SETDIJ:  cpu time    0.1650: real time    0.1662
     EDDAV:  cpu time    0.4749: real time    0.4752
       DOS:  cpu time    0.0010: real time    0.0018
    CHARGE:  cpu time    0.0300: real time    0.0300
    MIXING:  cpu time    0.0010: real time    0.0008
    --------------------------------------------
      LOOP:  cpu time    0.6869: real time    0.6984

 eigenvalue-minimisations  :  1560
 total energy-change (2. order) : 0.7768235E-02  (-0.7901813E-03)
 number of electron       4.0000000 magnetization 
 augmentation part       -0.2456127 magnetization 

 Broyden mixing:
  rms(total) = 0.13512E-01    rms(broyden)= 0.13512E-01
  rms(prec ) = 0.18230E-01
  weight for this iteration     100.00

 eigenvalues of (default mixing * dielectric matrix)
  average eigenvalue GAMMA=   2.3846
  2.3846  2.3846

 Free energy of the ion-electron system (eV)
  ---------------------------------------------------
  alpha Z        PSCENC =         2.39057823
  Ewald energy   TEWEN  =      -137.78496289
  -Hartree energ DENC   =        -0.40877167
  -exchange      EXHF   =         0.00000000
  -V(xc)+E(xc)   XCENC  =        -8.67504012
  PAW double counting   =       334.38696359     -316.79899097
  entropy T*S    EENTRO =        -0.00088244
  eigenvalues    EBANDS =        18.94219349
  atomic energy  EATOM  =       103.06562707
  Solvation  Ediel_sol  =         0.00000000
  ---------------------------------------------------
  free energy    TOTEN  =        -4.88328570 eV

  energy without entropy =       -4.88240326  energy(sigma->0) =       -4.88284448


--------------------------------------------------------------------------------------------------------




--------------------------------------- Iteration      1(   8)  ---------------------------------------


    POTLOK:  cpu time    0.0150: real time    0.0267
    SETDIJ:  cpu time    0.1660: real time    0.1654
     EDDAV:  cpu time    0.5499: real time    0.5513
       DOS:  cpu time    0.0010: real time    0.0017
    CHARGE:  cpu time    0.0300: real time    0.0297
    MIXING:  cpu time    0.0000: real time    0.0009
    --------------------------------------------
      LOOP:  cpu time    0.7629: real time    0.7759

 eigenvalue-minimisations  :  1992
 total energy-change (2. order) : 0.3813591E-04  (-0.2556583E-05)
 number of electron       4.0000000 magnetization 
 augmentation part       -0.2456986 magnetization 

 Broyden mixing:
  rms(total) = 0.15196E-02    rms(broyden)= 0.15196E-02
  rms(prec ) = 0.23203E-02
  weight for this iteration     100.00

 eigenvalues of (default mixing * dielectric matrix)
  average eigenvalue GAMMA=   2.0150
  1.0061  2.4155  2.6233

 Free energy of the ion-electron system (eV)
  ---------------------------------------------------
  alpha Z        PSCENC =         2.39057823
  Ewald energy   TEWEN  =      -137.78496289
  -Hartree energ DENC   =        -0.41132848
  -exchange      EXHF   =         0.00000000
  -V(xc)+E(xc)   XCENC  =        -8.67101209
  PAW double counting   =       319.54563674     -301.96416575
  entropy T*S    EENTRO =        -0.00088305
  eigenvalues    EBANDS =        18.94726265
  atomic energy  EATOM  =       103.06562707
  Solvation  Ediel_sol  =         0.00000000
  ---------------------------------------------------
  free energy    TOTEN  =        -4.88324757 eV

  energy without entropy =       -4.88236452  energy(sigma->0) =       -4.88280604


--------------------------------------------------------------------------------------------------------




--------------------------------------- Iteration      1(   9)  ---------------------------------------


    POTLOK:  cpu time    0.0150: real time    0.0320
    SETDIJ:  cpu time    0.1670: real time    0.1663
     EDDAV:  cpu time    0.4759: real time    0.5018
       DOS:  cpu time    0.0010: real time    0.0016
    --------------------------------------------
      LOOP:  cpu time    0.6589: real time    0.7016

 eigenvalue-minimisations  :  1696
 total energy-change (2. order) :-0.3396462E-06  (-0.3307459E-07)
 number of electron       4.0000000 magnetization 
 augmentation part       -0.2456986 magnetization 

 Free energy of the ion-electron system (eV)
  ---------------------------------------------------
  alpha Z        PSCENC =         2.39057823
  Ewald energy   TEWEN  =      -137.78496289
  -Hartree energ DENC   =        -0.41157708
  -exchange      EXHF   =         0.00000000
  -V(xc)+E(xc)   XCENC  =        -8.67043700
  PAW double counting   =       317.67309167     -300.09231690
  entropy T*S    EENTRO =        -0.00088309
  eigenvalues    EBANDS =        18.94763209
  atomic energy  EATOM  =       103.06562707
  Solvation  Ediel_sol  =         0.00000000
  ---------------------------------------------------
  free energy    TOTEN  =        -4.88324791 eV

  energy without entropy =       -4.88236482  energy(sigma->0) =       -4.88280636


--------------------------------------------------------------------------------------------------------




 average (electrostatic) potential at core
  the test charge radii are     0.9892
  (the norm of the test charge is              1.0000)
       1 -79.5429
 
 
 
 E-fermi :  10.5644     XC(G=0): -11.3052     alpha+bet :-17.0325

 Fermi energy:        10.5644053095

 k-point     1 :       0.0000    0.0000    0.0000
  band No.  band energies     occupation 
      1      -4.1741      2.00000
      2      22.0087      0.00000
      3      22.0087      0.00000
      4      22.0087      0.00000
      5      22.5987      0.00000
      6      22.5987      0.00000
      7      22.5987      0.00000
      8      27.9746      0.00000

 k-point     2 :       0.0769    0.0000    0.0000
  band No.  band energies     occupation 
      1      -3.9985      2.00000
      2      19.2810      0.00000
      3      21.1230      0.00000
      4      21.1230      0.00000
      5      23.6953      0.00000
      6      23.6953      0.00000
      7      23.8524      0.00000
      8      28.7878      0.00000

 k-point     3 :       0.1538    0.0000    0.0000
  band No.  band energies     occupation 
      1      -3.4728      2.00000
      2      15.9261      0.00000
      3      20.2664      0.00000
      4      20.2664      0.00000
      5      24.0430      0.00000
      6      24.8754      0.00000
      7      24.8754      0.00000
      8      27.6870      0.00000

 k-point     4 :       0.2308    0.0000    0.0000
  band No.  band energies     occupation 
      1      -2.5996      2.00000
      2      12.6511      0.00000
      3      19.6811      0.00000
      4      19.6811      0.00000
      5      23.9304      0.00000
      6      24.4749      0.00000
      7      24.4749      0.00000
      8      28.4433      0.00000

 k-point     5 :       0.3077    0.0000    0.0000
  band No.  band energies     occupation 
      1      -1.3841      2.00000
      2       9.5878      2.00000
      3      19.3661      0.00000
      4      19.3661      0.00000
      5      23.2575      0.00000
      6      23.2575      0.00000
      7      23.8729      0.00000
      8      28.5153      0.00000

 k-point     6 :       0.3846    0.0000    0.0000
  band No.  band energies     occupation 
      1       0.1661      2.00000
      2       6.7904      2.00000
      3      19.2848      0.00000
      4      19.2848      0.00000
      5      22.2035      0.00000
      6      22.2035      0.00000
      7      23.9602      0.00000
      8      27.3202      0.00000

 k-point     7 :       0.4615    0.0000    0.0000
  band No.  band energies     occupation 
      1       2.0272      2.00000
      2       4.3014      2.00000
      3      19.3334      0.00000
      4      19.3334      0.00000
      5      21.5681      0.00000
      6      21.5681      0.00000
      7      24.1144      0.00000
      8      26.5849      0.00000

 k-point     8 :       0.0769    0.0769    0.0000
  band No.  band energies     occupation 
      1      -3.9401      2.00000
      2      19.9211      0.00000
      3      19.9211      0.00000
      4      21.4092      0.00000
      5      21.4786      0.00000
      6      24.9729      0.00000
      7      24.9729      0.00000
      8      27.3209      0.00000

 k-point     9 :       0.1538    0.0769    0.0000
  band No.  band energies     occupation 
      1      -3.5311      2.00000
      2      17.1378      0.00000
      3      18.9714      0.00000
      4      20.6705      0.00000
      5      22.2415      0.00000
      6      25.5273      0.00000
      7      25.7898      0.00000
      8      26.2958      0.00000

 k-point    10 :       0.2308    0.0769    0.0000
  band No.  band energies     occupation 
      1      -2.7738      2.00000
      2      13.8514      0.00000
      3      18.3097      0.00000
      4      19.9815      0.00000
      5      22.5310      0.00000
      6      24.9883      0.00000
      7      26.1323      0.00000
      8      26.4827      0.00000

 k-point    11 :       0.3077    0.0769    0.0000
  band No.  band energies     occupation 
      1      -1.6725      2.00000
      2      10.7207      0.00001
      3      17.9427      0.00000
      4      19.4204      0.00000
      5      21.4979      0.00000
      6      25.2266      0.00000
      7      25.3608      0.00000
      8      27.5758      0.00000

 k-point    12 :       0.3846    0.0769    0.0000
  band No.  band energies     occupation 
      1      -0.2338      2.00000
      2       7.8358      2.00000
      3      17.8705      0.00000
      4      18.8154      0.00000
      5      20.7687      0.00000
      6      24.1727      0.00000
      7      25.2828      0.00000
      8      28.7841      0.00000

 k-point    13 :       0.4615    0.0769    0.0000
  band No.  band energies     occupation 
      1       1.5291      2.00000
      2       5.2394      2.00000
      3      18.0838      0.00000
      4      18.0901      0.00000
      5      20.7091      0.00000
      6      23.2070      0.00000
      7      25.3129      0.00000
      8      28.1714      0.00000

 k-point    14 :      -0.4615    0.0769    0.0000
  band No.  band energies     occupation 
      1       2.8203      2.00000
      2       3.7387      2.00000
      3      17.4534      0.00000
      4      18.5613      0.00000
      5      21.1570      0.00000
      6      22.5463      0.00000
      7      25.2078      0.00000
      8      28.0769      0.00000

 k-point    15 :      -0.3846    0.0769    0.0000
  band No.  band energies     occupation 
      1       0.9072      2.00000
      2       6.0698      2.00000
      3      17.0463      0.00000
      4      19.2530      0.00000
      5      21.9808      0.00000
      6      22.2627      0.00000
      7      24.9955      0.00000
      8      28.6125      0.00000

 k-point    16 :      -0.3077    0.0769    0.0000
  band No.  band energies     occupation 
      1      -0.7503      2.00000
      2       8.7663      2.00000
      3      16.9177      0.00000
      4      20.0448      0.00000
      5      22.4539      0.00000
      6      23.1116      0.00000
      7      24.8326      0.00000
      8      29.4885      0.00000

 k-point    17 :      -0.2308    0.0769    0.0000
  band No.  band energies     occupation 
      1      -2.0775      2.00000
      2      11.7371      0.00000
      3      17.0851      0.00000
      4      20.7924      0.00000
      5      23.1802      0.00000
      6      24.4668      0.00000
      7      24.7850      0.00000
      8      27.4785      0.00000

 k-point    18 :      -0.1538    0.0769    0.0000
  band No.  band energies     occupation 
      1      -3.0648      2.00000
      2      14.9288      0.00000
      3      17.5547      0.00000
      4      21.5145      0.00000
      5      23.8223      0.00000
      6      24.7393      0.00000
      7      25.7044      0.00000
      8      26.1320      0.00000

 k-point    19 :      -0.0769    0.0769    0.0000
  band No.  band energies     occupation 
      1      -3.7063      2.00000
      2      18.0776      0.00000
      3      18.4680      0.00000
      4      22.1088      0.00000
      5      23.0470      0.00000
      6      24.3713      0.00000
      7      25.3987      0.00000
      8      27.1135      0.00000

 k-point    20 :       0.1538    0.1538    0.0000
  band No.  band energies     occupation 
      1      -3.2394      2.00000
      2      17.9221      0.00000
      3      17.9221      0.00000
      4      19.4490      0.00000
      5      20.0822      0.00000
      6      23.4166      0.00000
      7      27.7966      0.00000
      8      27.7966      0.00000

 k-point    21 :       0.2308    0.1538    0.0000
  band No.  band energies     occupation 
      1      -2.5992      2.00000
      2      15.2816      0.00000
      3      17.1631      0.00000
      4      18.9388      0.00000
      5      20.0472      0.00000
      6      22.3192      0.00000
      7      28.5834      0.00000
      8      28.6182      0.00000

 k-point    22 :       0.3077    0.1538    0.0000
  band No.  band energies     occupation 
      1      -1.6142      2.00000
      2      12.1463      0.00000
      3      16.7034      0.00000
      4      17.9085      0.00000
      5      19.5639      0.00000
      6      23.6133      0.00000
      7      27.7971      0.00000
      8      28.7428      0.00000

 k-point    23 :       0.3846    0.1538    0.0000
  band No.  band energies     occupation 
      1      -0.2899      2.00000
      2       9.1960      2.00000
      3      16.5447      0.00000
      4      16.6990      0.00000
      5      19.2370      0.00000
      6      25.6416      0.00000
      7      26.6180      0.00000
      8      28.9082      0.00000

 k-point    24 :       0.4615    0.1538    0.0000
  band No.  band energies     occupation 
      1       1.3641      2.00000
      2       6.5101      2.00000
      3      15.5978      0.00000
      4      16.6858      0.00000
      5      19.3350      0.00000
      6      25.5799      0.00000
      7      27.0709      0.00000
      8      29.8295      0.00000

 k-point    25 :      -0.4615    0.1538    0.0000
  band No.  band energies     occupation 
      1       3.2768      2.00000
      2       4.1810      2.00000
      3      14.7419      0.00000
      4      17.1216      0.00000
      5      19.7980      0.00000
      6      24.7900      0.00000
      7      27.2175      0.00000
      8      31.3060      0.00000

 k-point    26 :      -0.3846    0.1538    0.0000
  band No.  band energies     occupation 
      1       1.9849      2.00000
      2       5.6791      2.00000
      3      14.1800      0.00000
      4      17.8420      0.00000
      5      20.5948      0.00000
      6      24.2954      0.00000
      7      26.9440      0.00000
      8      31.6481      0.00000

 k-point    27 :      -0.3077    0.1538    0.0000
  band No.  band energies     occupation 
      1       0.2254      2.00000
      2       8.2611      2.00000
      3      13.9302      0.00000
      4      18.8250      0.00000
      5      21.7001      0.00000
      6      24.1230      0.00000
      7      26.6387      0.00000
      8      29.2919      0.00000

 k-point    28 :      -0.2308    0.1538    0.0000
  band No.  band energies     occupation 
      1      -1.2103      2.00000
      2      11.1070      0.00000
      3      14.0125      0.00000
      4      20.0155      0.00000
      5      23.0699      0.00000
      6      24.2883      0.00000
      7      26.3244      0.00000
      8      26.8317      0.00000

 k-point    29 :      -0.1538    0.1538    0.0000
  band No.  band energies     occupation 
      1      -2.3092      2.00000
      2      13.8856      0.00000
      3      14.7079      0.00000
      4      21.2386      0.00000
      5      24.3963      0.00000
      6      24.5881      0.00000
      7      25.2451      0.00000
      8      25.7567      0.00000

 k-point    30 :       0.2308    0.2308    0.0000
  band No.  band energies     occupation 
      1      -2.0768      2.00000
      2      16.3041      0.00000
      3      16.3041      0.00000
      4      17.5434      0.00000
      5      17.6992      0.00000
      6      20.4212      0.00000
      7      30.6105      0.00000
      8      30.6105      0.00000

 k-point    31 :       0.3077    0.2308    0.0000
  band No.  band energies     occupation 
      1      -1.2094      2.00000
      2      13.7989      0.00000
      3      15.7437      0.00000
      4      15.9310      0.00000
      5      18.0066      0.00000
      6      20.5479      0.00000
      7      30.3818      0.00000
      8      31.3909      0.00000

 k-point    32 :       0.3846    0.2308    0.0000
  band No.  band energies     occupation 
      1      -0.0020      2.00000
      2      10.8469      0.00000
      3      14.3965      0.00000
      4      15.4870      0.00000
      5      17.9850      0.00000
      6      22.4800      0.00000
      7      29.3109      0.00000
      8      31.4189      0.00000

 k-point    33 :       0.4615    0.2308    0.0000
  band No.  band energies     occupation 
      1       1.5374      2.00000
      2       8.0959      2.00000
      3      13.1000      0.00000
      4      15.5336      0.00000
      5      18.0837      0.00000
      6      24.9462      0.00000
      7      28.2533      0.00000
      8      31.0855      0.00000

 k-point    34 :      -0.4615    0.2308    0.0000
  band No.  band energies     occupation 
      1       3.3871      2.00000
      2       5.6298      2.00000
      3      12.0972      0.00000
      4      15.8816      0.00000
      5      18.4852      0.00000
      6      27.3950      0.00000
      7      27.4395      0.00000
      8      30.7070      0.00000

 k-point    35 :      -0.3846    0.2308    0.0000
  band No.  band energies     occupation 
      1       3.3896      2.00000
      2       5.6196      2.00000
      3      11.4125      0.00000
      4      16.5269      0.00000
      5      19.2072      0.00000
      6      26.8004      0.00000
      7      28.8432      0.00000
      8      31.1084      0.00000

 k-point    36 :      -0.3077    0.2308    0.0000
  band No.  band energies     occupation 
      1       1.5374      2.00000
      2       8.0544      2.00000
      3      11.0753      0.00000
      4      17.4600      0.00000
      5      20.2406      0.00000
      6      26.4965      0.00000
      7      28.5922      0.00000
      8      29.1408      0.00000

 k-point    37 :      -0.2308    0.2308    0.0000
  band No.  band energies     occupation 
      1      -0.0028      2.00000
      2      10.4167      1.99997
      3      11.4278      0.00000
      4      18.6551      0.00000
      5      21.5553      0.00000
      6      26.4193      0.00000
      7      26.6170      0.00000
      8      27.7220      0.00000

 k-point    38 :       0.3077    0.3077    0.0000
  band No.  band energies     occupation 
      1      -0.4606      2.00000
      2      13.9430      0.00000
      3      15.0828      0.00000
      4      15.0828      0.00000
      5      16.3323      0.00000
      6      18.8864      0.00000
      7      32.7368      0.00000
      8      33.1933      0.00000

 k-point    39 :       0.3846    0.3077    0.0000
  band No.  band energies     occupation 
      1       0.6280      2.00000
      2      12.1695      0.00000
      3      12.8224      0.00000
      4      14.7257      0.00000
      5      16.8517      0.00000
      6      19.4846      0.00000
      7      32.0899      0.00000
      8      33.8166      0.00000

 k-point    40 :       0.4615    0.3077    0.0000
  band No.  band energies     occupation 
      1       2.0484      2.00000
      2       9.9334      2.00000
      3      10.8600      0.00000
      4      14.6729      0.00000
      5      17.0746      0.00000
      6      21.7077      0.00000
      7      31.1081      0.00000
      8      33.5343      0.00000

 k-point    41 :      -0.4615    0.3077    0.0000
  band No.  band energies     occupation 
      1       3.7853      2.00000
      2       7.4224      2.00000
      3       9.7003      2.00000
      4      14.9241      0.00000
      5      17.4198      0.00000
      6      24.4429      0.00000
      7      30.2174      0.00000
      8      32.7757      0.00000

 k-point    42 :      -0.3846    0.3077    0.0000
  band No.  band energies     occupation 
      1       5.0879      2.00000
      2       5.8894      2.00000
      3       8.9146      2.00000
      4      15.4771      0.00000
      5      18.0571      0.00000
      6      27.3342      0.00000
      7      29.5299      0.00000
      8      31.7343      0.00000

 k-point    43 :      -0.3077    0.3077    0.0000
  band No.  band energies     occupation 
      1       3.1765      2.00000
      2       7.7897      2.00000
      3       8.8471      2.00000
      4      16.3270      0.00000
      5      19.0035      0.00000
      6      28.8381      0.00000
      7      29.6326      0.00000
      8      29.9918      0.00000

 k-point    44 :       0.3846    0.3846    0.0000
  band No.  band energies     occupation 
      1       1.5954      2.00000
      2      10.3535      2.00000
      3      14.2670      0.00000
      4      14.2670      0.00000
      5      15.4143      0.00000
      6      18.0004      0.00000
      7      34.2188      0.00000
      8      35.4122      0.00000

 k-point    45 :       0.4615    0.3846    0.0000
  band No.  band energies     occupation 
      1       2.8913      2.00000
      2       8.7804      2.00000
      3      12.1251      0.00000
      4      14.1136      0.00000
      5      16.1739      0.00000
      6      18.8581      0.00000
      7      33.8523      0.00000
      8      35.7292      0.00000

 k-point    46 :      -0.4615    0.3846    0.0000
  band No.  band energies     occupation 
      1       4.4878      2.00000
      2       7.5355      2.00000
      3       9.5880      2.00000
      4      14.2650      0.00000
      5      16.6246      0.00000
      6      21.3142      0.00000
      7      33.0234      0.00000
      8      34.9765      0.00000

 k-point    47 :      -0.3846    0.3846    0.0000
  band No.  band energies     occupation 
      1       6.0335      2.00000
      2       6.7893      2.00000
      3       7.4678      2.00000
      4      14.7206      0.00000
      5      17.1987      0.00000
      6      24.2676      0.00000
      7      31.9469      0.00000
      8      33.2198      0.00000

 k-point    48 :       0.4615    0.4615    0.0000
  band No.  band energies     occupation 
      1       4.0430      2.00000
      2       7.1103      2.00000
      3      13.8586      0.00000
      4      13.8586      0.00000
      5      14.9523      0.00000
      6      17.5640      0.00000
      7      35.3707      0.00000
      8      36.9475      0.00000

 k-point    49 :      -0.4615    0.4615    0.0000
  band No.  band energies     occupation 
      1       5.1547      2.00000
      2       6.1193      2.00000
      3      11.9069      0.00000
      4      13.9093      0.00000
      5      15.9482      0.00000
      6      18.6490      0.00000
      7      34.9558      0.00000
      8      36.5477      0.00000

 k-point    50 :       0.2308    0.1538    0.0769
  band No.  band energies     occupation 
      1      -3.0064      2.00000
      2      16.0039      0.00000
      3      16.5833      0.00000
      4      21.0312      0.00000
      5      21.7225      0.00000
      6      24.0294      0.00000
      7      26.8774      0.00000
      8      26.9706      0.00000

 k-point    51 :       0.3077    0.1538    0.0769
  band No.  band energies     occupation 
      1      -2.1352      2.00000
      2      13.0316      0.00000
      3      15.7875      0.00000
      4      19.9848      0.00000
      5      21.9252      0.00000
      6      24.3263      0.00000
      7      26.2624      0.00000
      8      27.3488      0.00000

 k-point    52 :       0.3846    0.1538    0.0769
  band No.  band energies     occupation 
      1      -0.9223      2.00000
      2      10.0074      2.00000
      3      15.5079      0.00000
      4      18.7228      0.00000
      5      21.5691      0.00000
      6      24.6565      0.00000
      7      26.2816      0.00000
      8      27.8752      0.00000

 k-point    53 :       0.4615    0.1538    0.0769
  band No.  band energies     occupation 
      1       0.6246      2.00000
      2       7.2264      2.00000
      3      15.5381      0.00000
      4      17.5728      0.00000
      5      21.5077      0.00000
      6      23.6165      0.00000
      7      26.9056      0.00000
      8      29.6464      0.00000

 k-point    54 :      -0.4615    0.1538    0.0769
  band No.  band energies     occupation 
      1       2.4827      2.00000
      2       4.7452      2.00000
      3      15.8240      0.00000
      4      16.7067      0.00000
      5      21.6877      0.00000
      6      22.8346      0.00000
      7      27.0944      0.00000
      8      30.3638      0.00000

 k-point    55 :       0.3077    0.2308    0.0769
  band No.  band energies     occupation 
      1      -1.8453      2.00000
      2      14.3034      0.00000
      3      14.9676      0.00000
      4      18.0198      0.00000
      5      20.0967      0.00000
      6      21.7276      0.00000
      7      28.4801      0.00000
      8      29.9782      0.00000

 k-point    56 :       0.3846    0.2308    0.0769
  band No.  band energies     occupation 
      1      -0.7489      2.00000
      2      11.5270      0.00000
      3      14.3314      0.00000
      4      16.4766      0.00000
      5      20.3492      0.00000
      6      23.0950      0.00000
      7      27.4143      0.00000
      8      30.4869      0.00000

 k-point    57 :       0.4615    0.2308    0.0769
  band No.  band energies     occupation 
      1       0.6835      2.00000
      2       8.6946      2.00000
      3      14.2031      0.00000
      4      15.1610      0.00000
      5      20.3612      0.00000
      6      25.1462      0.00000
      7      26.5132      0.00000
      8      30.5697      0.00000

 k-point    58 :      -0.4615    0.2308    0.0769
  band No.  band energies     occupation 
      1       2.4387      2.00000
      2       6.1209      2.00000
      3      13.8407      0.00000
      4      14.6843      0.00000
      5      20.6269      0.00000
      6      25.0445      0.00000
      7      27.9958      0.00000
      8      30.6019      0.00000

 k-point    59 :      -0.3846    0.2308    0.0769
  band No.  band energies     occupation 
      1       3.7324      2.00000
      2       4.6194      2.00000
      3      13.1257      0.00000
      4      15.1799      0.00000
      5      21.1792      0.00000
      6      24.3892      0.00000
      7      29.1269      0.00000
      8      30.9964      0.00000

 k-point    60 :      -0.3077    0.2308    0.0769
  band No.  band energies     occupation 
      1       1.8196      2.00000
      2       6.9390      2.00000
      3      12.6717      0.00000
      4      16.0410      0.00000
      5      21.9946      0.00000
      6      24.0052      0.00000
      7      28.3863      0.00000
      8      30.0825      0.00000

 k-point    61 :      -0.2308    0.2308    0.0769
  band No.  band energies     occupation 
      1       0.1690      2.00000
      2       9.5859      2.00000
      3      12.5500      0.00000
      4      17.2005      0.00000
      5      22.9383      0.00000
      6      23.9705      0.00000
      7      26.3629      0.00000
      8      29.3801      0.00000

 k-point    62 :      -0.1538    0.2308    0.0769
  band No.  band energies     occupation 
      1      -1.1524      2.00000
      2      12.1579      0.00000
      3      13.0792      0.00000
      4      18.6066      0.00000
      5      23.4210      0.00000
      6      23.7663      0.00000
      7      25.3338      0.00000
      8      28.6473      0.00000

 k-point    63 :       0.3846    0.3077    0.0769
  band No.  band energies     occupation 
      1      -0.2311      2.00000
      2      13.0150      0.00000
      3      13.5864      0.00000
      4      14.4105      0.00000
      5      18.8214      0.00000
      6      20.4392      0.00000
      7      30.0415      0.00000
      8      32.8851      0.00000

 k-point    64 :       0.4615    0.3077    0.0769
  band No.  band energies     occupation 
      1       1.0837      2.00000
      2      10.4338      1.99978
      3      12.5982      0.00000
      4      13.4533      0.00000
      5      19.2903      0.00000
      6      22.1705      0.00000
      7      29.0068      0.00000
      8      33.2253      0.00000

 k-point    65 :      -0.4615    0.3077    0.0769
  band No.  band energies     occupation 
      1       2.7247      2.00000
      2       7.8102      2.00000
      3      11.4435      0.00000
      4      13.5126      0.00000
      5      19.5445      0.00000
      6      24.7127      0.00000
      7      28.0612      0.00000
      8      32.6774      0.00000

 k-point    66 :      -0.3846    0.3077    0.0769
  band No.  band energies     occupation 
      1       4.6308      2.00000
      2       5.4953      2.00000
      3      10.5476      1.36617
      4      13.9668      0.00000
      5      20.0454      0.00000
[...]
      1       4.9400      2.00000
      2       5.7903      2.00000
      3      11.5618      0.00000
      4      13.4955      0.00000
      5      15.5906      0.00000
      6      18.1526      0.00000
      7      34.2658      0.00000
      8      35.8338      0.00000

 k-point    50 :       0.2308    0.1538    0.0769
  band No.  band energies     occupation 
      1      -3.1272      2.00000
      2      15.6040      0.00000
      3      16.1053      0.00000
      4      20.4000      0.00000
      5      21.2717      0.00000
      6      23.5607      0.00000
      7      26.2801      0.00000
      8      26.3633      0.00000

 k-point    51 :       0.3077    0.1538    0.0769
  band No.  band energies     occupation 
      1      -2.2707      2.00000
      2      12.6606      0.00000
      3      15.3425      0.00000
      4      19.4165      0.00000
      5      21.4792      0.00000
      6      23.7858      0.00000
      7      25.6997      0.00000
      8      26.7532      0.00000

 k-point    52 :       0.3846    0.1538    0.0769
  band No.  band energies     occupation 
      1      -1.0785      2.00000
      2       9.6830      2.00000
      3      15.0669      0.00000
      4      18.2073      0.00000
      5      21.1104      0.00000
      6      24.1077      0.00000
      7      25.6947      0.00000
      8      27.2916      0.00000

 k-point    53 :       0.4615    0.1538    0.0769
  band No.  band energies     occupation 
      1       0.4415      2.00000
      2       6.9473      2.00000
      3      15.0909      0.00000
      4      17.0986      0.00000
      5      21.0296      0.00000
      6      23.1045      0.00000
      7      26.2740      0.00000
      8      29.0488      0.00000

 k-point    54 :      -0.4615    0.1538    0.0769
  band No.  band energies     occupation 
      1       2.2613      2.00000
      2       4.5137      2.00000
      3      15.3544      0.00000
      4      16.2710      0.00000
      5      21.1868      0.00000
      6      22.3512      0.00000
      7      26.4482      0.00000
      8      29.8079      0.00000

 k-point    55 :       0.3077    0.2308    0.0769
  band No.  band energies     occupation 
      1      -1.9856      2.00000
      2      13.9342      0.00000
      3      14.5105      0.00000
      4      17.5115      0.00000
      5      19.6693      0.00000
      6      21.2287      0.00000
      7      27.8670      0.00000
      8      29.3254      0.00000

 k-point    56 :       0.3846    0.2308    0.0769
  band No.  band energies     occupation 
      1      -0.9077      2.00000
      2      11.1805      0.00000
      3      13.9031      0.00000
      4      16.0278      0.00000
      5      19.9008      0.00000
      6      22.5552      0.00000
      7      26.8326      0.00000
      8      29.8278      0.00000

 k-point    57 :       0.4615    0.2308    0.0769
  band No.  band energies     occupation 
      1       0.5003      2.00000
      2       8.3914      2.00000
      3      13.7632      0.00000
      4      14.7602      0.00000
      5      19.8978      0.00000
      6      24.5673      0.00000
      7      25.9570      0.00000
      8      29.9035      0.00000

 k-point    58 :      -0.4615    0.2308    0.0769
  band No.  band energies     occupation 
      1       2.2233      2.00000
      2       5.8618      2.00000
      3      13.4027      0.00000
      4      14.2997      0.00000
      5      20.1506      0.00000
      6      24.4973      0.00000
      7      27.3791      0.00000
      8      29.9416      0.00000

 k-point    59 :      -0.3846    0.2308    0.0769
  band No.  band energies     occupation 
      1       3.4731      2.00000
      2       4.4076      2.00000
      3      12.7199      0.00000
      4      14.7671      0.00000
      5      20.6871      0.00000
      6      23.8621      0.00000
      7      28.4656      0.00000
      8      30.3524      0.00000

 k-point    60 :      -0.3077    0.2308    0.0769
  band No.  band energies     occupation 
      1       1.6158      2.00000
      2       6.6667      2.00000
      3      12.2783      0.00000
      4      15.6060      0.00000
      5      21.4815      0.00000
      6      23.4936      0.00000
      7      27.7562      0.00000
      8      29.4554      0.00000

 k-point    61 :      -0.2308    0.2308    0.0769
  band No.  band energies     occupation 
      1      -0.0056      2.00000
      2       9.2739      2.00000
      3      12.1563      0.00000
      4      16.7385      0.00000
      5      22.4003      0.00000
      6      23.4702      0.00000
      7      25.7898      0.00000
      8      28.7551      0.00000

 k-point    62 :      -0.1538    0.2308    0.0769
  band No.  band energies     occupation 
      1      -1.3045      2.00000
      2      11.8302      0.00000
      3      12.6513      0.00000
      4      18.1062      0.00000
      5      22.9348      0.00000
      6      23.2015      0.00000
      7      24.8012      0.00000
      8      28.0314      0.00000

 k-point    63 :       0.3846    0.3077    0.0769
  band No.  band energies     occupation 
      1      -0.3983      2.00000
      2      12.6682      0.00000
      3      13.1157      0.00000
      4      14.0334      0.00000
      5      18.4137      0.00000
      6      19.9215      0.00000
      7      29.4161      0.00000
      8      32.1851      0.00000

 k-point    64 :       0.4615    0.3077    0.0769
  band No.  band energies     occupation 
      1       0.8946      2.00000
      2      10.1004      1.99640
      3      12.1832      0.00000
      4      13.0907      0.00000
      5      18.8506      0.00000
      6      21.6369      0.00000
      7      28.4014      0.00000
      8      32.5222      0.00000

 k-point    65 :      -0.4615    0.3077    0.0769
  band No.  band energies     occupation 
      1       2.5074      2.00000
      2       7.5195      2.00000
      3      11.0693      0.00000
      4      13.1301      0.00000
      5      19.0884      0.00000
      6      24.1442      0.00000
      7      27.4755      0.00000
      8      31.9822      0.00000

 k-point    66 :      -0.3846    0.3077    0.0769
  band No.  band energies     occupation 
      1       4.3611      2.00000
      2       5.2649      2.00000
      3      10.1920      1.24995
      4      13.5716      0.00000
      5      19.5756      0.00000
      6      26.1389      0.00000
      7      27.4467      0.00000
      8      30.6104      0.00000

 k-point    67 :      -0.3077    0.3077    0.0769
  band No.  band energies     occupation 
      1       3.1121      2.00000
      2       6.6885      2.00000
      3       9.6438      2.00000
      4      14.3353      0.00000
      5      20.3451      0.00000
      6      25.9318      0.00000
      7      28.2419      0.00000
      8      29.7409      0.00000

 k-point    68 :      -0.2308    0.3077    0.0769
  band No.  band energies     occupation 
      1       1.3960      2.00000
      2       8.8285      2.00000
      3       9.7622      2.00000
      4      15.4008      0.00000
      5      21.3719      0.00000
      6      25.4377      0.00000
      7      26.0037      0.00000
      8      30.3654      0.00000

 k-point    69 :       0.4615    0.3846    0.0769
  band No.  band energies     occupation 
      1       1.6218      2.00000
      2      10.1755      1.56795
      3      11.8197      0.00000
      4      12.6092      0.00000
      5      17.5628      0.00000
      6      19.1076      0.00000
      7      31.1786      0.00000
      8      34.6043      0.00000

 k-point    70 :      -0.4615    0.3846    0.0769
  band No.  band energies     occupation 
      1       3.1159      2.00000
      2       8.7879      2.00000
      3       9.5856      2.00000
      4      12.3509      0.00000
      5      18.2203      0.00000
      6      21.0698      0.00000
      7      30.2983      0.00000
      8      33.8163      0.00000

 k-point    71 :      -0.3846    0.3846    0.0769
  band No.  band energies     occupation 
      1       4.8944      2.00000
      2       7.0107      2.00000
      3       8.0077      2.00000
      4      12.6878      0.00000
      5      18.6796      0.00000
      6      23.8337      0.00000
      7      29.4956      0.00000
      8      31.5779      0.00000

 k-point    72 :      -0.3077    0.3846    0.0769
  band No.  band energies     occupation 
      1       4.9071      2.00000
      2       6.6701      2.00000
      3       7.6448      2.00000
      4      13.3567      0.00000
      5      19.3794      0.00000
      6      26.6650      0.00000
      7      28.6836      0.00000
      8      29.1548      0.00000

 k-point    73 :      -0.4615    0.4615    0.0769
  band No.  band energies     occupation 
      1       4.0327      2.00000
      2       7.0103      2.00000
      3      11.3942      0.00000
      4      12.1653      0.00000
      5      17.1345      0.00000
      6      18.7011      0.00000
      7      33.0332      0.00000
      8      34.7592      0.00000

 k-point    74 :      -0.3846    0.4615    0.0769
  band No.  band energies     occupation 
      1       5.3728      2.00000
      2       6.2119      2.00000
      3       9.3055      2.00000
      4      12.1330      0.00000
      5      18.0108      0.00000
      6      20.8779      0.00000
      7      32.2385      0.00000
      8      32.4549      0.00000

 k-point    75 :       0.4615    0.3077    0.1538
  band No.  band energies     occupation 
      1       0.2767      2.00000
      2      10.5474      0.00000
      3      11.3883      0.00000
      4      14.4965      0.00000
      5      21.7508      0.00000
      6      22.5467      0.00000
      7      25.7689      0.00000
      8      31.3823      0.00000

 k-point    76 :      -0.4615    0.3077    0.1538
  band No.  band energies     occupation 
      1       1.7864      2.00000
      2       8.1945      2.00000
      3      11.0779      0.00000
      4      13.2213      0.00000
      5      22.1267      0.00000
      6      23.9179      0.00000
      7      25.4770      0.00000
      8      31.7099      0.00000

 k-point    77 :      -0.3846    0.3077    0.1538
  band No.  band energies     occupation 
      1       3.5963      2.00000
      2       5.8068      2.00000
      3      11.3342      0.00000
      4      12.3134      0.00000
      5      22.3093      0.00000
      6      23.6277      0.00000
      7      27.6634      0.00000
      8      30.2625      0.00000

 k-point    78 :      -0.4615    0.3846    0.1538
  band No.  band energies     occupation 
      1       2.2882      2.00000
      2       9.6891      2.00000
      3      10.2904      0.01371
      4      11.2244      0.00000
      5      20.9309      0.00000
      6      21.9312      0.00000
      7      27.4232      0.00000
      8      33.3843      0.00000

 k-point    79 :      -0.3846    0.3846    0.1538
  band No.  band energies     occupation 
      1       3.9914      2.00000
      2       7.5326      2.00000
      3       9.6544      2.00000
      4      10.6737      0.00000
      5      21.6118      0.00000
      6      24.1125      0.00000
      7      26.6214      0.00000
      8      31.0478      0.00000

 k-point    80 :      -0.3077    0.3846    0.1538
  band No.  band energies     occupation 
      1       5.2453      2.00000
      2       6.0837      2.00000
      3       8.9729      2.00000
      4      11.1322      0.00000
      5      22.1610      0.00000
      6      25.3878      0.00000
      7      27.0501      0.00000
      8      28.7276      0.00000

 k-point    81 :      -0.2308    0.3846    0.1538
  band No.  band energies     occupation 
      1       3.3911      2.00000
      2       7.9664      2.00000
      3       8.8849      2.00000
      4      12.0086      0.00000
      5      22.8667      0.00000
      6      24.6768      0.00000
      7      25.6770      0.00000
      8      30.5063      0.00000

 k-point    82 :      -0.3846    0.4615    0.1538
  band No.  band energies     occupation 
      1       4.6864      2.00000
      2       7.6232      2.00000
      3       9.2597      2.00000
      4      10.2874      0.01735
      5      20.5166      0.00000
      6      21.5923      0.00000
      7      29.4575      0.00000
      8      31.6891      0.00000

 k-point    83 :      -0.3077    0.4615    0.1538
  band No.  band energies     occupation 
      1       6.2380      2.00000
      2       6.8518      2.00000
      3       7.5839      2.00000
      4      10.3595      0.00001
      5      21.4252      0.00000
      6      24.0267      0.00000
      7      28.3326      0.00000
      8      29.2044      0.00000

 k-point    84 :      -0.3077    0.4615    0.2308
  band No.  band energies     occupation 
      1       5.7592      2.00000
      2       7.5347      2.00000
      3       8.1649      2.00000
      4       9.1681      2.00000
      5      24.1775      0.00000
      6      24.2808      0.00000
      7      25.9259      0.00000
      8      28.4419      0.00000


--------------------------------------------------------------------------------------------------------


 soft charge-density along one line, spin component           1
         0         1         2         3         4         5         6         7         8         9
 total charge-density along one line
 
 pseudopotential strength for first ion, spin component:           1
 17.964  25.061   0.000  -0.000   0.000   0.000  -0.000   0.000
 25.061  34.967   0.000  -0.000   0.000   0.000  -0.000   0.000
  0.000   0.000   4.095  -0.000  -0.000   7.629  -0.000  -0.000
 -0.000  -0.000  -0.000   4.095  -0.000  -0.000   7.629  -0.000
  0.000   0.000  -0.000  -0.000   4.095  -0.000  -0.000   7.629
  0.000   0.000   7.629  -0.000  -0.000  14.223  -0.000  -0.000
 -0.000  -0.000  -0.000   7.629  -0.000  -0.000  14.223  -0.000
  0.000   0.000  -0.000  -0.000   7.629  -0.000  -0.000  14.223
 total augmentation occupancy for first ion, spin component:           1
  4.856  -2.038   0.000   0.000   0.000   0.000   0.000   0.000
 -2.038   1.324   0.000   0.000   0.000   0.000   0.000   0.000
  0.000   0.000   2.321  -0.000   0.000  -0.552   0.000  -0.000
  0.000   0.000  -0.000   2.321  -0.000   0.000  -0.552   0.000
  0.000   0.000   0.000  -0.000   2.321  -0.000   0.000  -0.552
  0.000   0.000  -0.552   0.000  -0.000   0.145  -0.000   0.000
  0.000   0.000   0.000  -0.552   0.000  -0.000   0.145  -0.000
  0.000   0.000  -0.000   0.000  -0.552   0.000  -0.000   0.145


------------------------ aborting loop because EDIFF is reached ----------------------------------------


    CHARGE:  cpu time    0.0310: real time    0.0312
    FORLOC:  cpu time    0.0000: real time    0.0006
    FORNL :  cpu time    0.0550: real time    0.0552
    STRESS:  cpu time    0.3160: real time    0.3165
    FORCOR:  cpu time    0.0140: real time    0.0136
    FORHAR:  cpu time    0.0010: real time    0.0027
    MIXING:  cpu time    0.0000: real time    0.0007
    OFIELD:  cpu time    0.0010: real time    0.0002

  FORCE on cell =-STRESS in cart. coord.  units (eV):
  Direction    XX          YY          ZZ          XY          YZ          ZX
  --------------------------------------------------------------------------------------
  Alpha Z     2.33116     2.33116     2.33116
  Ewald     -45.54459   -45.54458   -45.54458     0.00000     0.00001     0.00001
  Hartree     0.14919     0.14919     0.14919     0.00000     0.00000     0.00000
  E(xc)     -12.70242   -12.70242   -12.70242    -0.00000    -0.00000    -0.00000
  Local      -4.96160    -4.96160    -4.96160     0.00000     0.00000     0.00001
  n-local    36.23044    38.58725    40.34027    -0.34406     0.22345    -0.18899
  augment    -6.28658    -6.28658    -6.28659    -0.00000    -0.00000    -0.00000
  Kinetic    52.62413    27.66316     5.59936    -3.86155     1.71634    -0.20928
  Fock        0.00000     0.00000     0.00000     0.00000     0.00000     0.00000
  -------------------------------------------------------------------------------------
  Total       0.00004     0.00004     0.00004    -0.00000    -0.00000    -0.00000
  in kB       0.00428     0.00428     0.00428    -0.00000    -0.00000    -0.00000
  external pressure =        0.00 kB  Pullay stress =        0.00 kB


 VOLUME and BASIS-vectors are now :
 -----------------------------------------------------------------------------
  energy-cutoff  :      350.00
  volume of cell :       14.44
      direct lattice vectors                 reciprocal lattice vectors
     2.367173056 -0.000000003  1.366686849     0.422444821 -0.149356815  0.000000001
     0.789057682  2.231791925  1.366686849    -0.000000000  0.448070444  0.000000001
    -0.000000010 -0.000000007  2.733375731    -0.211222253 -0.149356703  0.365847983

  length of vectors
     2.733375426  2.733375233  2.733375731     0.448070402  0.448070444  0.448070320


 FORCES acting on ions
    electron-ion (+dipol)            ewald-force                    non-local-force                 convergence-correction
 -----------------------------------------------------------------------------------------------
   -.169E-14 0.978E-15 0.991E-15   -.414E-15 0.635E-16 -.202E-16   0.351E-25 0.350E-26 -.103E-24   -.394E-16 -.994E-17 -.293E-17
 -----------------------------------------------------------------------------------------------
   -.169E-14 0.978E-15 0.991E-15   -.414E-15 0.635E-16 -.202E-16   0.351E-25 0.350E-26 -.103E-24   -.394E-16 -.994E-17 -.293E-17
 
 
 POSITION                                       TOTAL-FORCE (eV/Angst)
 -----------------------------------------------------------------------------------
      0.00000      0.00000     -0.00000        -0.000000      0.000000      0.000000
 -----------------------------------------------------------------------------------
    total drift:                               -0.000000      0.000000      0.000000


--------------------------------------------------------------------------------------------------------



  FREE ENERGIE OF THE ION-ELECTRON SYSTEM (eV)
  ---------------------------------------------------
  free  energy   TOTEN  =        -4.88572388 eV

  energy  without entropy=       -4.88486104  energy(sigma->0) =       -4.88529246
 
 d Force = 0.0000000E+00[ 0.000E+00, 0.000E+00]  d Energy = 0.4738069E-04-0.474E-04
 d Force = 0.0000000E+00[ 0.000E+00, 0.000E+00]  d Ewald  = 0.1604057E+00-0.160E+00


--------------------------------------------------------------------------------------------------------


    POTLOK:  cpu time    0.1810: real time    0.1885


--------------------------------------------------------------------------------------------------------




--------------------------------------------------------------------------------------------------------


  
 reached required accuracy - stopping structural energy minimisation
     LOOP+:  cpu time    4.0624: real time    4.2345
    4ORBIT:  cpu time    0.0000: real time    0.0000

 total amount of memory used by VASP MPI-rank0    34395. kBytes
=======================================================================

   base      :      30000. kBytes
   nonl-proj :       1186. kBytes
   fftplans  :       1775. kBytes
   grid      :        819. kBytes
   one-center:          3. kBytes
   wavefun   :        612. kBytes
 
  
  
 General timing and accounting informations for this job:
 ========================================================
  
                  Total CPU time used (sec):       15.457
                            User time (sec):       15.084
                          System time (sec):        0.373
                         Elapsed time (sec):       16.705
  
                   Maximum memory used (kb):       58224.
                   Average memory used (kb):          N/A
  
                          Minor page faults:        10209
                          Major page faults:            1
                 Voluntary context switches:        17755
