<?xml version="1.0" encoding="ISO-8859-1"?>
<modeling>
 <generator>
  <i name="program" type="string">vasp </i>
  <i name="version" type="string">6.2.0  </i>
  <i name="subversion" type="string">18Jan21 (build Aug 12 2022 13:00:08) complex                          parallel </i>
  <i name="platform" type="string">LinuxIFC </i>
  <i name="date" type="string">2024 11 03 </i>
  <i name="time" type="string">21:55:08 </i>
 </generator>
 <incar>
  <i type="int" name="ISTART">     0</i>
  <i type="string" name="PREC">Accurate      (Accurate strictly avoids</i>
  <i type="logical" name="ADDGRID"> T  </i>
  <i type="int" name="ISPIN">     1</i>
  <i type="int" name="NELM">    90</i>
  <i type="int" name="NELMIN">     6</i>
  <i type="int" name="IBRION">     2</i>
  <i name="EDIFF">      0.00000100</i>
  <i name="EDIFFG">     -0.00200000</i>
  <i type="int" name="NSW">   100</i>
  <i type="int" name="ISIF">     3</i>
  <i type="int" name="ISYM">     2</i>
  <i name="ENCUT">    350.00000000</i>
  <i type="logical" name="LREAL"> F  </i>
  <i type="int" name="ISMEAR">     0</i>
  <i name="SIGMA">      0.05000000</i>
  <i type="logical" name="LWAVE"> F  </i>
  <i type="logical" name="LCHARG"> F  </i>
  <i type="logical" name="LASPH"> T  </i>
 </incar>
 <primitive_cell>
  <structure name="primitive_cell" >
   <crystal>
    <varray name="basis" >
     <v>       2.34739500       0.00000000       1.35526800 </v>
     <v>       0.78246500       2.21314500       1.35526800 </v>
     <v>       0.00000000       0.00000000       2.71053800 </v>
    </varray>
    <i name="volume">     14.08158510 </i>
    <varray name="rec_basis" >
     <v>       0.42600415      -0.15061523       0.00000000 </v>
     <v>       0.00000000       0.45184568       0.00000000 </v>
     <v>      -0.21300192      -0.15061511       0.36893045 </v>
    </varray>
   </crystal>
   <varray name="positions" >
    <v>       0.00000000       0.00000000       0.00000000 </v>
   </varray>
  </structure>
  <varray name="primitive_index" >
   <v type="int" >        1 </v>
  </varray>
 </primitive_cell>
 <kpoints>
  <generation param="Monkhorst-Pack">
   <v type="int" name="divisions">      13       13       13 </v>
   <v name="usershift">      0.00000000       0.00000000       0.00000000 </v>
   <v name="genvec1">      0.07692308       0.00000000       0.00000000 </v>
   <v name="genvec2">      0.00000000       0.07692308       0.00000000 </v>
   <v name="genvec3">     -0.00000000      -0.00000000       0.07692308 </v>
   <v name="shift">      0.00000000       0.00000000       0.00000000 </v>
  </generation>
  <varray name="kpointlist" >
   <v>       0.00000000       0.00000000       0.00000000 </v>
   <v>       0.07692308       0.00000000       0.00000000 </v>
   <v>       0.15384615       0.00000000       0.00000000 </v>
   <v>       0.23076923       0.00000000       0.00000000 </v>
   <v>       0.30769231       0.00000000       0.00000000 </v>
   <v>       0.38461538       0.00000000       0.00000000 </v>
   <v>       0.46153846       0.00000000       0.00000000 </v>
   <v>       0.07692308       0.07692308       0.00000000 </v>
   <v>       0.15384615       0.07692308       0.00000000 </v>
   <v>       0.23076923       0.07692308       0.00000000 </v>
   <v>       0.30769231       0.07692308       0.00000000 </v>
   <v>       0.38461538       0.07692308       0.00000000 </v>
   <v>       0.46153846       0.07692308       0.00000000 </v>
   <v>      -0.46153846       0.07692308       0.00000000 </v>
   <v>      -0.38461538       0.07692308       0.00000000 </v>
   <v>      -0.30769231       0.07692308       0.00000000 </v>
   <v>      -0.23076923       0.07692308       0.00000000 </v>
   <v>      -0.15384615       0.07692308       0.00000000 </v>
   <v>      -0.07692308       0.07692308       0.00000000 </v>
   <v>       0.15384615       0.15384615       0.00000000 </v>
   <v>       0.23076923       0.15384615       0.00000000 </v>
   <v>       0.30769231       0.15384615       0.00000000 </v>
   <v>       0.38461538       0.15384615       0.00000000 </v>
   <v>       0.46153846       0.15384615       0.00000000 </v>
   <v>      -0.46153846       0.15384615       0.00000000 </v>
   <v>      -0.38461538       0.15384615       0.00000000 </v>
   <v>      -0.30769231       0.15384615       0.00000000 </v>
   <v>      -0.23076923       0.15384615       0.00000000 </v>
   <v>      -0.15384615       0.15384615       0.00000000 </v>
   <v>       0.23076923       0.23076923       0.00000000 </v>
   <v>       0.30769231       0.23076923       0.00000000 </v>
   <v>       0.38461538       0.23076923       0.00000000 </v>
   <v>       0.46153846       0.23076923       0.00000000 </v>
   <v>      -0.46153846       0.23076923       0.00000000 </v>
   <v>      -0.38461538       0.23076923       0.00000000 </v>
   <v>      -0.30769231       0.23076923       0.00000000 </v>
   <v>      -0.23076923       0.23076923       0.00000000 </v>
   <v>       0.30769231       0.30769231       0.00000000 </v>
   <v>       0.38461538       0.30769231       0.00000000 </v>
   <v>       0.46153846       0.30769231       0.00000000 </v>
   <v>      -0.46153846       0.30769231       0.00000000 </v>
   <v>      -0.38461538       0.30769231       0.00000000 </v>
   <v>      -0.30769231       0.30769231       0.00000000 </v>
   <v>       0.38461538       0.38461538       0.00000000 </v>
   <v>       0.46153846       0.38461538       0.00000000 </v>
   <v>      -0.46153846       0.38461538       0.00000000 </v>
   <v>      -0.38461538       0.38461538       0.00000000 </v>
   <v>       0.46153846       0.46153846       0.00000000 </v>
   <v>      -0.46153846       0.46153846       0.00000000 </v>
   <v>       0.23076923       0.15384615       0.07692308 </v>
   <v>       0.30769231       0.15384615       0.07692308 </v>
   <v>       0.38461538       0.15384615       0.07692308 </v>
   <v>       0.46153846       0.15384615       0.07692308 </v>
   <v>      -0.46153846       0.15384615       0.07692308 </v>
   <v>       0.30769231       0.23076923       0.07692308 </v>
   <v>       0.38461538       0.23076923       0.07692308 </v>
   <v>       0.46153846       0.23076923       0.07692308 </v>
   <v>      -0.46153846       0.23076923       0.07692308 </v>
   <v>      -0.38461538       0.23076923       0.07692308 </v>
   <v>      -0.30769231       0.23076923       0.07692308 </v>
   <v>      -0.23076923       0.23076923       0.07692308 </v>
   <v>      -0.15384615       0.23076923       0.07692308 </v>
   <v>       0.38461538       0.30769231       0.07692308 </v>
   <v>       0.46153846       0.30769231       0.07692308 </v>
   <v>      -0.46153846       0.30769231       0.07692308 </v>
   <v>      -0.38461538       0.30769231       0.07692308 </v>
   <v>      -0.30769231       0.30769231       0.07692308 </v>
   <v>      -0.23076923       0.30769231       0.07692308 </v>
   <v>       0.46153846       0.38461538       0.07692308 </v>
   <v>      -0.46153846       0.38461538       0.07692308 </v>
   <v>      -0.38461538       0.38461538       0.07692308 </v>
   <v>      -0.30769231       0.38461538       0.07692308 </v>
   <v>      -0.46153846       0.46153846       0.07692308 </v>
   <v>      -0.38461538       0.46153846       0.07692308 </v>
   <v>       0.46153846       0.30769231       0.15384615 </v>
   <v>      -0.46153846       0.30769231       0.15384615 </v>
   <v>      -0.38461538       0.30769231       0.15384615 </v>
   <v>      -0.46153846       0.38461538       0.15384615 </v>
   <v>      -0.38461538       0.38461538       0.15384615 </v>
   <v>      -0.30769231       0.38461538       0.15384615 </v>
   <v>      -0.23076923       0.38461538       0.15384615 </v>
   <v>      -0.38461538       0.46153846       0.15384615 </v>
   <v>      -0.30769231       0.46153846       0.15384615 </v>
   <v>      -0.30769231       0.46153846       0.23076923 </v>
  </varray>
  <varray name="weights" >
   <v>       0.00045517 </v>
   <v>       0.00364133 </v>
   <v>       0.00364133 </v>
   <v>       0.00364133 </v>
   <v>       0.00364133 </v>
   <v>       0.00364133 </v>
   <v>       0.00364133 </v>
   <v>       0.00273100 </v>
   <v>       0.01092399 </v>
   <v>       0.01092399 </v>
   <v>       0.01092399 </v>
   <v>       0.01092399 </v>
   <v>       0.01092399 </v>
   <v>       0.01092399 </v>
   <v>       0.01092399 </v>
   <v>       0.01092399 </v>
   <v>       0.01092399 </v>
   <v>       0.01092399 </v>
   <v>       0.00546199 </v>
   <v>       0.00273100 </v>
   <v>       0.01092399 </v>
   <v>       0.01092399 </v>
   <v>       0.01092399 </v>
   <v>       0.01092399 </v>
   <v>       0.01092399 </v>
   <v>       0.01092399 </v>
   <v>       0.01092399 </v>
   <v>       0.01092399 </v>
   <v>       0.00546199 </v>
   <v>       0.00273100 </v>
   <v>       0.01092399 </v>
   <v>       0.01092399 </v>
   <v>       0.01092399 </v>
   <v>       0.01092399 </v>
   <v>       0.01092399 </v>
   <v>       0.01092399 </v>
   <v>       0.00546199 </v>
   <v>       0.00273100 </v>
   <v>       0.01092399 </v>
   <v>       0.01092399 </v>
   <v>       0.01092399 </v>
   <v>       0.01092399 </v>
   <v>       0.00546199 </v>
   <v>       0.00273100 </v>
   <v>       0.01092399 </v>
   <v>       0.01092399 </v>
   <v>       0.00546199 </v>
   <v>       0.00273100 </v>
   <v>       0.00546199 </v>
   <v>       0.01092399 </v>
   <v>       0.02184797 </v>
   <v>       0.02184797 </v>
   <v>       0.02184797 </v>
   <v>       0.02184797 </v>
   <v>       0.01092399 </v>
   <v>       0.02184797 </v>
   <v>       0.02184797 </v>
   <v>       0.02184797 </v>
   <v>       0.02184797 </v>
   <v>       0.02184797 </v>
   <v>       0.02184797 </v>
   <v>       0.01092399 </v>
   <v>       0.01092399 </v>
   <v>       0.02184797 </v>
   <v>       0.02184797 </v>
   <v>       0.02184797 </v>
   <v>       0.02184797 </v>
   <v>       0.01092399 </v>
   <v>       0.01092399 </v>
   <v>       0.02184797 </v>
   <v>       0.02184797 </v>
   <v>       0.01092399 </v>
   <v>       0.01092399 </v>
   <v>       0.01092399 </v>
   <v>       0.01092399 </v>
   <v>       0.02184797 </v>
   <v>       0.02184797 </v>
   <v>       0.01092399 </v>
   <v>       0.02184797 </v>
   <v>       0.02184797 </v>
   <v>       0.01092399 </v>
   <v>       0.01092399 </v>
   <v>       0.01092399 </v>
   <v>       0.01092399 </v>
  </varray>
 </kpoints>
 <parameters>
  <separator name="general" >
   <i type="string" name="SYSTEM">unknown system</i>
   <i type="logical" name="LCOMPAT"> F  </i>
  </separator>
  <separator name="electronic" >
   <i type="string" name="PREC">accura</i>
   <i name="ENMAX">    350.00000000</i>
   <i name="ENAUG">    322.06900000</i>
   <i name="EDIFF">      0.00000100</i>
   <i type="int" name="IALGO">    38</i>
   <i type="int" name="IWAVPR">    11</i>
   <i type="int" name="NBANDS">     8</i>
   <i type="int" name="NBANDSLOW">    -1</i>
   <i type="int" name="NBANDSHIGH">    -1</i>
   <i name="NELECT">      4.00000000</i>
   <i type="int" name="TURBO">     0</i>
   <i type="int" name="IRESTART">     0</i>
   <i type="int" name="NREBOOT">     0</i>
   <i type="int" name="NMIN">     0</i>
   <i name="EREF">      0.00000000</i>
   <separator name="electronic smearing" >
    <i type="int" name="ISMEAR">     0</i>
    <i name="SIGMA">      0.05000000</i>
    <i name="KSPACING">      0.50000000</i>
    <i type="logical" name="KGAMMA"> T  </i>
    <i type="logical" name="KBLOWUP"> T  </i>
   </separator>
   <separator name="electronic projectors" >
    <i type="logical" name="LREAL"> F  </i>
    <v name="ROPT">      0.00000000</v>
    <i type="int" name="LMAXPAW">  -100</i>
    <i type="int" name="LMAXMIX">     2</i>
    <i type="logical" name="NLSPLINE"> F  </i>
   </separator>
   <separator name="electronic startup" >
    <i type="int" name="ISTART">     0</i>
    <i type="int" name="ICHARG">     2</i>
    <i type="int" name="INIWAV">     1</i>
   </separator>
   <separator name="electronic spin" >
    <i type="int" name="ISPIN">     1</i>
    <i type="logical" name="LNONCOLLINEAR"> F  </i>
    <v name="MAGMOM">      1.00000000</v>
    <i name="NUPDOWN">     -1.00000000</i>
    <i type="logical" name="LSORBIT"> F  </i>
    <v name="SAXIS">      0.00000000      0.00000000      1.00000000</v>
    <i type="logical" name="LSPIRAL"> F  </i>
    <v name="QSPIRAL">      0.00000000      0.00000000      0.00000000</v>
    <i type="logical" name="LZEROZ"> F  </i>
   </separator>
   <separator name="electronic exchange-correlation" >
    <i type="logical" name="LASPH"> T  </i>
    <i type="logical" name="LMETAGGA"> F  </i>
   </separator>
   <separator name="electronic convergence" >
    <i type="int" name="NELM">    90</i>
    <i type="int" name="NELMDL">    -5</i>
    <i type="int" name="NELMIN">     6</i>
    <i name="ENINI">    350.00000000</i>
    <separator name="electronic convergence detail" >
     <i type="logical" name="LDIAG"> T  </i>
     <i type="logical" name="LSUBROT"> F  </i>
     <i name="WEIMIN">      0.00100000</i>
     <i name="EBREAK">      0.00000003</i>
     <i name="DEPER">      0.30000000</i>
     <i type="int" name="NRMM">     4</i>
     <i name="TIME">      0.40000000</i>
    </separator>
   </separator>
   <separator name="electronic mixer" >
    <i name="AMIX">      0.40000000</i>
    <i name="BMIX">      1.00000000</i>
    <i name="AMIN">      0.10000000</i>
    <i name="AMIX_MAG">      1.60000000</i>
    <i name="BMIX_MAG">      1.00000000</i>
    <separator name="electronic mixer details" >
     <i type="int" name="IMIX">     4</i>
     <i type="logical" name="MIXFIRST"> F  </i>
     <i type="int" name="MAXMIX">   -45</i>
     <i name="WC">    100.00000000</i>
     <i type="int" name="INIMIX">     1</i>
     <i type="int" name="MIXPRE">     1</i>
     <i type="int" name="MREMOVE">     5</i>
    </separator>
   </separator>
   <separator name="electronic dipolcorrection" >
    <i type="logical" name="LDIPOL"> F  </i>
    <i type="logical" name="LMONO"> F  </i>
    <i type="int" name="IDIPOL">     0</i>
    <i name="EPSILON">      1.00000000</i>
    <v name="DIPOL">   -100.00000000   -100.00000000   -100.00000000</v>
    <i name="EFIELD">      0.00000000</i>
   </separator>
  </separator>
  <separator name="grids" >
   <i type="int" name="NGX">    18</i>
   <i type="int" name="NGY">    18</i>
   <i type="int" name="NGZ">    18</i>
   <i type="int" name="NGXF">    36</i>
   <i type="int" name="NGYF">    36</i>
   <i type="int" name="NGZF">    36</i>
   <i type="logical" name="ADDGRID"> T  </i>
  </separator>
  <separator name="ionic" >
   <i type="int" name="NSW">   100</i>
   <i type="int" name="IBRION">     2</i>
   <i type="int" name="MDALGO">     0</i>
   <i type="int" name="ISIF">     3</i>
   <i name="PSTRESS">      0.00000000</i>
   <i name="EDIFFG">     -0.00200000</i>
   <i type="int" name="NFREE">     1</i>
   <i name="POTIM">      0.50000000</i>
   <i name="SMASS">     -3.00000000</i>
   <i name="SCALEE">      1.00000000</i>
  </separator>
  <separator name="ionic md" >
   <i name="TEBEG">      0.00010000</i>
   <i name="TEEND">      0.00010000</i>
   <i type="int" name="NBLOCK">     1</i>
   <i type="int" name="KBLOCK">   100</i>
   <i type="int" name="NPACO">   256</i>
   <i name="APACO">     16.00000000</i>
  </separator>
  <separator name="symmetry" >
   <i type="int" name="ISYM">     2</i>
   <i name="SYMPREC">      0.00001000</i>
  </separator>
  <separator name="dos" >
   <i type="int" name="LORBIT">     0</i>
   <v name="RWIGS">     -1.00000000</v>
   <i type="int" name="NEDOS">   301</i>
   <i name="EMIN">     10.00000000</i>
   <i name="EMAX">    -10.00000000</i>
   <i name="EFERMI">      0.00000000</i>
  </separator>
  <separator name="writing" >
   <i type="int" name="NWRITE">     2</i>
   <i type="logical" name="LWAVE"> F  </i>
   <i type="logical" name="LDOWNSAMPLE"> F  </i>
   <i type="logical" name="LCHARG"> F  </i>
   <i type="logical" name="LPARD"> F  </i>
   <i type="logical" name="LVTOT"> F  </i>
   <i type="logical" name="LVHAR"> F  </i>
   <i type="logical" name="LELF"> F  </i>
   <i type="logical" name="LOPTICS"> F  </i>
   <v name="STM">      0.00000000      0.00000000      0.00000000      0.00000000      0.00000000      0.00000000      0.00000000</v>
  </separator>
  <separator name="performance" >
   <i type="int" name="NPAR">     4</i>
   <i type="int" name="NSIM">     4</i>
   <i type="int" name="NBLK">    -1</i>
   <i type="logical" name="LPLANE"> T  </i>
   <i type="logical" name="LSCALAPACK"> T  </i>
   <i type="logical" name="LSCAAWARE"> F  </i>
   <i type="logical" name="LSCALU"> F  </i>
   <i type="logical" name="LASYNC"> F  </i>
   <i type="logical" name="LORBITALREAL"> F  </i>
  </separator>
  <separator name="miscellaneous" >
   <i type="int" name="IDIOT">     3</i>
   <i type="int" name="PHON_NSTRUCT">    -1</i>
   <i type="logical" name="LMUSIC"> F  </i>
   <v name="POMASS">     28.08500000</v>
   <v name="DARWINR">      0.00000000</v>
   <v name="DARWINV">      1.00000000</v>
   <i type="logical" name="LCORR"> T  </i>
  </separator>
  <i type="logical" name="GGA_COMPAT"> T  </i>
  <i type="logical" name="LBERRY"> F  </i>
  <i type="int" name="ICORELEVEL">     0</i>
  <i type="logical" name="LDAU"> F  </i>
  <i type="int" name="I_CONSTRAINED_M">     0</i>
  <separator name="electronic exchange-correlation" >
   <i type="string" name="GGA">--</i>
   <i type="int" name="VOSKOWN">     0</i>
   <i type="logical" name="LHFCALC"> F  </i>
   <i type="string" name="PRECFOCK"></i>
   <i type="logical" name="LSYMGRAD"> F  </i>
   <i type="logical" name="LHFONE"> F  </i>
   <i type="logical" name="LRHFCALC"> F  </i>
   <i type="logical" name="LTHOMAS"> F  </i>
   <i type="logical" name="LMODELHF"> F  </i>
   <i type="logical" name="LFOCKACE"> F  </i>
   <i name="ENCUT4O">     -1.00000000</i>
   <i type="int" name="EXXOEP">     0</i>
   <i type="int" name="FOURORBIT">     0</i>
   <i name="AEXX">      0.00000000</i>
   <i name="HFALPHA">      0.00000000</i>
   <i name="MCALPHA">      0.00000000</i>
   <i name="ALDAX">      1.00000000</i>
   <i name="AGGAX">      1.00000000</i>
   <i name="ALDAC">      1.00000000</i>
   <i name="AGGAC">      1.00000000</i>
   <i type="int" name="NKREDX">     1</i>
   <i type="int" name="NKREDY">     1</i>
   <i type="int" name="NKREDZ">     1</i>
   <i type="logical" name="SHIFTRED"> F  </i>
   <i type="logical" name="ODDONLY"> F  </i>
   <i type="logical" name="EVENONLY"> F  </i>
   <i type="int" name="LMAXFOCK">     0</i>
   <i type="int" name="NMAXFOCKAE">     0</i>
   <i type="logical" name="LFOCKAEDFT"> F  </i>
   <i name="HFSCREEN">      0.00000000</i>
   <i name="HFSCREENC">      0.00000000</i>
   <i type="int" name="NBANDSGWLOW">     0</i>
  </separator>
  <separator name="vdW DFT" >
   <i type="logical" name="LUSE_VDW"> F  </i>
   <i name="Zab_VDW">     -0.84910000</i>
   <i name="PARAM1">      0.12340000</i>
   <i name="PARAM2">      1.00000000</i>
   <i name="PARAM3">      0.00000000</i>
  </separator>
  <separator name="model GW" >
   <i type="int" name="MODEL_GW">     0</i>
   <i name="MODEL_EPS0">      8.44895106</i>
   <i name="MODEL_ALPHA">      1.00000000</i>
  </separator>
  <separator name="linear response parameters" >
   <i type="logical" name="LEPSILON"> F  </i>
   <i type="logical" name="LRPA"> F  </i>
   <i type="logical" name="LNABLA"> F  </i>
   <i type="logical" name="LVEL"> F  </i>
   <i type="int" name="KINTER">     0</i>
   <i name="CSHIFT">      0.10000000</i>
   <i name="OMEGAMAX">     -1.00000000</i>
   <i name="DEG_THRESHOLD">      0.00200000</i>
   <i name="RTIME">     -0.10000000</i>
   <i name="WPLASMAI">      0.00000000</i>
   <v name="DFIELD">      0.00000000      0.00000000      0.00000000</v>
   <v name="WPLASMA">      0.00000000      0.00000000      0.00000000      0.00000000      0.00000000      0.00000000      0.00000000      0.00000000      0.00000000</v>
  </separator>
  <separator name="orbital magnetization" >
   <i type="logical" name="NUCIND"> F  </i>
   <v name="MAGPOS">      0.00000000      0.00000000      0.00000000</v>
   <i type="logical" name="LNICSALL"> T  </i>
   <i type="logical" name="ORBITALMAG"> F  </i>
   <i type="logical" name="LMAGBLOCH"> F  </i>
   <i type="logical" name="LCHIMAG"> F  </i>
   <i type="logical" name="LGAUGE"> T  </i>
   <i type="int" name="MAGATOM">     0</i>
   <v name="MAGDIPOL">      0.00000000      0.00000000      0.00000000</v>
   <v name="AVECCONST">      0.00000000      0.00000000      0.00000000</v>
  </separator>
  <separator name="response functions" >
   <i type="logical" name="LFINITE_TEMPERATURE"> F  </i>
   <i type="logical" name="LADDER"> F  </i>
   <i type="logical" name="LRPAFORCE"> F  </i>
   <i type="logical" name="LFXC"> F  </i>
   <i type="logical" name="LHARTREE"> T  </i>
   <i type="int" name="IBSE">     0</i>
   <v type="int" name="KPOINT">    -1     0     0     0</v>
   <i type="logical" name="LTCTC"> F  </i>
   <i type="logical" name="LTCTE"> F  </i>
   <i type="logical" name="LTETE"> F  </i>
   <i type="logical" name="LTRIPLET"> F  </i>
   <i type="logical" name="LFXCEPS"> F  </i>
   <i type="logical" name="LFXHEG"> F  </i>
   <i type="int" name="NATURALO">     2</i>
   <i type="logical" name="LHOLEGF"> F  </i>
   <i type="logical" name="L2ORDER"> F  </i>
   <i type="logical" name="LDMP1"> F  </i>
   <i type="logical" name="LMP2LT"> F  </i>
   <i type="logical" name="LSMP2LT"> F  </i>
   <i type="logical" name="LGWLF"> F  </i>
   <i name="ENCUTGW">     -2.00000000</i>
   <i name="ENCUTGWSOFT">     -2.00000000</i>
   <i name="ENCUTLF">     -1.00000000</i>
   <i type="logical" name="LESF_SPLINES"> F  </i>
   <i type="int" name="LMAXMP2">    -1</i>
   <i name="SCISSOR">      0.00000000</i>
   <i type="int" name="NOMEGA">     0</i>
   <i type="int" name="NOMEGAR">     0</i>
   <i type="int" name="NBANDSGW">    -1</i>
   <i type="int" name="NBANDSO">    -1</i>
   <i type="int" name="NBANDSV">    -1</i>
   <i type="int" name="NELM">    90</i>
   <i type="int" name="NELMHF">     1</i>
   <i type="int" name="DIM">     3</i>
   <i type="int" name="IESPILON">     4</i>
   <i type="int" name="ANTIRES">     0</i>
   <i name="OMEGAMAX">    -30.00000000</i>
   <i name="OMEGAMIN">    -30.00000000</i>
   <i name="OMEGATL">   -200.00000000</i>
   <i type="int" name="OMEGAGRID">     0</i>
   <i name="CSHIFT">     -0.10000000</i>
   <i type="logical" name="LSELFENERGY"> F  </i>
   <i type="logical" name="LSPECTRAL"> F  </i>
   <i type="logical" name="LSPECTRALGW"> F  </i>
   <i type="logical" name="LSINGLES"> F  </i>
   <i type="logical" name="LFERMIGW"> F  </i>
   <i type="logical" name="ODDONLYGW"> F  </i>
   <i type="logical" name="EVENONLYGW"> F  </i>
   <i type="int" name="NKREDLFX">     1</i>
   <i type="int" name="NKREDLFY">     1</i>
   <i type="int" name="NKREDLFZ">     1</i>
   <i type="int" name="MAXMEM">  2800</i>
   <i type="int" name="TELESCOPE">     0</i>
   <i type="int" name="NTAUPAR">    -1</i>
   <i type="int" name="NOMEGAPAR">    -1</i>
   <i name="DAMP_NEWTON">      0.80000001</i>
   <i name="LAMBDA">      1.00000000</i>
  </separator>
  <separator name="External order field" >
   <i name="OFIELD_KAPPA">      0.00000000</i>
   <v name="OFIELD_K">      0.00000000      0.00000000      0.00000000</v>
   <i name="OFIELD_Q6_NEAR">      0.00000000</i>
   <i name="OFIELD_Q6_FAR">      0.00000000</i>
   <i name="OFIELD_A">      0.00000000</i>
  </separator>
 </parameters>
 <atominfo>
  <atoms>       1 </atoms>
  <types>       1 </types>
  <array name="atoms" >
   <dimension dim="1">ion</dimension>
   <field type="string">element</field>
   <field type="int">atomtype</field>
   <set>
    <rc><c>Si</c><c>   1</c></rc>
   </set>
  </array>
  <array name="atomtypes" >
   <dimension dim="1">type</dimension>
   <field type="int">atomspertype</field>
   <field type="string">element</field>
   <field>mass</field>
   <field>valence</field>
   <field type="string">pseudopotential</field>
   <set>
    <rc><c>   1</c><c>Si</c><c>     28.08500000</c><c>      4.00000000</c><c>  PAW_PBE Si 05Jan2001                  </c></rc>
   </set>
  </array>
 </atominfo>
 <structure name="initialpos" >
  <crystal>
   <varray name="basis" >
    <v>       2.34739500       0.00000000       1.35526800 </v>
    <v>       0.78246500       2.21314500       1.35526800 </v>
    <v>       0.00000000       0.00000000       2.71053800 </v>
   </varray>
   <i name="volume">     14.08158510 </i>
   <varray name="rec_basis" >
    <v>       0.42600415      -0.15061523       0.00000000 </v>
    <v>       0.00000000       0.45184568       0.00000000 </v>
    <v>      -0.21300192      -0.15061511       0.36893045 </v>
   </varray>
  </crystal>
  <varray name="positions" >
   <v>       0.00000000       0.00000000       0.00000000 </v>
  </varray>
 </structure>
 <calculation>
  <scstep>
   <time name="dav">    0.41    0.41</time>
   <time name="total">    0.59    0.60</time>
   <energy>
    <i name="alphaZ">      2.39057823 </i>
    <i name="ewald">   -137.78496289 </i>
    <i name="hartreedc">     -0.54229904 </i>
    <i name="XCdc">     -8.73348015 </i>
    <i name="pawpsdc">     88.12379961 </i>
    <i name="pawaedc">    -70.53051779 </i>
    <i name="eentropy">     -0.00032336 </i>
    <i name="bandstr">     20.58874890 </i>
    <i name="atom">    103.06562707 </i>
    <i name="e_fr_energy">     -3.42282942 </i>
    <i name="e_wo_entrp">     -3.42250606 </i>
    <i name="e_0_energy">     -3.42266774 </i>
   </energy>
  </scstep>
  <scstep>
   <time name="dav">    0.56    0.57</time>
   <time name="total">    0.56    0.57</time>
   <energy>
    <i name="e_fr_energy">     -4.89869922 </i>
    <i name="e_wo_entrp">     -4.89782124 </i>
    <i name="e_0_energy">     -4.89826023 </i>
   </energy>
  </scstep>
  <scstep>
   <time name="dav">    0.43    0.44</time>
   <time name="total">    0.43    0.44</time>
   <energy>
    <i name="e_fr_energy">     -4.90450336 </i>
    <i name="e_wo_entrp">     -4.90359732 </i>
    <i name="e_0_energy">     -4.90405034 </i>
   </energy>
  </scstep>
  <scstep>
   <time name="dav">    0.62    0.63</time>
   <time name="total">    0.62    0.64</time>
   <energy>
    <i name="e_fr_energy">     -4.90450796 </i>
    <i name="e_wo_entrp">     -4.90360189 </i>
    <i name="e_0_energy">     -4.90405492 </i>
   </energy>
  </scstep>
  <scstep>
   <time name="dav">    0.42    0.43</time>
   <time name="total">    0.46    0.47</time>
   <energy>
    <i name="e_fr_energy">     -4.90450796 </i>
    <i name="e_wo_entrp">     -4.90360189 </i>
    <i name="e_0_energy">     -4.90405492 </i>
   </energy>
  </scstep>
  <scstep>
   <time name="dav">    0.46    0.46</time>
   <time name="total">    0.67    0.69</time>
   <energy>
    <i name="e_fr_energy">     -4.89105394 </i>
    <i name="e_wo_entrp">     -4.89015833 </i>
    <i name="e_0_energy">     -4.89060613 </i>
   </energy>
  </scstep>
  <scstep>
   <time name="dav">    0.47    0.48</time>
   <time name="total">    0.69    0.70</time>
   <energy>
    <i name="e_fr_energy">     -4.88328570 </i>
    <i name="e_wo_entrp">     -4.88240326 </i>
    <i name="e_0_energy">     -4.88284448 </i>
   </energy>
  </scstep>
  <scstep>
   <time name="dav">    0.55    0.55</time>
   <time name="total">    0.76    0.78</time>
   <energy>
    <i name="e_fr_energy">     -4.88324757 </i>
    <i name="e_wo_entrp">     -4.88236452 </i>
    <i name="e_0_energy">     -4.88280604 </i>
   </energy>
  </scstep>
  <scstep>
   <time name="dav">    0.48    0.50</time>
   <time name="total">    0.66    0.70</time>
   <energy>
    <i name="alphaZ">      2.39057823 </i>
    <i name="ewald">   -137.78496289 </i>
    <i name="hartreedc">     -0.41157708 </i>
    <i name="XCdc">     -8.67043700 </i>
    <i name="pawpsdc">    317.67309167 </i>
    <i name="pawaedc">   -300.09231690 </i>
    <i name="eentropy">     -0.00088309 </i>
    <i name="bandstr">     18.94763209 </i>
    <i name="atom">    103.06562707 </i>
    <i name="e_fr_energy">     -4.88324791 </i>
    <i name="e_wo_entrp">     -4.88236482 </i>
    <i name="e_0_energy">     -4.88280636 </i>
   </energy>
  </scstep>
  <structure>
   <crystal>
    <varray name="basis" >
     <v>       2.34739500       0.00000000       1.35526800 </v>
     <v>       0.78246500       2.21314500       1.35526800 </v>
     <v>       0.00000000       0.00000000       2.71053800 </v>
    </varray>
    <i name="volume">     14.08158510 </i>
    <varray name="rec_basis" >
     <v>       0.42600415      -0.15061523       0.00000000 </v>
     <v>       0.00000000       0.45184568       0.00000000 </v>
     <v>      -0.21300192      -0.15061511       0.36893045 </v>
    </varray>
   </crystal>
   <varray name="positions" >
    <v>       0.00000000       0.00000000       0.00000000 </v>
   </varray>
  </structure>
  <varray name="forces" >
   <v>       0.00000000       0.00000000       0.00000000 </v>
  </varray>
  <varray name="stress" >
   <v>      22.66665650       0.00000000      -0.00000966 </v>
   <v>      -0.00000000      22.66665179      -0.00000683 </v>
   <v>      -0.00000966      -0.00000683      22.66665198 </v>
  </varray>
  <energy>
   <i name="e_fr_energy">     -4.88324791 </i>
   <i name="e_wo_entrp">     -4.88236482 </i>
   <i name="e_0_energy">     -4.88280636 </i>
  </energy>
  <time name="totalsc">    6.29    6.52</time>
 </calculation>
 <calculation>
  <scstep>
   <time name="dav">    0.39    0.39</time>
   <time name="total">    0.60    0.61</time>
   <energy>
    <i name="alphaZ">      2.32295607 </i>
    <i name="ewald">   -136.47334481 </i>
    <i name="hartreedc">     -0.40760286 </i>
    <i name="XCdc">     -8.74526559 </i>
    <i name="pawpsdc">    317.69700223 </i>
    <i name="pawaedc">   -300.11594821 </i>
    <i name="eentropy">     -0.00089507 </i>
    <i name="bandstr">     17.77026055 </i>
    <i name="atom">    103.06562707 </i>
    <i name="e_fr_energy">     -4.88721062 </i>
    <i name="e_wo_entrp">     -4.88631556 </i>
    <i name="e_0_energy">     -4.88676309 </i>
   </energy>
  </scstep>
  <scstep>
   <time name="dav">    0.49    0.50</time>
   <time name="total">    0.71    0.72</time>
   <energy>
    <i name="e_fr_energy">     -4.88624614 </i>
    <i name="e_wo_entrp">     -4.88535952 </i>
    <i name="e_0_energy">     -4.88580283 </i>
   </energy>
  </scstep>
  <scstep>
   <time name="dav">    0.41    0.41</time>
   <time name="total">    0.63    0.64</time>
   <energy>
    <i name="e_fr_energy">     -4.88568057 </i>
    <i name="e_wo_entrp">     -4.88480264 </i>
    <i name="e_0_energy">     -4.88524161 </i>
   </energy>
  </scstep>
  <scstep>
   <time name="dav">    0.52    0.52</time>
   <time name="total">    0.73    0.74</time>
   <energy>
    <i name="e_fr_energy">     -4.88567985 </i>
    <i name="e_wo_entrp">     -4.88480188 </i>
    <i name="e_0_energy">     -4.88524086 </i>
   </energy>
  </scstep>
  <scstep>
   <time name="dav">    0.33    0.33</time>
   <time name="total">    0.54    0.55</time>
   <energy>
    <i name="e_fr_energy">     -4.88567624 </i>
    <i name="e_wo_entrp">     -4.88479824 </i>
    <i name="e_0_energy">     -4.88523724 </i>
   </energy>
  </scstep>
  <scstep>
   <time name="dav">    0.27    0.27</time>
   <time name="total">    0.45    0.46</time>
   <energy>
    <i name="alphaZ">      2.32295607 </i>
    <i name="ewald">   -136.47334481 </i>
    <i name="hartreedc">     -0.45297532 </i>
    <i name="XCdc">     -8.75514021 </i>
    <i name="pawpsdc">    298.59266632 </i>
    <i name="pawaedc">   -281.00650625 </i>
    <i name="eentropy">     -0.00087799 </i>
    <i name="bandstr">     17.82191863 </i>
    <i name="atom">    103.06562707 </i>
    <i name="e_fr_energy">     -4.88567650 </i>
    <i name="e_wo_entrp">     -4.88479851 </i>
    <i name="e_0_energy">     -4.88523751 </i>
   </energy>
  </scstep>
  <structure>
   <crystal>
    <varray name="basis" >
     <v>       2.36995534      -0.00000000       1.36829320 </v>
     <v>       0.78998511       2.23441509       1.36829320 </v>
     <v>      -0.00000001      -0.00000001       2.73658844 </v>
    </varray>
    <i name="volume">     14.49150556 </i>
    <varray name="rec_basis" >
     <v>       0.42194888      -0.14918147       0.00000000 </v>
     <v>      -0.00000000       0.44754442       0.00000000 </v>
     <v>      -0.21097428      -0.14918136       0.36541848 </v>
    </varray>
   </crystal>
   <varray name="positions" >
    <v>       0.00000000       0.00000000      -0.00000000 </v>
   </varray>
  </structure>
  <varray name="forces" >
   <v>      -0.00000000      -0.00000000      -0.00000000 </v>
  </varray>
  <varray name="stress" >
   <v>      -2.92121272      -0.00000000       0.00000127 </v>
   <v>      -0.00000000      -2.92121210       0.00000090 </v>
   <v>       0.00000127       0.00000090      -2.92121213 </v>
  </varray>
  <energy>
   <i name="e_fr_energy">     -4.88567650 </i>
   <i name="e_wo_entrp">     -4.88479851 </i>
   <i name="e_0_energy">     -4.88523751 </i>
  </energy>
  <time name="totalsc">    4.51    4.68</time>
 </calculation>
 <calculation>
  <scstep>
   <time name="dav">    0.40    0.40</time>
   <time name="total">    0.61    0.62</time>
   <energy>
    <i name="alphaZ">      2.33115665 </i>
    <i name="ewald">   -136.63375047 </i>
    <i name="hartreedc">     -0.45350425 </i>
    <i name="XCdc">     -8.74606360 </i>
    <i name="pawpsdc">    298.48200369 </i>
    <i name="pawaedc">   -280.89584829 </i>
    <i name="eentropy">     -0.00086273 </i>
    <i name="bandstr">     17.96549514 </i>
    <i name="atom">    103.06562707 </i>
    <i name="e_fr_energy">     -4.88574680 </i>
    <i name="e_wo_entrp">     -4.88488406 </i>
    <i name="e_0_energy">     -4.88531543 </i>
   </energy>
  </scstep>
  <scstep>
   <time name="dav">    0.49    0.49</time>
   <time name="total">    0.70    0.72</time>
   <energy>
    <i name="e_fr_energy">     -4.88573180 </i>
    <i name="e_wo_entrp">     -4.88486904 </i>
    <i name="e_0_energy">     -4.88530042 </i>
   </energy>
  </scstep>
  <scstep>
   <time name="dav">    0.41    0.41</time>
   <time name="total">    0.63    0.64</time>
   <energy>
    <i name="e_fr_energy">     -4.88572364 </i>
    <i name="e_wo_entrp">     -4.88486079 </i>
    <i name="e_0_energy">     -4.88529222 </i>
   </energy>
  </scstep>
  <scstep>
   <time name="dav">    0.24    0.24</time>
   <time name="total">    0.45    0.46</time>
   <energy>
    <i name="e_fr_energy">     -4.88572367 </i>
    <i name="e_wo_entrp">     -4.88486082 </i>
    <i name="e_0_energy">     -4.88529224 </i>
   </energy>
  </scstep>
  <scstep>
   <time name="dav">    0.24    0.25</time>
   <time name="total">    0.46    0.47</time>
   <energy>
    <i name="e_fr_energy">     -4.88572392 </i>
    <i name="e_wo_entrp">     -4.88486107 </i>
    <i name="e_0_energy">     -4.88529249 </i>
   </energy>
  </scstep>
  <scstep>
   <time name="dav">    0.24    0.24</time>
   <time name="total">    0.42    0.43</time>
   <energy>
    <i name="alphaZ">      2.33115665 </i>
    <i name="ewald">   -136.63375047 </i>
    <i name="hartreedc">     -0.44758488 </i>
    <i name="XCdc">     -8.74483619 </i>
    <i name="pawpsdc">    300.64003120 </i>
    <i name="pawaedc">   -283.05447091 </i>
    <i name="eentropy">     -0.00086284 </i>
    <i name="bandstr">     17.95896650 </i>
    <i name="atom">    103.06562707 </i>
    <i name="e_fr_energy">     -4.88572388 </i>
    <i name="e_wo_entrp">     -4.88486104 </i>
    <i name="e_0_energy">     -4.88529246 </i>
   </energy>
  </scstep>
  <structure>
   <crystal>
    <varray name="basis" >
     <v>       2.36717306      -0.00000000       1.36668685 </v>
     <v>       0.78905768       2.23179193       1.36668685 </v>
     <v>      -0.00000001      -0.00000001       2.73337573 </v>
    </varray>
    <i name="volume">     14.44052712 </i>
    <varray name="rec_basis" >
     <v>       0.42244482      -0.14935681       0.00000000 </v>
     <v>      -0.00000000       0.44807044       0.00000000 </v>
     <v>      -0.21122225      -0.14935670       0.36584798 </v>
    </varray>
   </crystal>
   <varray name="positions" >
    <v>       0.00000000       0.00000000      -0.00000000 </v>
   </varray>
  </structure>
  <varray name="forces" >
   <v>      -0.00000000       0.00000000       0.00000000 </v>
  </varray>
  <varray name="stress" >
   <v>       0.00428063       0.00000000      -0.00000000 </v>
   <v>      -0.00000000       0.00428063      -0.00000000 </v>
   <v>      -0.00000000      -0.00000000       0.00428063 </v>
  </varray>
  <energy>
   <i name="e_fr_energy">     -4.88572388 </i>
   <i name="e_wo_entrp">     -4.88486104 </i>
   <i name="e_0_energy">     -4.88529246 </i>
  </energy>
  <time name="totalsc">    4.06    4.23</time>
  <eigenvalues>
   <array>
    <dimension dim="1">band</dimension>
    <dimension dim="2">kpoint</dimension>
    <dimension dim="3">spin</dimension>
    <field>eigene</field>
    <field>occ</field>
    <set>
     <set comment="spin 1">
      <set comment="kpoint 1">
       <r>   -4.2750    1.0000 </r>
       <r>   21.3622    0.0000 </r>
       <r>   21.3622    0.0000 </r>
       <r>   21.3622    0.0000 </r>
       <r>   22.1667    0.0000 </r>
       <r>   22.1667    0.0000 </r>
       <r>   22.1667    0.0000 </r>
       <r>   27.4825    0.0000 </r>
      </set>
      <set comment="kpoint 2">
       <r>   -4.1024    1.0000 </r>
       <r>   18.7897    0.0000 </r>
       <r>   20.5686    0.0000 </r>
       <r>   20.5687    0.0000 </r>
       <r>   23.1641    0.0000 </r>
       <r>   23.1641    0.0000 </r>
       <r>   23.2960    0.0000 </r>
       <r>   28.2377    0.0000 </r>
      </set>
      <set comment="kpoint 3">
       <r>   -3.5856    1.0000 </r>
       <r>   15.5013    0.0000 </r>
       <r>   19.7337    0.0000 </r>
       <r>   19.7337    0.0000 </r>
       <r>   23.4793    0.0000 </r>
       <r>   24.3104    0.0000 </r>
       <r>   24.3104    0.0000 </r>
       <r>   27.1634    0.0000 </r>
      </set>
      <set comment="kpoint 4">
       <r>   -2.7273    1.0000 </r>
       <r>   12.2822    0.0000 </r>
       <r>   19.1541    0.0000 </r>
       <r>   19.1541    0.0000 </r>
       <r>   23.3642    0.0000 </r>
       <r>   23.9489    0.0000 </r>
       <r>   23.9489    0.0000 </r>
       <r>   27.8799    0.0000 </r>
      </set>
      <set comment="kpoint 5">
       <r>   -1.5326    1.0000 </r>
       <r>    9.2691    1.0000 </r>
       <r>   18.8346    0.0000 </r>
       <r>   18.8346    0.0000 </r>
       <r>   22.7749    0.0000 </r>
       <r>   22.7749    0.0000 </r>
       <r>   23.2986    0.0000 </r>
       <r>   27.9681    0.0000 </r>
      </set>
      <set comment="kpoint 6">
       <r>   -0.0095    1.0000 </r>
       <r>    6.5181    1.0000 </r>
       <r>   18.7383    0.0000 </r>
       <r>   18.7383    0.0000 </r>
       <r>   21.7577    0.0000 </r>
       <r>   21.7577    0.0000 </r>
       <r>   23.3688    0.0000 </r>
       <r>   26.8071    0.0000 </r>
      </set>
      <set comment="kpoint 7">
       <r>    1.8128    1.0000 </r>
       <r>    4.0775    1.0000 </r>
       <r>   18.7667    0.0000 </r>
       <r>   18.7667    0.0000 </r>
       <r>   21.1525    0.0000 </r>
       <r>   21.1525    0.0000 </r>
       <r>   23.4994    0.0000 </r>
       <r>   26.1038    0.0000 </r>
      </set>
      <set comment="kpoint 8">
       <r>   -4.0449    1.0000 </r>
       <r>   19.4051    0.0000 </r>
       <r>   19.4051    0.0000 </r>
       <r>   20.8325    0.0000 </r>
       <r>   21.0024    0.0000 </r>
       <r>   24.4031    0.0000 </r>
       <r>   24.4031    0.0000 </r>
       <r>   26.7975    0.0000 </r>
      </set>
      <set comment="kpoint 9">
       <r>   -3.6429    1.0000 </r>
       <r>   16.6912    0.0000 </r>
       <r>   18.4739    0.0000 </r>
       <r>   20.1291    0.0000 </r>
       <r>   21.7003    0.0000 </r>
       <r>   25.0071    0.0000 </r>
       <r>   25.2446    0.0000 </r>
       <r>   25.6963    0.0000 </r>
      </set>
      <set comment="kpoint 10">
       <r>   -2.8985    1.0000 </r>
       <r>   13.4629    0.0000 </r>
       <r>   17.8219    0.0000 </r>
       <r>   19.4340    0.0000 </r>
       <r>   22.0332    0.0000 </r>
       <r>   24.4360    0.0000 </r>
       <r>   25.5881    0.0000 </r>
       <r>   25.8996    0.0000 </r>
      </set>
      <set comment="kpoint 11">
       <r>   -1.8160    1.0000 </r>
       <r>   10.3836    0.0000 </r>
       <r>   17.4579    0.0000 </r>
       <r>   18.8600    0.0000 </r>
       <r>   21.0718    0.0000 </r>
       <r>   24.6219    0.0000 </r>
       <r>   24.8181    0.0000 </r>
       <r>   27.0180    0.0000 </r>
      </set>
      <set comment="kpoint 12">
       <r>   -0.4020    1.0000 </r>
       <r>    7.5460    1.0000 </r>
       <r>   17.3822    0.0000 </r>
       <r>   18.2584    0.0000 </r>
       <r>   20.3674    0.0000 </r>
       <r>   23.6590    0.0000 </r>
       <r>   24.6637    0.0000 </r>
       <r>   28.2443    0.0000 </r>
      </set>
      <set comment="kpoint 13">
       <r>    1.3279    1.0000 </r>
       <r>    4.9953    1.0000 </r>
       <r>   17.5664    0.0000 </r>
       <r>   17.5849    0.0000 </r>
       <r>   20.2887    0.0000 </r>
       <r>   22.7174    0.0000 </r>
       <r>   24.6794    0.0000 </r>
       <r>   27.6606    0.0000 </r>
      </set>
      <set comment="kpoint 14">
       <r>    2.5746    1.0000 </r>
       <r>    3.5423    1.0000 </r>
       <r>   16.9592    0.0000 </r>
       <r>   18.0434    0.0000 </r>
       <r>   20.7104    0.0000 </r>
       <r>   22.0787    0.0000 </r>
       <r>   24.5769    0.0000 </r>
       <r>   27.5664    0.0000 </r>
      </set>
      <set comment="kpoint 15">
       <r>    0.7183    1.0000 </r>
       <r>    5.8103    1.0000 </r>
       <r>   16.5700    0.0000 </r>
       <r>   18.7061    0.0000 </r>
       <r>   21.5094    0.0000 </r>
       <r>   21.8171    0.0000 </r>
       <r>   24.3844    0.0000 </r>
       <r>   28.0769    0.0000 </r>
      </set>
      <set comment="kpoint 16">
       <r>   -0.9096    1.0000 </r>
       <r>    8.4614    1.0000 </r>
       <r>   16.4501    0.0000 </r>
       <r>   19.4652    0.0000 </r>
       <r>   22.0233    0.0000 </r>
       <r>   22.6139    0.0000 </r>
       <r>   24.2376    0.0000 </r>
       <r>   28.9204    0.0000 </r>
      </set>
      <set comment="kpoint 17">
       <r>   -2.2141    1.0000 </r>
       <r>   11.3840    0.0000 </r>
       <r>   16.6186    0.0000 </r>
       <r>   20.1951    0.0000 </r>
       <r>   22.7351    0.0000 </r>
       <r>   23.9361    0.0000 </r>
       <r>   24.1995    0.0000 </r>
       <r>   26.9254    0.0000 </r>
      </set>
      <set comment="kpoint 18">
       <r>   -3.1845    1.0000 </r>
       <r>   14.5243    0.0000 </r>
       <r>   17.0816    0.0000 </r>
       <r>   20.9051    0.0000 </r>
       <r>   23.3355    0.0000 </r>
       <r>   24.1525    0.0000 </r>
       <r>   25.1296    0.0000 </r>
       <r>   25.6310    0.0000 </r>
      </set>
      <set comment="kpoint 19">
       <r>   -3.8151    1.0000 </r>
       <r>   17.6357    0.0000 </r>
       <r>   17.9609    0.0000 </r>
       <r>   21.4513    0.0000 </r>
       <r>   22.6067    0.0000 </r>
       <r>   23.7876    0.0000 </r>
       <r>   24.8239    0.0000 </r>
       <r>   26.5998    0.0000 </r>
      </set>
      <set comment="kpoint 20">
       <r>   -3.3561    1.0000 </r>
       <r>   17.4449    0.0000 </r>
       <r>   17.4449    0.0000 </r>
       <r>   19.0786    0.0000 </r>
       <r>   19.4389    0.0000 </r>
       <r>   22.9716    0.0000 </r>
       <r>   27.1694    0.0000 </r>
       <r>   27.1694    0.0000 </r>
      </set>
      <set comment="kpoint 21">
       <r>   -2.7268    1.0000 </r>
       <r>   14.8684    0.0000 </r>
       <r>   16.6982    0.0000 </r>
       <r>   18.4001    0.0000 </r>
       <r>   19.5902    0.0000 </r>
       <r>   21.8591    0.0000 </r>
       <r>   27.9462    0.0000 </r>
       <r>   27.9890    0.0000 </r>
      </set>
      <set comment="kpoint 22">
       <r>   -1.7584    1.0000 </r>
       <r>   11.7861    0.0000 </r>
       <r>   16.2447    0.0000 </r>
       <r>   17.3704    0.0000 </r>
       <r>   19.1786    0.0000 </r>
       <r>   23.0763    0.0000 </r>
       <r>   27.2076    0.0000 </r>
       <r>   28.1041    0.0000 </r>
      </set>
      <set comment="kpoint 23">
       <r>   -0.4567    1.0000 </r>
       <r>    8.8838    1.0000 </r>
       <r>   16.0867    0.0000 </r>
       <r>   16.2067    0.0000 </r>
       <r>   18.8365    0.0000 </r>
       <r>   25.0502    0.0000 </r>
       <r>   26.0557    0.0000 </r>
       <r>   28.2724    0.0000 </r>
      </set>
      <set comment="kpoint 24">
       <r>    1.1679    1.0000 </r>
       <r>    6.2430    1.0000 </r>
       <r>   15.1420    0.0000 </r>
       <r>   16.2230    0.0000 </r>
       <r>   18.9142    0.0000 </r>
       <r>   25.0387    0.0000 </r>
       <r>   26.4227    0.0000 </r>
       <r>   29.2059    0.0000 </r>
      </set>
      <set comment="kpoint 25">
       <r>    3.0245    1.0000 </r>
       <r>    3.9765    1.0000 </r>
       <r>   14.3097    0.0000 </r>
       <r>   16.6482    0.0000 </r>
       <r>   19.3589    0.0000 </r>
       <r>   24.2654    0.0000 </r>
       <r>   26.5659    0.0000 </r>
       <r>   30.7292    0.0000 </r>
      </set>
      <set comment="kpoint 26">
       <r>    1.7763    1.0000 </r>
       <r>    5.4281    1.0000 </r>
       <r>   13.7619    0.0000 </r>
       <r>   17.3513    0.0000 </r>
       <r>   20.1366    0.0000 </r>
       <r>   23.7841    0.0000 </r>
       <r>   26.3097    0.0000 </r>
       <r>   31.0481    0.0000 </r>
      </set>
      <set comment="kpoint 27">
       <r>    0.0494    1.0000 </r>
       <r>    7.9661    1.0000 </r>
       <r>   13.5181    0.0000 </r>
       <r>   18.3084    0.0000 </r>
       <r>   21.2201    0.0000 </r>
       <r>   23.6230    0.0000 </r>
       <r>   26.0189    0.0000 </r>
       <r>   28.7037    0.0000 </r>
      </set>
      <set comment="kpoint 28">
       <r>   -1.3616    1.0000 </r>
       <r>   10.7697    0.0000 </r>
       <r>   13.5965    0.0000 </r>
       <r>   19.4614    0.0000 </r>
       <r>   22.5644    0.0000 </r>
       <r>   23.8001    0.0000 </r>
       <r>   25.7131    0.0000 </r>
       <r>   26.2851    0.0000 </r>
      </set>
      <set comment="kpoint 29">
       <r>   -2.4418    1.0000 </r>
       <r>   13.5278    0.0000 </r>
       <r>   14.2559    0.0000 </r>
       <r>   20.6293    0.0000 </r>
       <r>   23.9321    0.0000 </r>
       <r>   24.0513    0.0000 </r>
       <r>   24.7326    0.0000 </r>
       <r>   25.1520    0.0000 </r>
      </set>
      <set comment="kpoint 30">
       <r>   -2.2131    1.0000 </r>
       <r>   15.8538    0.0000 </r>
       <r>   15.8538    0.0000 </r>
       <r>   16.9811    0.0000 </r>
       <r>   17.3599    0.0000 </r>
       <r>   19.9794    0.0000 </r>
       <r>   29.9339    0.0000 </r>
       <r>   29.9339    0.0000 </r>
      </set>
      <set comment="kpoint 31">
       <r>   -1.3603    1.0000 </r>
       <r>   13.4075    0.0000 </r>
       <r>   15.3019    0.0000 </r>
       <r>   15.4533    0.0000 </r>
       <r>   17.6330    0.0000 </r>
       <r>   20.0534    0.0000 </r>
       <r>   29.7507    0.0000 </r>
       <r>   30.7023    0.0000 </r>
      </set>
      <set comment="kpoint 32">
       <r>   -0.1732    1.0000 </r>
       <r>   10.5060    0.0000 </r>
       <r>   13.9649    0.0000 </r>
       <r>   15.0484    0.0000 </r>
       <r>   17.5909    0.0000 </r>
       <r>   21.9494    0.0000 </r>
       <r>   28.7041    0.0000 </r>
       <r>   30.7278    0.0000 </r>
      </set>
      <set comment="kpoint 33">
       <r>    1.3399    1.0000 </r>
       <r>    7.8008    1.0000 </r>
       <r>   12.6988    0.0000 </r>
       <r>   15.0931    0.0000 </r>
       <r>   17.6747    0.0000 </r>
       <r>   24.3754    0.0000 </r>
       <r>   27.6657    0.0000 </r>
       <r>   30.4032    0.0000 </r>
      </set>
      <set comment="kpoint 34">
       <r>    3.1526    1.0000 </r>
       <r>    5.3819    1.0000 </r>
       <r>   11.7164    0.0000 </r>
       <r>   15.4340    0.0000 </r>
       <r>   18.0624    0.0000 </r>
       <r>   26.8206    0.0000 </r>
       <r>   26.8224    0.0000 </r>
       <r>   30.0464    0.0000 </r>
      </set>
      <set comment="kpoint 35">
       <r>    3.1535    1.0000 </r>
       <r>    5.3750    1.0000 </r>
       <r>   11.0437    0.0000 </r>
       <r>   16.0666    0.0000 </r>
       <r>   18.7684    0.0000 </r>
       <r>   26.2385    0.0000 </r>
       <r>   28.1875    0.0000 </r>
       <r>   30.4567    0.0000 </r>
      </set>
      <set comment="kpoint 36">
       <r>    1.3391    1.0000 </r>
       <r>    7.7687    1.0000 </r>
       <r>   10.7076    0.0000 </r>
       <r>   16.9803    0.0000 </r>
       <r>   19.7828    0.0000 </r>
       <r>   25.9401    0.0000 </r>
       <r>   27.9487    0.0000 </r>
       <r>   28.5598    0.0000 </r>
      </set>
      <set comment="kpoint 37">
       <r>   -0.1745    1.0000 </r>
       <r>   10.1187    0.9916 </r>
       <r>   11.0274    0.0000 </r>
       <r>   18.1469    0.0000 </r>
       <r>   21.0749    0.0000 </r>
       <r>   25.8352    0.0000 </r>
       <r>   26.1131    0.0000 </r>
       <r>   27.0923    0.0000 </r>
      </set>
      <set comment="kpoint 38">
       <r>   -0.6238    1.0000 </r>
       <r>   13.5014    0.0000 </r>
       <r>   14.6515    0.0000 </r>
       <r>   14.6515    0.0000 </r>
       <r>   16.0160    0.0000 </r>
       <r>   18.4023    0.0000 </r>
       <r>   32.1076    0.0000 </r>
       <r>   32.4819    0.0000 </r>
      </set>
      <set comment="kpoint 39">
       <r>    0.4468    1.0000 </r>
       <r>   11.7538    0.0000 </r>
       <r>   12.4787    0.0000 </r>
       <r>   14.2996    0.0000 </r>
       <r>   16.4843    0.0000 </r>
       <r>   18.9846    0.0000 </r>
       <r>   31.4437    0.0000 </r>
       <r>   33.0999    0.0000 </r>
      </set>
      <set comment="kpoint 40">
       <r>    1.8439    1.0000 </r>
       <r>    9.5859    1.0000 </r>
       <r>   10.5237    0.0000 </r>
       <r>   14.2471    0.0000 </r>
       <r>   16.6829    0.0000 </r>
       <r>   21.1843    0.0000 </r>
       <r>   30.4758    0.0000 </r>
       <r>   32.8239    0.0000 </r>
      </set>
      <set comment="kpoint 41">
       <r>    3.5510    1.0000 </r>
       <r>    7.1331    1.0000 </r>
       <r>    9.3686    1.0000 </r>
       <r>   14.4935    0.0000 </r>
       <r>   17.0140    0.0000 </r>
       <r>   23.8812    0.0000 </r>
       <r>   29.5972    0.0000 </r>
       <r>   32.0802    0.0000 </r>
      </set>
      <set comment="kpoint 42">
       <r>    4.8073    1.0000 </r>
       <r>    5.6586    1.0000 </r>
       <r>    8.5876    1.0000 </r>
       <r>   15.0367    0.0000 </r>
       <r>   17.6368    0.0000 </r>
       <r>   26.7279    0.0000 </r>
       <r>   28.9157    0.0000 </r>
       <r>   31.0558    0.0000 </r>
      </set>
      <set comment="kpoint 43">
       <r>    2.9490    1.0000 </r>
       <r>    7.5340    1.0000 </r>
       <r>    8.4930    1.0000 </r>
       <r>   15.8708    0.0000 </r>
       <r>   18.5660    0.0000 </r>
       <r>   28.2105    0.0000 </r>
       <r>   29.0735    0.0000 </r>
       <r>   29.3407    0.0000 </r>
      </set>
      <set comment="kpoint 44">
       <r>    1.3990    1.0000 </r>
       <r>    9.9901    1.0000 </r>
       <r>   13.8480    0.0000 </r>
       <r>   13.8480    0.0000 </r>
       <r>   15.1139    0.0000 </r>
       <r>   17.5077    0.0000 </r>
       <r>   33.5585    0.0000 </r>
       <r>   34.6856    0.0000 </r>
      </set>
      <set comment="kpoint 45">
       <r>    2.6750    1.0000 </r>
       <r>    8.4430    1.0000 </r>
       <r>   11.7778    0.0000 </r>
       <r>   13.6967    0.0000 </r>
       <r>   15.8136    0.0000 </r>
       <r>   18.3603    0.0000 </r>
       <r>   33.1818    0.0000 </r>
       <r>   35.0047    0.0000 </r>
      </set>
      <set comment="kpoint 46">
       <r>    4.2502    1.0000 </r>
       <r>    7.2077    1.0000 </r>
       <r>    9.2897    1.0000 </r>
       <r>   13.8455    0.0000 </r>
       <r>   16.2367    0.0000 </r>
       <r>   20.7949    0.0000 </r>
       <r>   32.3577    0.0000 </r>
       <r>   34.2624    0.0000 </r>
      </set>
      <set comment="kpoint 47">
       <r>    5.8053    1.0000 </r>
       <r>    6.4092    1.0000 </r>
       <r>    7.2328    1.0000 </r>
       <r>   14.2933    0.0000 </r>
       <r>   16.7947    0.0000 </r>
       <r>   23.7087    0.0000 </r>
       <r>   31.2815    0.0000 </r>
       <r>   32.5901    0.0000 </r>
      </set>
      <set comment="kpoint 48">
       <r>    3.8139    1.0000 </r>
       <r>    6.7985    1.0000 </r>
       <r>   13.4456    0.0000 </r>
       <r>   13.4456    0.0000 </r>
       <r>   14.6599    0.0000 </r>
       <r>   17.0711    0.0000 </r>
       <r>   34.6835    0.0000 </r>
       <r>   36.2228    0.0000 </r>
      </set>
      <set comment="kpoint 49">
       <r>    4.9400    1.0000 </r>
       <r>    5.7903    1.0000 </r>
       <r>   11.5618    0.0000 </r>
       <r>   13.4955    0.0000 </r>
       <r>   15.5906    0.0000 </r>
       <r>   18.1526    0.0000 </r>
       <r>   34.2658    0.0000 </r>
       <r>   35.8338    0.0000 </r>
      </set>
      <set comment="kpoint 50">
       <r>   -3.1272    1.0000 </r>
       <r>   15.6040    0.0000 </r>
       <r>   16.1053    0.0000 </r>
       <r>   20.4000    0.0000 </r>
       <r>   21.2717    0.0000 </r>
       <r>   23.5607    0.0000 </r>
       <r>   26.2801    0.0000 </r>
       <r>   26.3633    0.0000 </r>
      </set>
      <set comment="kpoint 51">
       <r>   -2.2707    1.0000 </r>
       <r>   12.6606    0.0000 </r>
       <r>   15.3425    0.0000 </r>
       <r>   19.4165    0.0000 </r>
       <r>   21.4792    0.0000 </r>
       <r>   23.7858    0.0000 </r>
       <r>   25.6997    0.0000 </r>
       <r>   26.7532    0.0000 </r>
      </set>
      <set comment="kpoint 52">
       <r>   -1.0785    1.0000 </r>
       <r>    9.6830    1.0000 </r>
       <r>   15.0669    0.0000 </r>
       <r>   18.2073    0.0000 </r>
       <r>   21.1104    0.0000 </r>
       <r>   24.1077    0.0000 </r>
       <r>   25.6947    0.0000 </r>
       <r>   27.2916    0.0000 </r>
      </set>
      <set comment="kpoint 53">
       <r>    0.4415    1.0000 </r>
       <r>    6.9473    1.0000 </r>
       <r>   15.0909    0.0000 </r>
       <r>   17.0986    0.0000 </r>
       <r>   21.0296    0.0000 </r>
       <r>   23.1045    0.0000 </r>
       <r>   26.2740    0.0000 </r>
       <r>   29.0488    0.0000 </r>
      </set>
      <set comment="kpoint 54">
       <r>    2.2613    1.0000 </r>
       <r>    4.5137    1.0000 </r>
       <r>   15.3544    0.0000 </r>
       <r>   16.2710    0.0000 </r>
       <r>   21.1868    0.0000 </r>
       <r>   22.3512    0.0000 </r>
       <r>   26.4482    0.0000 </r>
       <r>   29.8079    0.0000 </r>
      </set>
      <set comment="kpoint 55">
       <r>   -1.9856    1.0000 </r>
       <r>   13.9342    0.0000 </r>
       <r>   14.5105    0.0000 </r>
       <r>   17.5115    0.0000 </r>
       <r>   19.6693    0.0000 </r>
       <r>   21.2287    0.0000 </r>
       <r>   27.8670    0.0000 </r>
       <r>   29.3254    0.0000 </r>
      </set>
      <set comment="kpoint 56">
       <r>   -0.9077    1.0000 </r>
       <r>   11.1805    0.0000 </r>
       <r>   13.9031    0.0000 </r>
       <r>   16.0278    0.0000 </r>
       <r>   19.9008    0.0000 </r>
       <r>   22.5552    0.0000 </r>
       <r>   26.8326    0.0000 </r>
       <r>   29.8278    0.0000 </r>
      </set>
      <set comment="kpoint 57">
       <r>    0.5003    1.0000 </r>
       <r>    8.3914    1.0000 </r>
       <r>   13.7632    0.0000 </r>
       <r>   14.7602    0.0000 </r>
       <r>   19.8978    0.0000 </r>
       <r>   24.5673    0.0000 </r>
       <r>   25.9570    0.0000 </r>
       <r>   29.9035    0.0000 </r>
      </set>
      <set comment="kpoint 58">
       <r>    2.2233    1.0000 </r>
       <r>    5.8618    1.0000 </r>
       <r>   13.4027    0.0000 </r>
       <r>   14.2997    0.0000 </r>
       <r>   20.1506    0.0000 </r>
       <r>   24.4973    0.0000 </r>
       <r>   27.3791    0.0000 </r>
       <r>   29.9416    0.0000 </r>
      </set>
      <set comment="kpoint 59">
       <r>    3.4731    1.0000 </r>
       <r>    4.4076    1.0000 </r>
       <r>   12.7199    0.0000 </r>
       <r>   14.7671    0.0000 </r>
       <r>   20.6871    0.0000 </r>
       <r>   23.8621    0.0000 </r>
       <r>   28.4656    0.0000 </r>
       <r>   30.3524    0.0000 </r>
      </set>
      <set comment="kpoint 60">
       <r>    1.6158    1.0000 </r>
       <r>    6.6667    1.0000 </r>
       <r>   12.2783    0.0000 </r>
       <r>   15.6060    0.0000 </r>
       <r>   21.4815    0.0000 </r>
       <r>   23.4936    0.0000 </r>
       <r>   27.7562    0.0000 </r>
       <r>   29.4554    0.0000 </r>
      </set>
      <set comment="kpoint 61">
       <r>   -0.0056    1.0000 </r>
       <r>    9.2739    1.0000 </r>
       <r>   12.1563    0.0000 </r>
       <r>   16.7385    0.0000 </r>
       <r>   22.4003    0.0000 </r>
       <r>   23.4702    0.0000 </r>
       <r>   25.7898    0.0000 </r>
       <r>   28.7551    0.0000 </r>
      </set>
      <set comment="kpoint 62">
       <r>   -1.3045    1.0000 </r>
       <r>   11.8302    0.0000 </r>
       <r>   12.6513    0.0000 </r>
       <r>   18.1062    0.0000 </r>
       <r>   22.9348    0.0000 </r>
       <r>   23.2015    0.0000 </r>
       <r>   24.8012    0.0000 </r>
       <r>   28.0314    0.0000 </r>
      </set>
      <set comment="kpoint 63">
       <r>   -0.3983    1.0000 </r>
       <r>   12.6682    0.0000 </r>
       <r>   13.1157    0.0000 </r>
       <r>   14.0334    0.0000 </r>
       <r>   18.4137    0.0000 </r>
       <r>   19.9215    0.0000 </r>
       <r>   29.4161    0.0000 </r>
       <r>   32.1851    0.0000 </r>
      </set>
      <set comment="kpoint 64">
       <r>    0.8946    1.0000 </r>
       <r>   10.1004    0.9982 </r>
       <r>   12.1832    0.0000 </r>
       <r>   13.0907    0.0000 </r>
       <r>   18.8506    0.0000 </r>
       <r>   21.6369    0.0000 </r>
       <r>   28.4014    0.0000 </r>
       <r>   32.5222    0.0000 </r>
      </set>
      <set comment="kpoint 65">
       <r>    2.5074    1.0000 </r>
       <r>    7.5195    1.0000 </r>
       <r>   11.0693    0.0000 </r>
       <r>   13.1301    0.0000 </r>
       <r>   19.0884    0.0000 </r>
       <r>   24.1442    0.0000 </r>
       <r>   27.4755    0.0000 </r>
       <r>   31.9822    0.0000 </r>
      </set>
      <set comment="kpoint 66">
       <r>    4.3611    1.0000 </r>
       <r>    5.2649    1.0000 </r>
       <r>   10.1920    0.6250 </r>
       <r>   13.5716    0.0000 </r>
       <r>   19.5756    0.0000 </r>
       <r>   26.1389    0.0000 </r>
       <r>   27.4467    0.0000 </r>
       <r>   30.6104    0.0000 </r>
      </set>
      <set comment="kpoint 67">
       <r>    3.1121    1.0000 </r>
       <r>    6.6885    1.0000 </r>
       <r>    9.6438    1.0000 </r>
       <r>   14.3353    0.0000 </r>
       <r>   20.3451    0.0000 </r>
       <r>   25.9318    0.0000 </r>
       <r>   28.2419    0.0000 </r>
       <r>   29.7409    0.0000 </r>
      </set>
      <set comment="kpoint 68">
       <r>    1.3960    1.0000 </r>
       <r>    8.8285    1.0000 </r>
       <r>    9.7622    1.0000 </r>
       <r>   15.4008    0.0000 </r>
       <r>   21.3719    0.0000 </r>
       <r>   25.4377    0.0000 </r>
       <r>   26.0037    0.0000 </r>
       <r>   30.3654    0.0000 </r>
      </set>
      <set comment="kpoint 69">
       <r>    1.6218    1.0000 </r>
       <r>   10.1755    0.7840 </r>
       <r>   11.8197    0.0000 </r>
       <r>   12.6092    0.0000 </r>
       <r>   17.5628    0.0000 </r>
       <r>   19.1076    0.0000 </r>
       <r>   31.1786    0.0000 </r>
       <r>   34.6043    0.0000 </r>
      </set>
      <set comment="kpoint 70">
       <r>    3.1159    1.0000 </r>
       <r>    8.7879    1.0000 </r>
       <r>    9.5856    1.0000 </r>
       <r>   12.3509    0.0000 </r>
       <r>   18.2203    0.0000 </r>
       <r>   21.0698    0.0000 </r>
       <r>   30.2983    0.0000 </r>
       <r>   33.8163    0.0000 </r>
      </set>
      <set comment="kpoint 71">
       <r>    4.8944    1.0000 </r>
       <r>    7.0107    1.0000 </r>
       <r>    8.0077    1.0000 </r>
       <r>   12.6878    0.0000 </r>
       <r>   18.6796    0.0000 </r>
       <r>   23.8337    0.0000 </r>
       <r>   29.4956    0.0000 </r>
       <r>   31.5779    0.0000 </r>
      </set>
      <set comment="kpoint 72">
       <r>    4.9071    1.0000 </r>
       <r>    6.6701    1.0000 </r>
       <r>    7.6448    1.0000 </r>
       <r>   13.3567    0.0000 </r>
       <r>   19.3794    0.0000 </r>
       <r>   26.6650    0.0000 </r>
       <r>   28.6836    0.0000 </r>
       <r>   29.1548    0.0000 </r>
      </set>
      <set comment="kpoint 73">
       <r>    4.0327    1.0000 </r>
       <r>    7.0103    1.0000 </r>
       <r>   11.3942    0.0000 </r>
       <r>   12.1653    0.0000 </r>
       <r>   17.1345    0.0000 </r>
       <r>   18.7011    0.0000 </r>
       <r>   33.0332    0.0000 </r>
       <r>   34.7592    0.0000 </r>
      </set>
      <set comment="kpoint 74">
       <r>    5.3728    1.0000 </r>
       <r>    6.2119    1.0000 </r>
       <r>    9.3055    1.0000 </r>
       <r>   12.1330    0.0000 </r>
       <r>   18.0108    0.0000 </r>
       <r>   20.8779    0.0000 </r>
       <r>   32.2385    0.0000 </r>
       <r>   32.4549    0.0000 </r>
      </set>
      <set comment="kpoint 75">
       <r>    0.2767    1.0000 </r>
       <r>   10.5474    0.0000 </r>
       <r>   11.3883    0.0000 </r>
       <r>   14.4965    0.0000 </r>
       <r>   21.7508    0.0000 </r>
       <r>   22.5467    0.0000 </r>
       <r>   25.7689    0.0000 </r>
       <r>   31.3823    0.0000 </r>
      </set>
      <set comment="kpoint 76">
       <r>    1.7864    1.0000 </r>
       <r>    8.1945    1.0000 </r>
       <r>   11.0779    0.0000 </r>
       <r>   13.2213    0.0000 </r>
       <r>   22.1267    0.0000 </r>
       <r>   23.9179    0.0000 </r>
       <r>   25.4770    0.0000 </r>
       <r>   31.7099    0.0000 </r>
      </set>
      <set comment="kpoint 77">
       <r>    3.5963    1.0000 </r>
       <r>    5.8068    1.0000 </r>
       <r>   11.3342    0.0000 </r>
       <r>   12.3134    0.0000 </r>
       <r>   22.3093    0.0000 </r>
       <r>   23.6277    0.0000 </r>
       <r>   27.6634    0.0000 </r>
       <r>   30.2625    0.0000 </r>
      </set>
      <set comment="kpoint 78">
       <r>    2.2882    1.0000 </r>
       <r>    9.6891    1.0000 </r>
       <r>   10.2904    0.0069 </r>
       <r>   11.2244    0.0000 </r>
       <r>   20.9309    0.0000 </r>
       <r>   21.9312    0.0000 </r>
       <r>   27.4232    0.0000 </r>
       <r>   33.3843    0.0000 </r>
      </set>
      <set comment="kpoint 79">
       <r>    3.9914    1.0000 </r>
       <r>    7.5326    1.0000 </r>
       <r>    9.6544    1.0000 </r>
       <r>   10.6737    0.0000 </r>
       <r>   21.6118    0.0000 </r>
       <r>   24.1125    0.0000 </r>
       <r>   26.6214    0.0000 </r>
       <r>   31.0478    0.0000 </r>
      </set>
      <set comment="kpoint 80">
       <r>    5.2453    1.0000 </r>
       <r>    6.0837    1.0000 </r>
       <r>    8.9729    1.0000 </r>
       <r>   11.1322    0.0000 </r>
       <r>   22.1610    0.0000 </r>
       <r>   25.3878    0.0000 </r>
       <r>   27.0501    0.0000 </r>
       <r>   28.7276    0.0000 </r>
      </set>
      <set comment="kpoint 81">
       <r>    3.3911    1.0000 </r>
       <r>    7.9664    1.0000 </r>
       <r>    8.8849    1.0000 </r>
       <r>   12.0086    0.0000 </r>
       <r>   22.8667    0.0000 </r>
       <r>   24.6768    0.0000 </r>
       <r>   25.6770    0.0000 </r>
       <r>   30.5063    0.0000 </r>
      </set>
      <set comment="kpoint 82">
       <r>    4.6864    1.0000 </r>
       <r>    7.6232    1.0000 </r>
       <r>    9.2597    1.0000 </r>
       <r>   10.2874    0.0087 </r>
       <r>   20.5166    0.0000 </r>
       <r>   21.5923    0.0000 </r>
       <r>   29.4575    0.0000 </r>
       <r>   31.6891    0.0000 </r>
      </set>
      <set comment="kpoint 83">
       <r>    6.2380    1.0000 </r>
       <r>    6.8518    1.0000 </r>
       <r>    7.5839    1.0000 </r>
       <r>   10.3595    0.0000 </r>
       <r>   21.4252    0.0000 </r>
       <r>   24.0267    0.0000 </r>
       <r>   28.3326    0.0000 </r>
       <r>   29.2044    0.0000 </r>
      </set>
      <set comment="kpoint 84">
       <r>    5.7592    1.0000 </r>
       <r>    7.5347    1.0000 </r>
       <r>    8.1649    1.0000 </r>
       <r>    9.1681    1.0000 </r>
       <r>   24.1775    0.0000 </r>
       <r>   24.2808    0.0000 </r>
       <r>   25.9259    0.0000 </r>
       <r>   28.4419    0.0000 </r>
      </set>
     </set>
    </set>
   </array>
  </eigenvalues>
  <separator name="orbital magnetization" >
   <v name="MAGDIPOLOUT">      0.00000000      0.00000000      0.00000000</v>
  </separator>
  <dos>
   <i name="efermi">     10.20329051 </i>
   <total>
    <array>
     <dimension dim="1">gridpoints</dimension>
     <dimension dim="2">spin</dimension>
     <field>energy</field>
     <field>total</field>
     <field>integrated</field>
     <set>
      <set comment="spin 1">
       <r>    -6.2999     0.0000     0.0000 </r>
       <r>    -6.1514     0.0000     0.0000 </r>
       <r>    -6.0029     0.0000     0.0000 </r>
       <r>    -5.8544     0.0000     0.0000 </r>
       <r>    -5.7059     0.0000     0.0000 </r>
       <r>    -5.5574     0.0000     0.0000 </r>
       <r>    -5.4090     0.0000     0.0000 </r>
       <r>    -5.2605     0.0000     0.0000 </r>
       <r>    -5.1120     0.0000     0.0000 </r>
       <r>    -4.9635     0.0000     0.0000 </r>
       <r>    -4.8150     0.0000     0.0000 </r>
       <r>    -4.6665     0.0000     0.0000 </r>
       <r>    -4.5180     0.0000     0.0000 </r>
       <r>    -4.3695     0.0000     0.0000 </r>
       <r>    -4.2210     0.0057     0.0009 </r>
       <r>    -4.0725     0.0477     0.0079 </r>
       <r>    -3.9240     0.0386     0.0137 </r>
       <r>    -3.7755     0.0638     0.0231 </r>
       <r>    -3.6270     0.1146     0.0402 </r>
       <r>    -3.4786     0.0912     0.0537 </r>
       <r>    -3.3301     0.0284     0.0579 </r>
       <r>    -3.1816     0.0961     0.0722 </r>
       <r>    -3.0331     0.2061     0.1028 </r>
       <r>    -2.8846     0.0967     0.1171 </r>
       <r>    -2.7361     0.1291     0.1363 </r>
       <r>    -2.5876     0.1181     0.1538 </r>
       <r>    -2.4391     0.0390     0.1596 </r>
       <r>    -2.2906     0.1218     0.1777 </r>
       <r>    -2.1421     0.3870     0.2352 </r>
       <r>    -1.9936     0.0643     0.2447 </r>
       <r>    -1.8451     0.1179     0.2623 </r>
       <r>    -1.6967     0.2571     0.3004 </r>
       <r>    -1.5482     0.0221     0.3037 </r>
       <r>    -1.3997     0.0736     0.3147 </r>
       <r>    -1.2512     0.3907     0.3727 </r>
       <r>    -1.1027     0.0825     0.3849 </r>
       <r>    -0.9542     0.2646     0.4242 </r>
       <r>    -0.8057     0.3977     0.4833 </r>
       <r>    -0.6572     0.0072     0.4843 </r>
       <r>    -0.5087     0.0411     0.4904 </r>
       <r>    -0.3602     0.3921     0.5487 </r>
       <r>    -0.2117     0.0697     0.5590 </r>
       <r>    -0.0632     0.2079     0.5899 </r>
       <r>     0.0853     0.4477     0.6563 </r>
       <r>     0.2337     0.0410     0.6624 </r>
       <r>     0.3822     0.1493     0.6846 </r>
       <r>     0.5307     0.6568     0.7821 </r>
       <r>     0.6792     0.0800     0.7940 </r>
       <r>     0.8277     0.1358     0.8142 </r>
       <r>     0.9762     0.2827     0.8562 </r>
       <r>     1.1247     0.0194     0.8590 </r>
       <r>     1.2732     0.1486     0.8811 </r>
       <r>     1.4217     0.5601     0.9643 </r>
       <r>     1.5702     0.0870     0.9772 </r>
       <r>     1.7187     0.4168     1.0391 </r>
       <r>     1.8672     0.5780     1.1249 </r>
       <r>     2.0156     0.0447     1.1315 </r>
       <r>     2.1641     0.0148     1.1337 </r>
       <r>     2.3126     0.6617     1.2320 </r>
       <r>     2.4611     0.0873     1.2450 </r>
       <r>     2.6096     0.3938     1.3034 </r>
       <r>     2.7581     0.1652     1.3280 </r>
       <r>     2.9066     0.0099     1.3294 </r>
       <r>     3.0551     0.2127     1.3610 </r>
       <r>     3.2036     0.8564     1.4882 </r>
       <r>     3.3521     0.0457     1.4950 </r>
       <r>     3.5006     0.3867     1.5524 </r>
       <r>     3.6491     0.6028     1.6419 </r>
       <r>     3.7976     0.0324     1.6467 </r>
       <r>     3.9460     0.0840     1.6592 </r>
       <r>     4.0945     0.5566     1.7418 </r>
       <r>     4.2430     0.0837     1.7543 </r>
       <r>     4.3915     0.4178     1.8163 </r>
       <r>     4.5400     0.4831     1.8881 </r>
       <r>     4.6885     0.1444     1.9095 </r>
       <r>     4.8370     0.2066     1.9402 </r>
       <r>     4.9855     0.5723     2.0252 </r>
       <r>     5.1340     0.1006     2.0401 </r>
       <r>     5.2825     0.4559     2.1078 </r>
       <r>     5.4310     0.6243     2.2005 </r>
       <r>     5.5795     0.0985     2.2151 </r>
       <r>     5.7279     0.1785     2.2416 </r>
       <r>     5.8764     0.8828     2.3727 </r>
       <r>     6.0249     0.1281     2.3917 </r>
       <r>     6.1734     0.3074     2.4374 </r>
       <r>     6.3219     0.4113     2.4984 </r>
       <r>     6.4704     0.0777     2.5100 </r>
       <r>     6.6189     0.0917     2.5236 </r>
       <r>     6.7674     0.6951     2.6268 </r>
       <r>     6.9159     0.2322     2.6613 </r>
       <r>     7.0644     0.6595     2.7592 </r>
       <r>     7.2129     0.2731     2.7998 </r>
       <r>     7.3614     0.1192     2.8175 </r>
       <r>     7.5099     0.2706     2.8577 </r>
       <r>     7.6583     1.0493     3.0135 </r>
       <r>     7.8068     0.2879     3.0562 </r>
       <r>     7.9553     0.2162     3.0883 </r>
       <r>     8.1038     0.4633     3.1571 </r>
       <r>     8.2523     0.4187     3.2193 </r>
       <r>     8.4008     0.2179     3.2517 </r>
       <r>     8.5493     0.4755     3.3223 </r>
       <r>     8.6978     0.1333     3.3420 </r>
       <r>     8.8463     0.4216     3.4047 </r>
       <r>     8.9948     0.5277     3.4830 </r>
       <r>     9.1433     0.1148     3.5001 </r>
       <r>     9.2918     0.6025     3.5895 </r>
       <r>     9.4402     0.4377     3.6545 </r>
       <r>     9.5887     0.2672     3.6942 </r>
       <r>     9.7372     1.2073     3.8735 </r>
       <r>     9.8857     0.1471     3.8953 </r>
       <r>    10.0342     0.0425     3.9016 </r>
       <r>    10.1827     0.5589     3.9846 </r>
       <r>    10.3312     0.5460     4.0657 </r>
       <r>    10.4797     0.3400     4.1162 </r>
       <r>    10.6282     0.4176     4.1782 </r>
       <r>    10.7767     0.4931     4.2514 </r>
       <r>    10.9252     0.0665     4.2613 </r>
       <r>    11.0737     0.4937     4.3346 </r>
       <r>    11.2222     0.9372     4.4738 </r>
       <r>    11.3706     0.4978     4.5477 </r>
       <r>    11.5191     0.3600     4.6011 </r>
       <r>    11.6676     0.0787     4.6128 </r>
       <r>    11.8161     0.6376     4.7075 </r>
       <r>    11.9646     0.2474     4.7443 </r>
       <r>    12.1131     0.2232     4.7774 </r>
       <r>    12.2616     0.9162     4.9135 </r>
       <r>    12.4101     0.7957     5.0316 </r>
       <r>    12.5586     0.1689     5.0567 </r>
       <r>    12.7071     1.0688     5.2154 </r>
       <r>    12.8556     0.3916     5.2736 </r>
       <r>    13.0041     0.0023     5.2739 </r>
       <r>    13.1525     0.6299     5.3674 </r>
       <r>    13.3010     0.4035     5.4273 </r>
       <r>    13.4495     0.6442     5.5230 </r>
       <r>    13.5980     0.7903     5.6404 </r>
       <r>    13.7465     0.4198     5.7027 </r>
       <r>    13.8950     0.6560     5.8001 </r>
       <r>    14.0435     0.5513     5.8820 </r>
       <r>    14.1920     0.0713     5.8926 </r>
       <r>    14.3405     0.9440     6.0327 </r>
       <r>    14.4890     0.4113     6.0938 </r>
       <r>    14.6375     0.4333     6.1581 </r>
       <r>    14.7860     0.5091     6.2337 </r>
       <r>    14.9345     0.2977     6.2779 </r>
       <r>    15.0829     0.6508     6.3746 </r>
       <r>    15.2314     0.5701     6.4592 </r>
       <r>    15.3799     0.6717     6.5590 </r>
       <r>    15.5284     0.5471     6.6402 </r>
       <r>    15.6769     0.5094     6.7159 </r>
       <r>    15.8254     0.1258     6.7345 </r>
       <r>    15.9739     0.2021     6.7645 </r>
       <r>    16.1224     0.6717     6.8643 </r>
       <r>    16.2709     0.7359     6.9736 </r>
       <r>    16.4194     0.2573     7.0118 </r>
       <r>    16.5679     0.3427     7.0627 </r>
       <r>    16.7164     0.7710     7.1771 </r>
       <r>    16.8648     0.3969     7.2361 </r>
       <r>    17.0133     0.3712     7.2912 </r>
       <r>    17.1618     0.6884     7.3934 </r>
       <r>    17.3103     0.0758     7.4047 </r>
       <r>    17.4588     0.5807     7.4909 </r>
       <r>    17.6073     0.8236     7.6132 </r>
       <r>    17.7558     0.5539     7.6955 </r>
       <r>    17.9043     0.1471     7.7173 </r>
       <r>    18.0528     0.3571     7.7703 </r>
       <r>    18.2013     0.6599     7.8683 </r>
       <r>    18.3498     0.7291     7.9766 </r>
       <r>    18.4983     0.5327     8.0557 </r>
       <r>    18.6468     0.1770     8.0820 </r>
       <r>    18.7952     0.8846     8.2133 </r>
       <r>    18.9437     0.8481     8.3392 </r>
       <r>    19.0922     0.3989     8.3985 </r>
       <r>    19.2407     0.4795     8.4697 </r>
       <r>    19.3892     0.3268     8.5182 </r>
       <r>    19.5377     0.8662     8.6468 </r>
       <r>    19.6862     0.5042     8.7217 </r>
       <r>    19.8347     0.2936     8.7653 </r>
       <r>    19.9832     0.7375     8.8748 </r>
       <r>    20.1317     0.4057     8.9351 </r>
       <r>    20.2802     0.5707     9.0198 </r>
       <r>    20.4287     0.6281     9.1131 </r>
       <r>    20.5771     0.2431     9.1492 </r>
       <r>    20.7256     0.4697     9.2189 </r>
       <r>    20.8741     0.3671     9.2734 </r>
       <r>    21.0226     0.5400     9.3536 </r>
       <r>    21.1711     1.1683     9.5271 </r>
       <r>    21.3196     0.7556     9.6393 </r>
       <r>    21.4681     0.5799     9.7254 </r>
       <r>    21.6166     0.9018     9.8593 </r>
       <r>    21.7651     0.6842     9.9609 </r>
       <r>    21.9136     0.4387    10.0261 </r>
       <r>    22.0621     0.5365    10.1057 </r>
       <r>    22.2106     0.7195    10.2126 </r>
       <r>    22.3591     0.5073    10.2879 </r>
       <r>    22.5075     0.4568    10.3557 </r>
       <r>    22.6560     0.7388    10.4654 </r>
       <r>    22.8045     0.3905    10.5234 </r>
       <r>    22.9530     0.2783    10.5647 </r>
       <r>    23.1015     0.3247    10.6130 </r>
       <r>    23.2500     0.4300    10.6768 </r>
       <r>    23.3985     0.3308    10.7259 </r>
       <r>    23.5470     0.7299    10.8343 </r>
       <r>    23.6955     0.7038    10.9388 </r>
       <r>    23.8440     0.9972    11.0869 </r>
       <r>    23.9925     1.0923    11.2491 </r>
       <r>    24.1410     0.9157    11.3851 </r>
       <r>    24.2894     0.9913    11.5323 </r>
       <r>    24.4379     0.6077    11.6225 </r>
       <r>    24.5864     0.6999    11.7264 </r>
       <r>    24.7349     0.7338    11.8354 </r>
       <r>    24.8834     0.4061    11.8957 </r>
       <r>    25.0319     0.2285    11.9296 </r>
       <r>    25.1804     0.4216    11.9922 </r>
       <r>    25.3289     0.1816    12.0192 </r>
       <r>    25.4774     0.5560    12.1018 </r>
       <r>    25.6259     0.3863    12.1591 </r>
       <r>    25.7744     1.2706    12.3478 </r>
       <r>    25.9229     0.7417    12.4579 </r>
       <r>    26.0714     1.0416    12.6126 </r>
       <r>    26.2198     0.5251    12.6906 </r>
       <r>    26.3683     0.8956    12.8236 </r>
       <r>    26.5168     0.5095    12.8992 </r>
       <r>    26.6653     0.5574    12.9820 </r>
       <r>    26.8138     0.7899    13.0993 </r>
       <r>    26.9623     0.5612    13.1826 </r>
       <r>    27.1108     0.4984    13.2567 </r>
       <r>    27.2593     0.3398    13.3071 </r>
       <r>    27.4078     0.5819    13.3935 </r>
       <r>    27.5563     0.7604    13.5064 </r>
       <r>    27.7048     0.6320    13.6003 </r>
       <r>    27.8533     0.4066    13.6607 </r>
       <r>    28.0017     0.5766    13.7463 </r>
       <r>    28.1502     0.4988    13.8203 </r>
       <r>    28.2987     0.8124    13.9410 </r>
       <r>    28.4472     0.6196    14.0330 </r>
       <r>    28.5957     0.4245    14.0960 </r>
       <r>    28.7442     0.7310    14.2046 </r>
       <r>    28.8927     0.3903    14.2625 </r>
       <r>    29.0412     0.3600    14.3160 </r>
       <r>    29.1897     0.4530    14.3832 </r>
       <r>    29.3382     0.3519    14.4355 </r>
       <r>    29.4867     0.7071    14.5405 </r>
       <r>    29.6352     0.3921    14.5987 </r>
       <r>    29.7837     0.5063    14.6739 </r>
       <r>    29.9321     0.9279    14.8117 </r>
       <r>    30.0806     0.4008    14.8712 </r>
       <r>    30.2291     0.0827    14.8835 </r>
       <r>    30.3776     0.8809    15.0143 </r>
       <r>    30.5261     0.6245    15.1070 </r>
       <r>    30.6746     0.3895    15.1649 </r>
       <r>    30.8231     0.3998    15.2242 </r>
       <r>    30.9716     0.0092    15.2256 </r>
       <r>    31.1201     0.5735    15.3107 </r>
       <r>    31.2686     0.1797    15.3374 </r>
       <r>    31.4171     0.2045    15.3678 </r>
       <r>    31.5656     0.2448    15.4041 </r>
       <r>    31.7140     0.4599    15.4724 </r>
       <r>    31.8625     0.1689    15.4975 </r>
       <r>    32.0110     0.2369    15.5327 </r>
       <r>    32.1595     0.2731    15.5732 </r>
       <r>    32.3080     0.2705    15.6134 </r>
       <r>    32.4565     0.2329    15.6480 </r>
       <r>    32.6050     0.4303    15.7119 </r>
       <r>    32.7535     0.0310    15.7165 </r>
       <r>    32.9020     0.1417    15.7375 </r>
       <r>    33.0505     0.1151    15.7546 </r>
       <r>    33.1990     0.2818    15.7965 </r>
       <r>    33.3475     0.0683    15.8066 </r>
       <r>    33.4960     0.1266    15.8254 </r>
       <r>    33.6444     0.0352    15.8306 </r>
       <r>    33.7929     0.0752    15.8418 </r>
       <r>    33.9414     0.2193    15.8744 </r>
       <r>    34.0899     0.0001    15.8744 </r>
       <r>    34.2384     0.0527    15.8822 </r>
       <r>    34.3869     0.1680    15.9071 </r>
       <r>    34.5354     0.0038    15.9077 </r>
       <r>    34.6839     0.1802    15.9345 </r>
       <r>    34.8324     0.1810    15.9613 </r>
       <r>    34.9809     0.0397    15.9672 </r>
       <r>    35.1294     0.1103    15.9836 </r>
       <r>    35.2779     0.0000    15.9836 </r>
       <r>    35.4263     0.0000    15.9836 </r>
       <r>    35.5748     0.0000    15.9836 </r>
       <r>    35.7233     0.0001    15.9836 </r>
       <r>    35.8718     0.0631    15.9930 </r>
       <r>    36.0203     0.0104    15.9945 </r>
       <r>    36.1688     0.0023    15.9949 </r>
       <r>    36.3173     0.0343    16.0000 </r>
       <r>    36.4658     0.0001    16.0000 </r>
       <r>    36.6143     0.0000    16.0000 </r>
       <r>    36.7628     0.0000    16.0000 </r>
       <r>    36.9113     0.0000    16.0000 </r>
       <r>    37.0598     0.0000    16.0000 </r>
       <r>    37.2083     0.0000    16.0000 </r>
       <r>    37.3567     0.0000    16.0000 </r>
       <r>    37.5052     0.0000    16.0000 </r>
       <r>    37.6537     0.0000    16.0000 </r>
       <r>    37.8022     0.0000    16.0000 </r>
       <r>    37.9507     0.0000    16.0000 </r>
       <r>    38.0992     0.0000    16.0000 </r>
       <r>    38.2477     0.0000    16.0000 </r>
      </set>
     </set>
    </array>
   </total>
  </dos>
 </calculation>
 <structure name="finalpos" >
  <crystal>
   <varray name="basis" >
    <v>       2.36717306      -0.00000000       1.36668685 </v>
    <v>       0.78905768       2.23179193       1.36668685 </v>
    <v>      -0.00000001      -0.00000001       2.73337573 </v>
   </varray>
   <i name="volume">     14.44052712 </i>
   <varray name="rec_basis" >
    <v>       0.42244482      -0.14935681       0.00000000 </v>
    <v>      -0.00000000       0.44807044       0.00000000 </v>
    <v>      -0.21122225      -0.14935670       0.36584798 </v>
   </varray>
  </crystal>
  <varray name="positions" >
   <v>       0.00000000       0.00000000      -0.00000000 </v>
  </varray>
 </structure>
</modeling>
