unknown system                          
           1
     2.347395    0.000000    1.355268
     0.782465    2.213145    1.355268
     0.000000    0.000000    2.710538
   Si
     1
Direct configuration=     1
   0.00000000  0.00000000  0.00000000
unknown system                          
           1
     2.369955   -0.000000    1.368293
     0.789985    2.234415    1.368293
    -0.000000   -0.000000    2.736588
   Si
     1
Direct configuration=     2
   0.00000000  0.00000000 -0.00000000
unknown system                          
           1
     2.367173   -0.000000    1.366687
     0.789058    2.231792    1.366687
    -0.000000   -0.000000    2.733376
   Si
     1
Direct configuration=     3
   0.00000000  0.00000000 -0.00000000
