unknown system                          
   1.00000000000000     
     2.798145   -0.000000    0.000000
     0.000000    2.798145    0.000000
     0.000000   -0.000000    2.798145
   Fe
     2
Direct
  0.000000  0.000000  0.000000
  0.500000  0.500000  0.500000
 
   36   36   36
  199.02      194.05      179.84      158.33      132.27      104.67      78.305      55.310      36.988      23.762    
  15.275      10.566      8.3613      7.2817      6.5140      5.9936      5.6743      5.5121      5.4600      5.5121    
  5.6743      5.9936      6.5140      7.2817      8.3613      10.566      15.275      23.762      36.988      55.310    
  78.305      104.67      132.27      158.33      179.84      194.05      194.05      189.22      175.41      154.49    
  129.12      102.23      76.504      54.054      36.170      23.272      15.018      10.457      8.3257      7.2655    
  6.5039      5.9901      5.6744      5.5147      5.4630      5.5147      5.6744      5.9901      6.5039      7.2655    
  8.3257      10.457      15.018      23.272      36.170      54.054      76.504      102.23      129.12      154.49    
  175.41      189.22      179.84      175.41      162.74      143.49      120.08      95.177      71.299      50.425    
  33.806      21.867      14.286      10.149      8.2255      7.2162      6.4743      5.9795      5.6749      5.5219    
  5.4718      5.5219      5.6749      5.9795      6.4743      7.2162      8.2255      10.149      14.286      21.867    
  33.806      50.425      71.299      95.177      120.08      143.49      162.74      175.41      158.33      154.49    
  143.49      126.73      106.24      84.343      63.270      44.823      30.174      19.731      13.197      9.7046    
  8.0757      7.1323      6.4264      5.9614      5.6758      5.5327      5.4857      5.5327      5.6758      5.9614    
  6.4264      7.1323      8.0757      9.7046      13.197      19.731      30.174      44.823      63.270      84.343    
  106.24      126.73      143.49      154.49      132.27      129.12      120.08      106.24      89.229      70.964    
  53.328      37.901      25.722      17.163      11.928      9.2078      7.8898      7.0134      6.3634      5.9358    
  5.6770      5.5449      5.5036      5.5449      5.6770      5.9358      6.3634      7.0134      7.8898      9.2078    
  11.928      17.163      25.722      37.901      53.328      70.964      89.229      106.24      120.08      129.12    
  104.67      102.23      95.177      84.343      70.964      56.543      42.609      30.480      21.025      14.530    
  10.685      8.7334      7.6685      6.8649      6.2876      5.9044      5.6774      5.5577      5.5230      5.5577    
  5.6774      5.9044      6.2876      6.8649      7.6685      8.7334      10.685      14.530      21.025      30.480    
  42.609      56.543      70.964      84.343      95.177      102.23      78.305      76.504      71.299      63.270    
  53.328      42.609      32.302      23.438      16.676      12.189      9.6378      8.3069      7.4070      6.6996    
  6.2013      5.8707      5.6745      5.5704      5.5401      5.5704      5.6745      5.8707      6.2013      6.6996    
  7.4070      8.3069      9.6378      12.189      16.676      23.438      32.302      42.609      53.328      63.270    
  71.299      76.504      55.310      54.054      50.425      44.823      37.901      30.480      23.438      17.514    
  13.157      10.389      8.8509      7.8938      7.1185      6.5292      6.1097      5.8361      5.6680      5.5815    
  5.5532      5.5815      5.6680      5.8361      6.1097      6.5292      7.1185      7.8938      8.8509      10.389    
  13.157      17.514      23.438      30.480      37.901      44.823      50.425      54.054      36.988      36.170    
  33.806      30.174      25.722      21.025      16.676      13.157      10.686      9.1790      8.2346      7.4642    
  6.8340      6.3585      6.0224      5.7984      5.6603      5.5861      5.5631      5.5861      5.6603      5.7984    
  6.0224      6.3585      6.8340      7.4642      8.2346      9.1790      10.686      13.157      16.676      21.025    
  25.722      30.174      33.806      36.170      23.762      23.272      21.867      19.731      17.163      14.530    
  12.189      10.389      9.1790      8.3582      7.6601      7.0527      6.5675      6.2009      5.9392      5.7609    
  5.6482      5.5860      5.5664      5.5860      5.6482      5.7609      5.9392      6.2009      6.5675      7.0527    
  7.6601      8.3582      9.1790      10.389      12.189      14.530      17.163      19.731      21.867      23.272    
  15.275      15.018      14.286      13.197      11.928      10.685      9.6378      8.8509      8.2346      7.6601    
  7.1325      6.6875      6.3313      6.0608      5.8629      5.7242      5.6323      5.5802      5.5631      5.5802    
  5.6323      5.7242      5.8629      6.0608      6.3313      6.6875      7.1325      7.6601      8.2346      8.8509    
  9.6378      10.685      11.928      13.197      14.286      15.018      10.566      10.457      10.149      9.7046    
  9.2078      8.7334      8.3069      7.8938      7.4642      7.0527      6.6875      6.3793      6.1320      5.9397    
  5.7937      5.6858      5.6115      5.5676      5.5532      5.5676      5.6115      5.6858      5.7937      5.9397    
  6.1320      6.3793      6.6875      7.0527      7.4642      7.8938      8.3069      8.7334      9.2078      9.7046    
  10.149      10.457      8.3613      8.3257      8.2255      8.0757      7.8898      7.6685      7.4070      7.1185    
  6.8340      6.5675      6.3313      6.1320      5.9684      5.8356      5.7293      5.6476      5.5885      5.5524    
  5.5401      5.5524      5.5885      5.6476      5.7293      5.8356      5.9684      6.1320      6.3313      6.5675    
  6.8340      7.1185      7.4070      7.6685      7.8898      8.0757      8.2255      8.3257      7.2817      7.2655    
  7.2162      7.1323      7.0134      6.8649      6.6996      6.5292      6.3585      6.2009      6.0608      5.9397    
  5.8356      5.7462      5.6716      5.6102      5.5633      5.5333      5.5230      5.5333      5.5633      5.6102    
  5.6716      5.7462      5.8356      5.9397      6.0608      6.2009      6.3585      6.5292      6.6996      6.8649    
  7.0134      7.1323      7.2162      7.2655      6.5140      6.5039      6.4743      6.4264      6.3634      6.2876    
  6.2013      6.1097      6.0224      5.9392      5.8629      5.7937      5.7293      5.6716      5.6191      5.5729    
  5.5358      5.5120      5.5036      5.5120      5.5358      5.5729      5.6191      5.6716      5.7293      5.7937    
  5.8629      5.9392      6.0224      6.1097      6.2013      6.2876      6.3634      6.4264      6.4743      6.5039    
  5.9936      5.9901      5.9795      5.9614      5.9358      5.9044      5.8707      5.8361      5.7984      5.7609    
  5.7242      5.6858      5.6476      5.6102      5.5729      5.5382      5.5102      5.4920      5.4857      5.4920    
  5.5102      5.5382      5.5729      5.6102      5.6476      5.6858      5.7242      5.7609      5.7984      5.8361    
  5.8707      5.9044      5.9358      5.9614      5.9795      5.9901      5.6743      5.6744      5.6749      5.6758    
  5.6770      5.6774      5.6745      5.6680      5.6603      5.6482      5.6323      5.6115      5.5885      5.5633    
  5.5358      5.5102      5.4896      5.4764      5.4718      5.4764      5.4896      5.5102      5.5358      5.5633    
  5.5885      5.6115      5.6323      5.6482      5.6603      5.6680      5.6745      5.6774      5.6770      5.6758    
  5.6749      5.6744      5.5121      5.5147      5.5219      5.5327      5.5449      5.5577      5.5704      5.5815    
  5.5861      5.5860      5.5802      5.5676      5.5524      5.5333      5.5120      5.4920      5.4764      5.4664    
  5.4630      5.4664      5.4764      5.4920      5.5120      5.5333      5.5524      5.5676      5.5802      5.5860    
  5.5861      5.5815      5.5704      5.5577      5.5449      5.5327      5.5219      5.5147      5.4600      5.4630    
  5.4718      5.4857      5.5036      5.5230      5.5401      5.5532      5.5631      5.5664      5.5631      5.5532    
  5.5401      5.5230      5.5036      5.4857      5.4718      5.4630      5.4600      5.4630      5.4718      5.4857    
  5.5036      5.5230      5.5401      5.5532      5.5631      5.5664      5.5631      5.5532      5.5401      5.5230    
  5.5036      5.4857      5.4718      5.4630      5.5121      5.5147      5.5219      5.5327      5.5449      5.5577    
  5.5704      5.5815      5.5861      5.5860      5.5802      5.5676      5.5524      5.5333      5.5120      5.4920    
  5.4764      5.4664      5.4630      5.4664      5.4764      5.4920      5.5120      5.5333      5.5524      5.5676    
  5.5802      5.5860      5.5861      5.5815      5.5704      5.5577      5.5449      5.5327      5.5219      5.5147    
  5.6743      5.6744      5.6749      5.6758      5.6770      5.6774      5.6745      5.6680      5.6603      5.6482    
  5.6323      5.6115      5.5885      5.5633      5.5358      5.5102      5.4896      5.4764      5.4718      5.4764    
  5.4896      5.5102      5.5358      5.5633      5.5885      5.6115      5.6323      5.6482      5.6603      5.6680    
  5.6745      5.6774      5.6770      5.6758      5.6749      5.6744      5.9936      5.9901      5.9795      5.9614    
  5.9358      5.9044      5.8707      5.8361      5.7984      5.7609      5.7242      5.6858      5.6476      5.6102    
  5.5729      5.5382      5.5102      5.4920      5.4857      5.4920      5.5102      5.5382      5.5729      5.6102    
  5.6476      5.6858      5.7242      5.7609      5.7984      5.8361      5.8707      5.9044      5.9358      5.9614    
  5.9795      5.9901      6.5140      6.5039      6.4743      6.4264      6.3634      6.2876      6.2013      6.1097    
  6.0224      5.9392      5.8629      5.7937      5.7293      5.6716      5.6191      5.5729      5.5358      5.5120    
  5.5036      5.5120      5.5358      5.5729      5.6191      5.6716      5.7293      5.7937      5.8629      5.9392    
  6.0224      6.1097      6.2013      6.2876      6.3634      6.4264      6.4743      6.5039      7.2817      7.2655    
  7.2162      7.1323      7.0134      6.8649      6.6996      6.5292      6.3585      6.2009      6.0608      5.9397    
  5.8356      5.7462      5.6716      5.6102      5.5633      5.5333      5.5230      5.5333      5.5633      5.6102    
  5.6716      5.7462      5.8356      5.9397      6.0608      6.2009      6.3585      6.5292      6.6996      6.8649    
  7.0134      7.1323      7.2162      7.2655      8.3613      8.3257      8.2255      8.0757      7.8898      7.6685    
  7.4070      7.1185      6.8340      6.5675      6.3313      6.1320      5.9684      5.8356      5.7293      5.6476    
  5.5885      5.5524      5.5401      5.5524      5.5885      5.6476      5.7293      5.8356      5.9684      6.1320    
  6.3313      6.5675      6.8340      7.1185      7.4070      7.6685      7.8898      8.0757      8.2255      8.3257    
  10.566      10.457      10.149      9.7046      9.2078      8.7334      8.3069      7.8938      7.4642      7.0527    
  6.6875      6.3793      6.1320      5.9397      5.7937      5.6858      5.6115      5.5676      5.5532      5.5676    
  5.6115      5.6858      5.7937      5.9397      6.1320      6.3793      6.6875      7.0527      7.4642      7.8938    
  8.3069      8.7334      9.2078      9.7046      10.149      10.457      15.275      15.018      14.286      13.197    
  11.928      10.685      9.6378      8.8509      8.2346      7.6601      7.1325      6.6875      6.3313      6.0608    
  5.8629      5.7242      5.6323      5.5802      5.5631      5.5802      5.6323      5.7242      5.8629      6.0608    
  6.3313      6.6875      7.1325      7.6601      8.2346      8.8509      9.6378      10.685      11.928      13.197    
  14.286      15.018      23.762      23.272      21.867      19.731      17.163      14.530      12.189      10.389    
  9.1790      8.3582      7.6601      7.0527      6.5675      6.2009      5.9392      5.7609      5.6482      5.5860    
  5.5664      5.5860      5.6482      5.7609      5.9392      6.2009      6.5675      7.0527      7.6601      8.3582    
  9.1790      10.389      12.189      14.530      17.163      19.731      21.867      23.272      36.988      36.170    
  33.806      30.174      25.722      21.025      16.676      13.157      10.686      9.1790      8.2346      7.4642    
  6.8340      6.3585      6.0224      5.7984      5.6603      5.5861      5.5631      5.5861      5.6603      5.7984    
  6.0224      6.3585      6.8340      7.4642      8.2346      9.1790      10.686      13.157      16.676      21.025    
  25.722      30.174      33.806      36.170      55.310      54.054      50.425      44.823      37.901      30.480    
  23.438      17.514      13.157      10.389      8.8509      7.8938      7.1185      6.5292      6.1097      5.8361    
  5.6680      5.5815      5.5532      5.5815      5.6680      5.8361      6.1097      6.5292      7.1185      7.8938    
  8.8509      10.389      13.157      17.514      23.438      30.480      37.901      44.823      50.425      54.054    
  78.305      76.504      71.299      63.270      53.328      42.609      32.302      23.438      16.676      12.189    
  9.6378      8.3069      7.4070      6.6996      6.2013      5.8707      5.6745      5.5704      5.5401      5.5704    
  5.6745      5.8707      6.2013      6.6996      7.4070      8.3069      9.6378      12.189      16.676      23.438    
  32.302      42.609      53.328      63.270      71.299      76.504      104.67      102.23      95.177      84.343    
  70.964      56.543      42.609      30.480      21.025      14.530      10.685      8.7334      7.6685      6.8649    
  6.2876      5.9044      5.6774      5.5577      5.5230      5.5577      5.6774      5.9044      6.2876      6.8649    
  7.6685      8.7334      10.685      14.530      21.025      30.480      42.609      56.543      70.964      84.343    
  95.177      102.23      132.27      129.12      120.08      106.24      89.229      70.964      53.328      37.901    
  25.722      17.163      11.928      9.2078      7.8898      7.0134      6.3634      5.9358      5.6770      5.5449    
  5.5036      5.5449      5.6770      5.9358      6.3634      7.0134      7.8898      9.2078      11.928      17.163    
  25.722      37.901      53.328      70.964      89.229      106.24      120.08      129.12      158.33      154.49    
  143.49      126.73      106.24      84.343      63.270      44.823      30.174      19.731      13.197      9.7046    
  8.0757      7.1323      6.4264      5.9614      5.6758      5.5327      5.4857      5.5327      5.6758      5.9614    
  6.4264      7.1323      8.0757      9.7046      13.197      19.731      30.174      44.823      63.270      84.343    
  106.24      126.73      143.49      154.49      179.84      175.41      162.74      143.49      120.08      95.177    
  71.299      50.425      33.806      21.867      14.286      10.149      8.2255      7.2162      6.4743      5.9795    
  5.6749      5.5219      5.4718      5.5219      5.6749      5.9795      6.4743      7.2162      8.2255      10.149    
  14.286      21.867      33.806      50.425      71.299      95.177      120.08      143.49      162.74      175.41    
  194.05      189.22      175.41      154.49      129.12      102.23      76.504      54.054      36.170      23.272    
  15.018      10.457      8.3257      7.2655      6.5039      5.9901      5.6744      5.5147      5.4630      5.5147    
  5.6744      5.9901      6.5039      7.2655      8.3257      10.457      15.018      23.272      36.170      54.054    
  76.504      102.23      129.12      154.49      175.41      189.22      194.05      189.22      175.41      154.49    
  129.12      102.23      76.504      54.054      36.170      23.272      15.018      10.457      8.3257      7.2655    
  6.5039      5.9901      5.6744      5.5147      5.4630      5.5147      5.6744      5.9901      6.5039      7.2655    
  8.3257      10.457      15.018      23.272      36.170      54.054      76.504      102.23      129.12      154.49    
  175.41      189.22      189.22      184.53      171.11      150.76      126.06      99.840      74.743      52.826    
  35.370      22.795      14.768      10.351      8.2919      7.2498      6.4945      5.9871      5.6750      5.5176    
  5.4664      5.5176      5.6750      5.9871      6.4945      7.2498      8.2919      10.351      14.768      22.795    
  35.370      52.826      74.743      99.840      126.06      150.76      171.11      184.53      175.41      171.11    
  158.78      140.05      117.24      92.959      69.654      49.276      33.059      21.425      14.060      10.056    
  8.1967      7.2020      6.4666      5.9778      5.6769      5.5260      5.4764      5.5260      5.6769      5.9778    
  6.4666      7.2020      8.1967      10.056      14.060      21.425      33.059      49.276      69.654      92.959    
  117.24      140.05      158.78      171.11      154.49      150.76      140.05      123.72      103.74      82.378    
  61.806      43.800      29.513      19.347      13.007      9.6317      8.0533      7.1202      6.4217      5.9617    
  5.6798      5.5382      5.4920      5.5382      5.6798      5.9617      6.4217      7.1202      8.0533      9.6317    
  13.007      19.347      29.513      43.800      61.806      82.378      103.74      123.72      140.05      150.76    
  129.12      126.06      117.24      103.74      87.142      69.310      52.092      37.040      25.171      16.852    
  11.782      9.1572      7.8736      7.0043      6.3618      5.9387      5.6834      5.5525      5.5120      5.5525    
  5.6834      5.9387      6.3618      7.0043      7.8736      9.1572      11.782      16.852      25.171      37.040    
  52.092      69.310      87.142      103.74      117.24      126.06      102.23      99.840      92.959      82.378    
  69.310      55.226      41.626      29.802      20.601      14.301      10.586      8.7031      7.6565      6.8600    
  6.2895      5.9104      5.6860      5.5674      5.5333      5.5674      5.6860      5.9104      6.2895      6.8600    
  7.6565      8.7031      10.586      14.301      20.601      29.802      41.626      55.226      69.310      82.378    
  92.959      99.840      76.504      74.743      69.654      61.806      52.092      41.626      31.574      22.945    
  16.382      12.042      9.5827      8.2900      7.3989      6.6994      6.2064      5.8798      5.6855      5.5827    
  5.5524      5.5827      5.6855      5.8798      6.2064      6.6994      7.3989      8.2900      9.5827      12.042    
  16.382      22.945      31.574      41.626      52.092      61.806      69.654      74.743      54.054      52.826    
  49.276      43.800      37.040      29.802      22.945      17.193      12.978      10.310      8.8254      7.8833    
  7.1156      6.5332      6.1186      5.8481      5.6815      5.5957      5.5676      5.5957      5.6815      5.8481    
  6.1186      6.5332      7.1156      7.8833      8.8254      10.310      12.978      17.193      22.945      29.802    
  37.040      43.800      49.276      52.826      36.170      35.370      33.059      29.513      25.171      20.601    
  16.382      12.978      10.597      9.1463      8.2220      7.4592      6.8368      6.3670      6.0347      5.8131    
  5.6766      5.6029      5.5802      5.6029      5.6766      5.8131      6.0347      6.3670      6.8368      7.4592    
  8.2220      9.1463      10.597      12.978      16.382      20.601      25.171      29.513      33.059      35.370    
  23.272      22.795      21.425      19.347      16.852      14.301      12.042      10.310      9.1463      8.3446    
  7.6539      7.0543      6.5753      6.2136      5.9554      5.7793      5.6674      5.6056      5.5860      5.6056    
  5.6674      5.7793      5.9554      6.2136      6.5753      7.0543      7.6539      8.3446      9.1463      10.310    
  12.042      14.301      16.852      19.347      21.425      22.795      15.018      14.768      14.060      13.007    
  11.782      10.586      9.5827      8.8254      8.2220      7.6539      7.1336      6.6949      6.3441      6.0780    
  5.8823      5.7450      5.6543      5.6029      5.5861      5.6029      5.6543      5.7450      5.8823      6.0780    
  6.3441      6.6949      7.1336      7.6539      8.2220      8.8254      9.5827      10.586      11.782      13.007    
  14.060      14.768      10.457      10.351      10.056      9.6317      9.1572      8.7031      8.2900      7.8833    
  7.4592      7.0543      6.6949      6.3922      6.1495      5.9598      5.8167      5.7115      5.6389      5.5957    
  5.5815      5.5957      5.6389      5.7115      5.8167      5.9598      6.1495      6.3922      6.6949      7.0543    
  7.4592      7.8833      8.2900      8.7031      9.1572      9.6317      10.056      10.351      8.3257      8.2919    
  8.1967      8.0533      7.8736      7.6565      7.3989      7.1156      6.8368      6.5753      6.3441      6.1495    
  5.9887      5.8601      5.7575      5.6773      5.6186      5.5827      5.5704      5.5827      5.6186      5.6773    
  5.7575      5.8601      5.9887      6.1495      6.3441      6.5753      6.8368      7.1156      7.3989      7.6565    
  7.8736      8.0533      8.1967      8.2919      7.2655      7.2498      7.2020      7.1202      7.0043      6.8600    
  6.6994      6.5332      6.3670      6.2136      6.0780      5.9598      5.8601      5.7751      5.7019      5.6415    
  5.5960      5.5674      5.5577      5.5674      5.5960      5.6415      5.7019      5.7751      5.8601      5.9598    
  6.0780      6.2136      6.3670      6.5332      6.6994      6.8600      7.0043      7.1202      7.2020      7.2498    
  6.5039      6.4945      6.4666      6.4217      6.3618      6.2895      6.2064      6.1186      6.0347      5.9554    
  5.8823      5.8167      5.7575      5.7019      5.6513      5.6080      5.5742      5.5525      5.5449      5.5525    
  5.5742      5.6080      5.6513      5.7019      5.7575      5.8167      5.8823      5.9554      6.0347      6.1186    
  6.2064      6.2895      6.3618      6.4217      6.4666      6.4945      5.9901      5.9871      5.9778      5.9617    
  5.9387      5.9104      5.8798      5.8481      5.8131      5.7793      5.7450      5.7115      5.6773      5.6415    
  5.6080      5.5782      5.5542      5.5382      5.5327      5.5382      5.5542      5.5782      5.6080      5.6415    
  5.6773      5.7115      5.7450      5.7793      5.8131      5.8481      5.8798      5.9104      5.9387      5.9617    
  5.9778      5.9871      5.6744      5.6750      5.6769      5.6798      5.6834      5.6860      5.6855      5.6815    
  5.6766      5.6674      5.6543      5.6389      5.6186      5.5960      5.5742      5.5542      5.5373      5.5260    
  5.5219      5.5260      5.5373      5.5542      5.5742      5.5960      5.6186      5.6389      5.6543      5.6674    
  5.6766      5.6815      5.6855      5.6860      5.6834      5.6798      5.6769      5.6750      5.5147      5.5176    
  5.5260      5.5382      5.5525      5.5674      5.5827      5.5957      5.6029      5.6056      5.6029      5.5957    
  5.5827      5.5674      5.5525      5.5382      5.5260      5.5176      5.5147      5.5176      5.5260      5.5382    
  5.5525      5.5674      5.5827      5.5957      5.6029      5.6056      5.6029      5.5957      5.5827      5.5674    
  5.5525      5.5382      5.5260      5.5176      5.4630      5.4664      5.4764      5.4920      5.5120      5.5333    
  5.5524      5.5676      5.5802      5.5860      5.5861      5.5815      5.5704      5.5577      5.5449      5.5327    
  5.5219      5.5147      5.5121      5.5147      5.5219      5.5327      5.5449      5.5577      5.5704      5.5815    
  5.5861      5.5860      5.5802      5.5676      5.5524      5.5333      5.5120      5.4920      5.4764      5.4664    
  5.5147      5.5176      5.5260      5.5382      5.5525      5.5674      5.5827      5.5957      5.6029      5.6056    
  5.6029      5.5957      5.5827      5.5674      5.5525      5.5382      5.5260      5.5176      5.5147      5.5176    
  5.5260      5.5382      5.5525      5.5674      5.5827      5.5957      5.6029      5.6056      5.6029      5.5957    
  5.5827      5.5674      5.5525      5.5382      5.5260      5.5176      5.6744      5.6750      5.6769      5.6798    
  5.6834      5.6860      5.6855      5.6815      5.6766      5.6674      5.6543      5.6389      5.6186      5.5960    
  5.5742      5.5542      5.5373      5.5260      5.5219      5.5260      5.5373      5.5542      5.5742      5.5960    
  5.6186      5.6389      5.6543      5.6674      5.6766      5.6815      5.6855      5.6860      5.6834      5.6798    
  5.6769      5.6750      5.9901      5.9871      5.9778      5.9617      5.9387      5.9104      5.8798      5.8481    
  5.8131      5.7793      5.7450      5.7115      5.6773      5.6415      5.6080      5.5782      5.5542      5.5382    
  5.5327      5.5382      5.5542      5.5782      5.6080      5.6415      5.6773      5.7115      5.7450      5.7793    
  5.8131      5.8481      5.8798      5.9104      5.9387      5.9617      5.9778      5.9871      6.5039      6.4945    
  6.4666      6.4217      6.3618      6.2895      6.2064      6.1186      6.0347      5.9554      5.8823      5.8167    
  5.7575      5.7019      5.6513      5.6080      5.5742      5.5525      5.5449      5.5525      5.5742      5.6080    
  5.6513      5.7019      5.7575      5.8167      5.8823      5.9554      6.0347      6.1186      6.2064      6.2895    
  6.3618      6.4217      6.4666      6.4945      7.2655      7.2498      7.2020      7.1202      7.0043      6.8600    
  6.6994      6.5332      6.3670      6.2136      6.0780      5.9598      5.8601      5.7751      5.7019      5.6415    
  5.5960      5.5674      5.5577      5.5674      5.5960      5.6415      5.7019      5.7751      5.8601      5.9598    
  6.0780      6.2136      6.3670      6.5332      6.6994      6.8600      7.0043      7.1202      7.2020      7.2498    
  8.3257      8.2919      8.1967      8.0533      7.8736      7.6565      7.3989      7.1156      6.8368      6.5753    
  6.3441      6.1495      5.9887      5.8601      5.7575      5.6773      5.6186      5.5827      5.5704      5.5827    
  5.6186      5.6773      5.7575      5.8601      5.9887      6.1495      6.3441      6.5753      6.8368      7.1156    
  7.3989      7.6565      7.8736      8.0533      8.1967      8.2919      10.457      10.351      10.056      9.6317    
  9.1572      8.7031      8.2900      7.8833      7.4592      7.0543      6.6949      6.3922      6.1495      5.9598    
  5.8167      5.7115      5.6389      5.5957      5.5815      5.5957      5.6389      5.7115      5.8167      5.9598    
  6.1495      6.3922      6.6949      7.0543      7.4592      7.8833      8.2900      8.7031      9.1572      9.6317    
  10.056      10.351      15.018      14.768      14.060      13.007      11.782      10.586      9.5827      8.8254    
  8.2220      7.6539      7.1336      6.6949      6.3441      6.0780      5.8823      5.7450      5.6543      5.6029    
  5.5861      5.6029      5.6543      5.7450      5.8823      6.0780      6.3441      6.6949      7.1336      7.6539    
  8.2220      8.8254      9.5827      10.586      11.782      13.007      14.060      14.768      23.272      22.795    
  21.425      19.347      16.852      14.301      12.042      10.310      9.1463      8.3446      7.6539      7.0543    
  6.5753      6.2136      5.9554      5.7793      5.6674      5.6056      5.5860      5.6056      5.6674      5.7793    
  5.9554      6.2136      6.5753      7.0543      7.6539      8.3446      9.1463      10.310      12.042      14.301    
  16.852      19.347      21.425      22.795      36.170      35.370      33.059      29.513      25.171      20.601    
  16.382      12.978      10.597      9.1463      8.2220      7.4592      6.8368      6.3670      6.0347      5.8131    
  5.6766      5.6029      5.5802      5.6029      5.6766      5.8131      6.0347      6.3670      6.8368      7.4592    
  8.2220      9.1463      10.597      12.978      16.382      20.601      25.171      29.513      33.059      35.370    
  54.054      52.826      49.276      43.800      37.040      29.802      22.945      17.193      12.978      10.310    
  8.8254      7.8833      7.1156      6.5332      6.1186      5.8481      5.6815      5.5957      5.5676      5.5957    
  5.6815      5.8481      6.1186      6.5332      7.1156      7.8833      8.8254      10.310      12.978      17.193    
  22.945      29.802      37.040      43.800      49.276      52.826      76.504      74.743      69.654      61.806    
  52.092      41.626      31.574      22.945      16.382      12.042      9.5827      8.2900      7.3989      6.6994    
  6.2064      5.8798      5.6855      5.5827      5.5524      5.5827      5.6855      5.8798      6.2064      6.6994    
  7.3989      8.2900      9.5827      12.042      16.382      22.945      31.574      41.626      52.092      61.806    
  69.654      74.743      102.23      99.840      92.959      82.378      69.310      55.226      41.626      29.802    
  20.601      14.301      10.586      8.7031      7.6565      6.8600      6.2895      5.9104      5.6860      5.5674    
  5.5333      5.5674      5.6860      5.9104      6.2895      6.8600      7.6565      8.7031      10.586      14.301    
  20.601      29.802      41.626      55.226      69.310      82.378      92.959      99.840      129.12      126.06    