unknown system                          
   1.00000000000000     
     2.827936   -0.000000    0.000000
     0.000000    2.827936    0.000000
     0.000000   -0.000000    2.827936
   Fe
     2
Direct
  0.000000 -0.000000 -0.000000
  0.500000  0.500000  0.500000
 
   36   36   36
 0.19154411068E+03 0.18687651670E+03 0.17351847955E+03 0.15325197955E+03 0.12861809166E+03
 0.10241353183E+03 0.77228272432E+02 0.55086061311E+02 0.37255856377E+02 0.24201138337E+02
 0.15661089447E+02 0.10800690326E+02 0.84644738391E+01 0.73648814299E+01 0.66159072439E+01
 0.60957111087E+01 0.57764092306E+01 0.56107105196E+01 0.55592702482E+01 0.56107105196E+01
 0.57764092306E+01 0.60957111087E+01 0.66159072439E+01 0.73648814299E+01 0.84644738391E+01
 0.10800690326E+02 0.15661089447E+02 0.24201138337E+02 0.37255856377E+02 0.55086061311E+02
 0.77228272432E+02 0.10241353183E+03 0.12861809166E+03 0.15325197955E+03 0.17351847955E+03
 0.18687651670E+03 0.18687651670E+03 0.18233925468E+03 0.16934961672E+03 0.14962711050E+03
 0.12563134245E+03 0.10007780547E+03 0.75493879257E+02 0.53865252579E+02 0.36450808509E+02
 0.23712298166E+02 0.15398016217E+02 0.10684103092E+02 0.84258309517E+01 0.73496912529E+01
 0.66062989834E+01 0.60926299548E+01 0.57768171977E+01 0.56137459944E+01 0.55625835196E+01
 0.56137459944E+01 0.57768171977E+01 0.60926299548E+01 0.66062989834E+01 0.73496912529E+01
 0.84258309517E+01 0.10684103092E+02 0.15398016217E+02 0.23712298166E+02 0.36450808509E+02
 0.53865252579E+02 0.75493879257E+02 0.10007780547E+03 0.12563134245E+03 0.14962711050E+03
 0.16934961672E+03 0.18233925468E+03 0.17351847955E+03 0.16934961672E+03 0.15740111621E+03
 0.13921943264E+03 0.11703466901E+03 0.93336248439E+02 0.70476963093E+02 0.50335428472E+02
 0.34124049929E+02 0.22305572008E+02 0.14648456949E+02 0.10356129053E+02 0.83180700249E+01
 0.73036375096E+01 0.65779516846E+01 0.60830869650E+01 0.57779459543E+01 0.56220644938E+01
 0.55721458875E+01 0.56220644938E+01 0.57779459543E+01 0.60830869650E+01 0.65779516846E+01
 0.73036375096E+01 0.83180700249E+01 0.10356129053E+02 0.14648456949E+02 0.22305572008E+02
 0.34124049929E+02 0.50335428472E+02 0.70476963093E+02 0.93336248439E+02 0.11703466901E+03
 0.13921943264E+03 0.15740111621E+03 0.16934961672E+03 0.15325197955E+03 0.14962711050E+03
 0.13921943264E+03 0.12332841828E+03 0.10385501939E+03 0.82959388815E+02 0.62731069216E+02
 0.44879328881E+02 0.30541843208E+02 0.20161539959E+02 0.13526097405E+02 0.98800480832E+01
 0.81599386677E+01 0.72258221793E+01 0.65314315449E+01 0.60669129915E+01 0.57795314271E+01
 0.56346739388E+01 0.55870991398E+01 0.56346739388E+01 0.57795314271E+01 0.60669129915E+01
 0.65314315449E+01 0.72258221793E+01 0.81599386677E+01 0.98800480832E+01 0.13526097405E+02
 0.20161539959E+02 0.30541843208E+02 0.44879328881E+02 0.62731069216E+02 0.82959388815E+02
 0.10385501939E+03 0.12332841828E+03 0.13921943264E+03 0.14962711050E+03 0.12861809166E+03
 0.12563134245E+03 0.11703466901E+03 0.10385501939E+03 0.87620116753E+02 0.70115098134E+02
 0.53115031069E+02 0.38117127268E+02 0.26134002570E+02 0.17568158506E+02 0.12208025441E+02
 0.93441088405E+01 0.79706633001E+01 0.71139978585E+01 0.64697795890E+01 0.60432929594E+01
 0.57815326255E+01 0.56489336527E+01 0.56061971433E+01 0.56489336527E+01 0.57815326255E+01
 0.60432929594E+01 0.64697795890E+01 0.71139978585E+01 0.79706633001E+01 0.93441088405E+01
 0.12208025441E+02 0.17568158506E+02 0.26134002570E+02 0.38117127268E+02 0.53115031069E+02
 0.70115098134E+02 0.87620116753E+02 0.10385501939E+03 0.11703466901E+03 0.12563134245E+03
 0.10241353183E+03 0.10007780547E+03 0.93336248439E+02 0.82959388815E+02 0.70115098134E+02
 0.56216020190E+02 0.42703234211E+02 0.30830931688E+02 0.21451024233E+02 0.14884926705E+02
 0.10899857864E+02 0.88338360945E+01 0.77553217187E+01 0.69711449125E+01 0.63957123365E+01
 0.60130879112E+01 0.57831090798E+01 0.56632634207E+01 0.56272879975E+01 0.56632634207E+01
 0.57831090798E+01 0.60130879112E+01 0.63957123365E+01 0.69711449125E+01 0.77553217187E+01
 0.88338360945E+01 0.10899857864E+02 0.14884926705E+02 0.21451024233E+02 0.30830931688E+02
 0.42703234211E+02 0.56216020190E+02 0.70115098134E+02 0.82959388815E+02 0.93336248439E+02
 0.10007780547E+03 0.77228272432E+02 0.75493879257E+02 0.70476963093E+02 0.62731069216E+02
 0.53115031069E+02 0.42703234211E+02 0.32620199129E+02 0.23858109620E+02 0.17069390566E+02
 0.12467266856E+02 0.97834262243E+01 0.83893053413E+01 0.75061212799E+01 0.68082847294E+01
 0.63116513100E+01 0.59791127205E+01 0.57818682648E+01 0.56765659983E+01 0.56464878324E+01
 0.56765659983E+01 0.57818682648E+01 0.59791127205E+01 0.63116513100E+01 0.68082847294E+01
 0.75061212799E+01 0.83893053413E+01 0.97834262243E+01 0.12467266856E+02 0.17069390566E+02
 0.23858109620E+02 0.32620199129E+02 0.42703234211E+02 0.53115031069E+02 0.62731069216E+02
 0.70476963093E+02 0.75493879257E+02 0.55086061311E+02 0.53865252579E+02 0.50335428472E+02
 0.44879328881E+02 0.38117127268E+02 0.30830931688E+02 0.23858109620E+02 0.17916790642E+02
 0.13466366657E+02 0.10574222234E+02 0.89442477157E+01 0.79835221901E+01 0.72260964319E+01
 0.66395877169E+01 0.62203769327E+01 0.59445349140E+01 0.57759528061E+01 0.56885578951E+01
 0.56606961827E+01 0.56885578951E+01 0.57759528061E+01 0.59445349140E+01 0.62203769327E+01
 0.66395877169E+01 0.72260964319E+01 0.79835221901E+01 0.89442477157E+01 0.10574222234E+02
 0.13466366657E+02 0.17916790642E+02 0.23858109620E+02 0.30830931688E+02 0.38117127268E+02
 0.44879328881E+02 0.50335428472E+02 0.53865252579E+02 0.37255856377E+02 0.36450808509E+02
 0.34124049929E+02 0.30541843208E+02 0.26134002570E+02 0.21451024233E+02 0.17069390566E+02
 0.13466366657E+02 0.10886075321E+02 0.92842330646E+01 0.83194345160E+01 0.75688122696E+01
 0.69443368444E+01 0.64703460035E+01 0.61318035994E+01 0.59069478390E+01 0.57677562878E+01
 0.56940230689E+01 0.56706419651E+01 0.56940230689E+01 0.57677562878E+01 0.59069478390E+01
 0.61318035994E+01 0.64703460035E+01 0.69443368444E+01 0.75688122696E+01 0.83194345160E+01
 0.92842330646E+01 0.10886075321E+02 0.13466366657E+02 0.17069390566E+02 0.21451024233E+02
 0.26134002570E+02 0.30541843208E+02 0.34124049929E+02 0.36450808509E+02 0.24201138337E+02
 0.23712298166E+02 0.22305572008E+02 0.20161539959E+02 0.17568158506E+02 0.14884926705E+02
 0.12467266856E+02 0.10574222234E+02 0.92842330646E+01 0.84418618692E+01 0.77620650613E+01
 0.71628631684E+01 0.66796811255E+01 0.63111708777E+01 0.60478894731E+01 0.58685204994E+01
 0.57560260449E+01 0.56939215858E+01 0.56747231661E+01 0.56939215858E+01 0.57560260449E+01
 0.58685204994E+01 0.60478894731E+01 0.63111708777E+01 0.66796811255E+01 0.71628631684E+01
 0.77620650613E+01 0.84418618692E+01 0.92842330646E+01 0.10574222234E+02 0.12467266856E+02
 0.14884926705E+02 0.17568158506E+02 0.20161539959E+02 0.22305572008E+02 0.23712298166E+02
 0.15661089447E+02 0.15398016217E+02 0.14648456949E+02 0.13526097405E+02 0.12208025441E+02
 0.10899857864E+02 0.97834262243E+01 0.89442477157E+01 0.83194345160E+01 0.77620650613E+01
 0.72425087277E+01 0.67997717090E+01 0.64420762197E+01 0.61697541942E+01 0.59702553716E+01
 0.58310081083E+01 0.57391870461E+01 0.56876220591E+01 0.56706419651E+01 0.56876220591E+01
 0.57391870461E+01 0.58310081083E+01 0.59702553716E+01 0.61697541942E+01 0.64420762197E+01
 0.67997717090E+01 0.72425087277E+01 0.77620650613E+01 0.83194345160E+01 0.89442477157E+01
 0.97834262243E+01 0.10899857864E+02 0.12208025441E+02 0.13526097405E+02 0.14648456949E+02
 0.15398016217E+02 0.10800690326E+02 0.10684103092E+02 0.10356129053E+02 0.98800480832E+01
 0.93441088405E+01 0.88338360945E+01 0.83893053413E+01 0.79835221901E+01 0.75688122696E+01
 0.71628631684E+01 0.67997717090E+01 0.64902098999E+01 0.62410891361E+01 0.60467345896E+01
 0.58994943045E+01 0.57915121599E+01 0.57179846055E+01 0.56747765575E+01 0.56606961827E+01
 0.56747765575E+01 0.57179846055E+01 0.57915121599E+01 0.58994943045E+01 0.60467345896E+01
 0.62410891361E+01 0.64902098999E+01 0.67997717090E+01 0.71628631684E+01 0.75688122696E+01
 0.79835221901E+01 0.83893053413E+01 0.88338360945E+01 0.93441088405E+01 0.98800480832E+01
 0.10356129053E+02 0.10684103092E+02 0.84644738391E+01 0.84258309517E+01 0.83180700249E+01
 0.81599386677E+01 0.79706633001E+01 0.77553217187E+01 0.75061212799E+01 0.72260964319E+01
 0.69443368444E+01 0.66796811255E+01 0.64420762197E+01 0.62410891361E+01 0.60752461365E+01
 0.59408596854E+01 0.58343605812E+01 0.57530455117E+01 0.56943743843E+01 0.56586607804E+01
 0.56464878324E+01 0.56586607804E+01 0.56943743843E+01 0.57530455117E+01 0.58343605812E+01
 0.59408596854E+01 0.60752461365E+01 0.62410891361E+01 0.64420762197E+01 0.66796811255E+01
 0.69443368444E+01 0.72260964319E+01 0.75061212799E+01 0.77553217187E+01 0.79706633001E+01
 0.81599386677E+01 0.83180700249E+01 0.84258309517E+01 0.73648814299E+01 0.73496912529E+01
 0.73036375096E+01 0.72258221793E+01 0.71139978585E+01 0.69711449125E+01 0.68082847294E+01
 0.66395877169E+01 0.64703460035E+01 0.63111708777E+01 0.61697541942E+01 0.60467345896E+01
 0.59408596854E+01 0.58510339617E+01 0.57762494135E+01 0.57144638241E+01 0.56674054248E+01
 0.56374557993E+01 0.56272879975E+01 0.56374557993E+01 0.56674054248E+01 0.57144638241E+01
 0.57762494135E+01 0.58510339617E+01 0.59408596854E+01 0.60467345896E+01 0.61697541942E+01
 0.63111708777E+01 0.64703460035E+01 0.66395877169E+01 0.68082847294E+01 0.69711449125E+01
 0.71139978585E+01 0.72258221793E+01 0.73036375096E+01 0.73496912529E+01 0.66159072439E+01
 0.66062989834E+01 0.65779516846E+01 0.65314315449E+01 0.64697795890E+01 0.63957123365E+01
 0.63116513100E+01 0.62203769327E+01 0.61318035994E+01 0.60478894731E+01 0.59702553716E+01
 0.58994943045E+01 0.58343605812E+01 0.57762494135E+01 0.57227859532E+01 0.56758854543E+01
 0.56385090100E+01 0.56146068529E+01 0.56061971433E+01 0.56146068529E+01 0.56385090100E+01
 0.56758854543E+01 0.57227859532E+01 0.57762494135E+01 0.58343605812E+01 0.58994943045E+01
 0.59702553716E+01 0.60478894731E+01 0.61318035994E+01 0.62203769327E+01 0.63116513100E+01
 0.63957123365E+01 0.64697795890E+01 0.65314315449E+01 0.65779516846E+01 0.66062989834E+01
 0.60957111087E+01 0.60926299548E+01 0.60830869650E+01 0.60669129915E+01 0.60432929594E+01
 0.60130879112E+01 0.59791127205E+01 0.59445349140E+01 0.59069478390E+01 0.58685204994E+01
 0.58310081083E+01 0.57915121599E+01 0.57530455117E+01 0.57144638241E+01 0.56758854543E+01
 0.56403482833E+01 0.56119174819E+01 0.55934320865E+01 0.55870991398E+01 0.55934320865E+01
 0.56119174819E+01 0.56403482833E+01 0.56758854543E+01 0.57144638241E+01 0.57530455117E+01
 0.57915121599E+01 0.58310081083E+01 0.58685204994E+01 0.59069478390E+01 0.59445349140E+01
 0.59791127205E+01 0.60130879112E+01 0.60432929594E+01 0.60669129915E+01 0.60830869650E+01
 0.60926299548E+01 0.57764092306E+01 0.57768171977E+01 0.57779459543E+01 0.57795314271E+01
 0.57815326255E+01 0.57831090798E+01 0.57818682648E+01 0.57759528061E+01 0.57677562878E+01
 0.57560260449E+01 0.57391870461E+01 0.57179846055E+01 0.56943743843E+01 0.56674054248E+01
 0.56385090100E+01 0.56119174819E+01 0.55906036907E+01 0.55769273610E+01 0.55721458875E+01
 0.55769273610E+01 0.55906036907E+01 0.56119174819E+01 0.56385090100E+01 0.56674054248E+01
 0.56943743843E+01 0.57179846055E+01 0.57391870461E+01 0.57560260449E+01 0.57677562878E+01
 0.57759528061E+01 0.57818682648E+01 0.57831090798E+01 0.57815326255E+01 0.57795314271E+01
 0.57779459543E+01 0.57768171977E+01 0.56107105196E+01 0.56137459944E+01 0.56220644938E+01
 0.56346739388E+01 0.56489336527E+01 0.56632634207E+01 0.56765659983E+01 0.56885578951E+01
 0.56940230689E+01 0.56939215858E+01 0.56876220591E+01 0.56747765575E+01 0.56586607804E+01
 0.56374557993E+01 0.56146068529E+01 0.55934320865E+01 0.55769273610E+01 0.55661823678E+01
 0.55625835196E+01 0.55661823678E+01 0.55769273610E+01 0.55934320865E+01 0.56146068529E+01
 0.56374557993E+01 0.56586607804E+01 0.56747765575E+01 0.56876220591E+01 0.56939215858E+01
 0.56940230689E+01 0.56885578951E+01 0.56765659983E+01 0.56632634207E+01 0.56489336527E+01
 0.56346739388E+01 0.56220644938E+01 0.56137459944E+01 0.55592702482E+01 0.55625835196E+01
 0.55721458875E+01 0.55870991398E+01 0.56061971433E+01 0.56272879975E+01 0.56464878324E+01
 0.56606961827E+01 0.56706419651E+01 0.56747231661E+01 0.56706419651E+01 0.56606961827E+01
 0.56464878324E+01 0.56272879975E+01 0.56061971433E+01 0.55870991398E+01 0.55721458875E+01
 0.55625835196E+01 0.55592702482E+01 0.55625835196E+01 0.55721458875E+01 0.55870991398E+01
 0.56061971433E+01 0.56272879975E+01 0.56464878324E+01 0.56606961827E+01 0.56706419651E+01
 0.56747231661E+01 0.56706419651E+01 0.56606961827E+01 0.56464878324E+01 0.56272879975E+01
 0.56061971433E+01 0.55870991398E+01 0.55721458875E+01 0.55625835196E+01 0.56107105196E+01
 0.56137459944E+01 0.56220644938E+01 0.56346739388E+01 0.56489336527E+01 0.56632634207E+01
 0.56765659983E+01 0.56885578951E+01 0.56940230689E+01 0.56939215858E+01 0.56876220591E+01
 0.56747765575E+01 0.56586607804E+01 0.56374557993E+01 0.56146068529E+01 0.55934320865E+01
 0.55769273610E+01 0.55661823678E+01 0.55625835196E+01 0.55661823678E+01 0.55769273610E+01
 0.55934320865E+01 0.56146068529E+01 0.56374557993E+01 0.56586607804E+01 0.56747765575E+01
 0.56876220591E+01 0.56939215858E+01 0.56940230689E+01 0.56885578951E+01 0.56765659983E+01
 0.56632634207E+01 0.56489336527E+01 0.56346739388E+01 0.56220644938E+01 0.56137459944E+01
 0.57764092306E+01 0.57768171977E+01 0.57779459543E+01 0.57795314271E+01 0.57815326255E+01
 0.57831090798E+01 0.57818682648E+01 0.57759528061E+01 0.57677562878E+01 0.57560260449E+01
 0.57391870461E+01 0.57179846055E+01 0.56943743843E+01 0.56674054248E+01 0.56385090100E+01
 0.56119174819E+01 0.55906036907E+01 0.55769273610E+01 0.55721458875E+01 0.55769273610E+01
 0.55906036907E+01 0.56119174819E+01 0.56385090100E+01 0.56674054248E+01 0.56943743843E+01
 0.57179846055E+01 0.57391870461E+01 0.57560260449E+01 0.57677562878E+01 0.57759528061E+01
 0.57818682648E+01 0.57831090798E+01 0.57815326255E+01 0.57795314271E+01 0.57779459543E+01
 0.57768171977E+01 0.60957111087E+01 0.60926299548E+01 0.60830869650E+01 0.60669129915E+01
 0.60432929594E+01 0.60130879112E+01 0.59791127205E+01 0.59445349140E+01 0.59069478390E+01
 0.58685204994E+01 0.58310081083E+01 0.57915121599E+01 0.57530455117E+01 0.57144638241E+01
 0.56758854543E+01 0.56403482833E+01 0.56119174819E+01 0.55934320865E+01 0.55870991398E+01
 0.55934320865E+01 0.56119174819E+01 0.56403482833E+01 0.56758854543E+01 0.57144638241E+01
 0.57530455117E+01 0.57915121599E+01 0.58310081083E+01 0.58685204994E+01 0.59069478390E+01
 0.59445349140E+01 0.59791127205E+01 0.60130879112E+01 0.60432929594E+01 0.60669129915E+01
 0.60830869650E+01 0.60926299548E+01 0.66159072439E+01 0.66062989834E+01 0.65779516846E+01
 0.65314315449E+01 0.64697795890E+01 0.63957123365E+01 0.63116513100E+01 0.62203769327E+01
 0.61318035994E+01 0.60478894731E+01 0.59702553716E+01 0.58994943045E+01 0.58343605812E+01
 0.57762494135E+01 0.57227859532E+01 0.56758854543E+01 0.56385090100E+01 0.56146068529E+01
 0.56061971433E+01 0.56146068529E+01 0.56385090100E+01 0.56758854543E+01 0.57227859532E+01
 0.57762494135E+01 0.58343605812E+01 0.58994943045E+01 0.59702553716E+01 0.60478894731E+01
 0.61318035994E+01 0.62203769327E+01 0.63116513100E+01 0.63957123365E+01 0.64697795890E+01
 0.65314315449E+01 0.65779516846E+01 0.66062989834E+01 0.73648814299E+01 0.73496912529E+01
 0.73036375096E+01 0.72258221793E+01 0.71139978585E+01 0.69711449125E+01 0.68082847294E+01
 0.66395877169E+01 0.64703460035E+01 0.63111708777E+01 0.61697541942E+01 0.60467345896E+01
 0.59408596854E+01 0.58510339617E+01 0.57762494135E+01 0.57144638241E+01 0.56674054248E+01
 0.56374557993E+01 0.56272879975E+01 0.56374557993E+01 0.56674054248E+01 0.57144638241E+01
 0.57762494135E+01 0.58510339617E+01 0.59408596854E+01 0.60467345896E+01 0.61697541942E+01
 0.63111708777E+01 0.64703460035E+01 0.66395877169E+01 0.68082847294E+01 0.69711449125E+01
 0.71139978585E+01 0.72258221793E+01 0.73036375096E+01 0.73496912529E+01 0.84644738391E+01
 0.84258309517E+01 0.83180700249E+01 0.81599386677E+01 0.79706633001E+01 0.77553217187E+01
 0.75061212799E+01 0.72260964319E+01 0.69443368444E+01 0.66796811255E+01 0.64420762197E+01
 0.62410891361E+01 0.60752461365E+01 0.59408596854E+01 0.58343605812E+01 0.57530455117E+01
 0.56943743843E+01 0.56586607804E+01 0.56464878324E+01 0.56586607804E+01 0.56943743843E+01
 0.57530455117E+01 0.58343605812E+01 0.59408596854E+01 0.60752461365E+01 0.62410891361E+01
 0.64420762197E+01 0.66796811255E+01 0.69443368444E+01 0.72260964319E+01 0.75061212799E+01
 0.77553217187E+01 0.79706633001E+01 0.81599386677E+01 0.83180700249E+01 0.84258309517E+01
 0.10800690326E+02 0.10684103092E+02 0.10356129053E+02 0.98800480832E+01 0.93441088405E+01
 0.88338360945E+01 0.83893053413E+01 0.79835221901E+01 0.75688122696E+01 0.71628631684E+01
 0.67997717090E+01 0.64902098999E+01 0.62410891361E+01 0.60467345896E+01 0.58994943045E+01
 0.57915121599E+01 0.57179846055E+01 0.56747765575E+01 0.56606961827E+01 0.56747765575E+01
 0.57179846055E+01 0.57915121599E+01 0.58994943045E+01 0.60467345896E+01 0.62410891361E+01
 0.64902098999E+01 0.67997717090E+01 0.71628631684E+01 0.75688122696E+01 0.79835221901E+01
 0.83893053413E+01 0.88338360945E+01 0.93441088405E+01 0.98800480832E+01 0.10356129053E+02
 0.10684103092E+02 0.15661089447E+02 0.15398016217E+02 0.14648456949E+02 0.13526097405E+02
 0.12208025441E+02 0.10899857864E+02 0.97834262243E+01 0.89442477157E+01 0.83194345160E+01
 0.77620650613E+01 0.72425087277E+01 0.67997717090E+01 0.64420762197E+01 0.61697541942E+01
 0.59702553716E+01 0.58310081083E+01 0.57391870461E+01 0.56876220591E+01 0.56706419651E+01
 0.56876220591E+01 0.57391870461E+01 0.58310081083E+01 0.59702553716E+01 0.61697541942E+01
 0.64420762197E+01 0.67997717090E+01 0.72425087277E+01 0.77620650613E+01 0.83194345160E+01
 0.89442477157E+01 0.97834262243E+01 0.10899857864E+02 0.12208025441E+02 0.13526097405E+02
 0.14648456949E+02 0.15398016217E+02 0.24201138337E+02 0.23712298166E+02 0.22305572008E+02
 0.20161539959E+02 0.17568158506E+02 0.14884926705E+02 0.12467266856E+02 0.10574222234E+02
 0.92842330646E+01 0.84418618692E+01 0.77620650613E+01 0.71628631684E+01 0.66796811255E+01
 0.63111708777E+01 0.60478894731E+01 0.58685204994E+01 0.57560260449E+01 0.56939215858E+01
 0.56747231661E+01 0.56939215858E+01 0.57560260449E+01 0.58685204994E+01 0.60478894731E+01
 0.63111708777E+01 0.66796811255E+01 0.71628631684E+01 0.77620650613E+01 0.84418618692E+01
 0.92842330646E+01 0.10574222234E+02 0.12467266856E+02 0.14884926705E+02 0.17568158506E+02
 0.20161539959E+02 0.22305572008E+02 0.23712298166E+02 0.37255856377E+02 0.36450808509E+02
 0.34124049929E+02 0.30541843208E+02 0.26134002570E+02 0.21451024233E+02 0.17069390566E+02
 0.13466366657E+02 0.10886075321E+02 0.92842330646E+01 0.83194345160E+01 0.75688122696E+01
 0.69443368444E+01 0.64703460035E+01 0.61318035994E+01 0.59069478390E+01 0.57677562878E+01
 0.56940230689E+01 0.56706419651E+01 0.56940230689E+01 0.57677562878E+01 0.59069478390E+01
 0.61318035994E+01 0.64703460035E+01 0.69443368444E+01 0.75688122696E+01 0.83194345160E+01
 0.92842330646E+01 0.10886075321E+02 0.13466366657E+02 0.17069390566E+02 0.21451024233E+02
 0.26134002570E+02 0.30541843208E+02 0.34124049929E+02 0.36450808509E+02 0.55086061311E+02
 0.53865252579E+02 0.50335428472E+02 0.44879328881E+02 0.38117127268E+02 0.30830931688E+02
 0.23858109620E+02 0.17916790642E+02 0.13466366657E+02 0.10574222234E+02 0.89442477157E+01
 0.79835221901E+01 0.72260964319E+01 0.66395877169E+01 0.62203769327E+01 0.59445349140E+01
 0.57759528061E+01 0.56885578951E+01 0.56606961827E+01 0.56885578951E+01 0.57759528061E+01
 0.59445349140E+01 0.62203769327E+01 0.66395877169E+01 0.72260964319E+01 0.79835221901E+01
 0.89442477157E+01 0.10574222234E+02 0.13466366657E+02 0.17916790642E+02 0.23858109620E+02
 0.30830931688E+02 0.38117127268E+02 0.44879328881E+02 0.50335428472E+02 0.53865252579E+02
 0.77228272432E+02 0.75493879257E+02 0.70476963093E+02 0.62731069216E+02 0.53115031069E+02
 0.42703234211E+02 0.32620199129E+02 0.23858109620E+02 0.17069390566E+02 0.12467266856E+02
 0.97834262243E+01 0.83893053413E+01 0.75061212799E+01 0.68082847294E+01 0.63116513100E+01
 0.59791127205E+01 0.57818682648E+01 0.56765659983E+01 0.56464878324E+01 0.56765659983E+01
 0.57818682648E+01 0.59791127205E+01 0.63116513100E+01 0.68082847294E+01 0.75061212799E+01
 0.83893053413E+01 0.97834262243E+01 0.12467266856E+02 0.17069390566E+02 0.23858109620E+02
 0.32620199129E+02 0.42703234211E+02 0.53115031069E+02 0.62731069216E+02 0.70476963093E+02
 0.75493879257E+02 0.10241353183E+03 0.10007780547E+03 0.93336248439E+02 0.82959388815E+02
 0.70115098134E+02 0.56216020190E+02 0.42703234211E+02 0.30830931688E+02 0.21451024233E+02
 0.14884926705E+02 0.10899857864E+02 0.88338360945E+01 0.77553217187E+01 0.69711449125E+01
 0.63957123365E+01 0.60130879112E+01 0.57831090798E+01 0.56632634207E+01 0.56272879975E+01
 0.56632634207E+01 0.57831090798E+01 0.60130879112E+01 0.63957123365E+01 0.69711449125E+01
 0.77553217187E+01 0.88338360945E+01 0.10899857864E+02 0.14884926705E+02 0.21451024233E+02
 0.30830931688E+02 0.42703234211E+02 0.56216020190E+02 0.70115098134E+02 0.82959388815E+02
 0.93336248439E+02 0.10007780547E+03 0.12861809166E+03 0.12563134245E+03 0.11703466901E+03
 0.10385501939E+03 0.87620116753E+02 0.70115098134E+02 0.53115031069E+02 0.38117127268E+02
 0.26134002570E+02 0.17568158506E+02 0.12208025441E+02 0.93441088405E+01 0.79706633001E+01
 0.71139978585E+01 0.64697795890E+01 0.60432929594E+01 0.57815326255E+01 0.56489336527E+01
 0.56061971433E+01 0.56489336527E+01 0.57815326255E+01 0.60432929594E+01 0.64697795890E+01
 0.71139978585E+01 0.79706633001E+01 0.93441088405E+01 0.12208025441E+02 0.17568158506E+02
 0.26134002570E+02 0.38117127268E+02 0.53115031069E+02 0.70115098134E+02 0.87620116753E+02
 0.10385501939E+03 0.11703466901E+03 0.12563134245E+03 0.15325197955E+03 0.14962711050E+03
 0.13921943264E+03 0.12332841828E+03 0.10385501939E+03 0.82959388815E+02 0.62731069216E+02
 0.44879328881E+02 0.30541843208E+02 0.20161539959E+02 0.13526097405E+02 0.98800480832E+01
 0.81599386677E+01 0.72258221793E+01 0.65314315449E+01 0.60669129915E+01 0.57795314271E+01
 0.56346739388E+01 0.55870991398E+01 0.56346739388E+01 0.57795314271E+01 0.60669129915E+01
 0.65314315449E+01 0.72258221793E+01 0.81599386677E+01 0.98800480832E+01 0.13526097405E+02
 0.20161539959E+02 0.30541843208E+02 0.44879328881E+02 0.62731069216E+02 0.82959388815E+02
 0.10385501939E+03 0.12332841828E+03 0.13921943264E+03 0.14962711050E+03 0.17351847955E+03
 0.16934961672E+03 0.15740111621E+03 0.13921943264E+03 0.11703466901E+03 0.93336248439E+02
 0.70476963093E+02 0.50335428472E+02 0.34124049929E+02 0.22305572008E+02 0.14648456949E+02
 0.10356129053E+02 0.83180700249E+01 0.73036375096E+01 0.65779516846E+01 0.60830869650E+01
 0.57779459543E+01 0.56220644938E+01 0.55721458875E+01 0.56220644938E+01 0.57779459543E+01
 0.60830869650E+01 0.65779516846E+01 0.73036375096E+01 0.83180700249E+01 0.10356129053E+02
 0.14648456949E+02 0.22305572008E+02 0.34124049929E+02 0.50335428472E+02 0.70476963093E+02
 0.93336248439E+02 0.11703466901E+03 0.13921943264E+03 0.15740111621E+03 0.16934961672E+03
 0.18687651670E+03 0.18233925468E+03 0.16934961672E+03 0.14962711050E+03 0.12563134245E+03
 0.10007780547E+03 0.75493879257E+02 0.53865252579E+02 0.36450808509E+02 0.23712298166E+02
 0.15398016217E+02 0.10684103092E+02 0.84258309517E+01 0.73496912529E+01 0.66062989834E+01
 0.60926299548E+01 0.57768171977E+01 0.56137459944E+01 0.55625835196E+01 0.56137459944E+01
 0.57768171977E+01 0.60926299548E+01 0.66062989834E+01 0.73496912529E+01 0.84258309517E+01
 0.10684103092E+02 0.15398016217E+02 0.23712298166E+02 0.36450808509E+02 0.53865252579E+02
 0.75493879257E+02 0.10007780547E+03 0.12563134245E+03 0.14962711050E+03 0.16934961672E+03
 0.18233925468E+03 0.18687651670E+03 0.18233925468E+03 0.16934961672E+03 0.14962711050E+03
 0.12563134245E+03 0.10007780547E+03 0.75493879257E+02 0.53865252579E+02 0.36450808509E+02
 0.23712298166E+02 0.15398016217E+02 0.10684103092E+02 0.84258309517E+01 0.73496912529E+01
 0.66062989834E+01 0.60926299548E+01 0.57768171977E+01 0.56137459944E+01 0.55625835196E+01
 0.56137459944E+01 0.57768171977E+01 0.60926299548E+01 0.66062989834E+01 0.73496912529E+01
 0.84258309517E+01 0.10684103092E+02 0.15398016217E+02 0.23712298166E+02 0.36450808509E+02
 0.53865252579E+02 0.75493879257E+02 0.10007780547E+03 0.12563134245E+03 0.14962711050E+03
 0.16934961672E+03 0.18233925468E+03 0.18233925468E+03 0.17792773290E+03 0.16529368507E+03
 0.14609690817E+03 0.12271884126E+03 0.97796700971E+02 0.73797568491E+02 0.52670497397E+02
 0.35663419469E+02 0.23235159787E+02 0.15142633739E+02 0.10572127530E+02 0.83891808993E+01
 0.73350557603E+01 0.65973341968E+01 0.60900101454E+01 0.57776023922E+01 0.56170463816E+01
 0.55661823678E+01 0.56170463816E+01 0.57776023922E+01 0.60900101454E+01 0.65973341968E+01
 0.73350557603E+01 0.83891808993E+01 0.10572127530E+02 0.15142633739E+02 0.23235159787E+02
 0.35663419469E+02 0.52670497397E+02 0.73797568491E+02 0.97796700971E+02 0.12271884126E+03
 0.14609690817E+03 0.16529368507E+03 0.17792773290E+03 0.16934961672E+03 0.16529368507E+03
 0.15366488170E+03 0.13595764142E+03 0.11433312308E+03 0.91211713838E+02 0.68891244798E+02
 0.49216792817E+02 0.33388412349E+02 0.21863023612E+02 0.14415643677E+02 0.10257300349E+02
 0.82871612369E+01 0.72905569992E+01 0.65705684592E+01 0.60818019177E+01 0.57800646520E+01
 0.56264795756E+01 0.55769273610E+01 0.56264795756E+01 0.57800646520E+01 0.60818019177E+01
 0.65705684592E+01 0.72905569992E+01 0.82871612369E+01 0.10257300349E+02 0.14415643677E+02
 0.21863023612E+02 0.33388412349E+02 0.49216792817E+02 0.68891244798E+02 0.91211713838E+02
 0.11433312308E+03 0.13595764142E+03 0.15366488170E+03 0.16529368507E+03 0.14962711050E+03
 0.14609690817E+03 0.13595764142E+03 0.12046767076E+03 0.10147178883E+03 0.81073701688E+02
 0.61316432990E+02 0.43881049119E+02 0.29888703946E+02 0.19774251367E+02 0.13328768619E+02
 0.98011656951E+01 0.81365435412E+01 0.72148763492E+01 0.65267712672E+01 0.60675496749E+01
 0.57835219522E+01 0.56404405582E+01 0.55934320865E+01 0.56404405582E+01 0.57835219522E+01
 0.60675496749E+01 0.65267712672E+01 0.72148763492E+01 0.81365435412E+01 0.98011656951E+01
 0.13328768619E+02 0.19774251367E+02 0.29888703946E+02 0.43881049119E+02 0.61316432990E+02
 0.81073701688E+02 0.10147178883E+03 0.12046767076E+03 0.13595764142E+03 0.14609690817E+03
 0.12563134245E+03 0.12271884126E+03 0.11433312308E+03 0.10147178883E+03 0.85620548394E+02
 0.68522563191E+02 0.51915846484E+02 0.37273410108E+02 0.25587443705E+02 0.17252675243E+02
 0.12055255409E+02 0.92886632532E+01 0.79545954326E+01 0.71056892680E+01 0.64683133026E+01
 0.60462961957E+01 0.57879239714E+01 0.56565708115E+01 0.56146068529E+01 0.56565708115E+01
 0.57879239714E+01 0.60462961957E+01 0.64683133026E+01 0.71056892680E+01 0.79545954326E+01
 0.92886632532E+01 0.12055255409E+02 0.17252675243E+02 0.25587443705E+02 0.37273410108E+02
 0.51915846484E+02 0.68522563191E+02 0.85620548394E+02 0.10147178883E+03 0.11433312308E+03
 0.12271884126E+03 0.10007780547E+03 0.97796700971E+02 0.91211713838E+02 0.81073701688E+02
 0.68522563191E+02 0.54941177964E+02 0.41744070721E+02 0.30161790599E+02 0.21026084541E+02
 0.14650425688E+02 0.10794972383E+02 0.88007192234E+01 0.77444171725E+01 0.69664913823E+01
 0.63976536981E+01 0.60188825937E+01 0.57916724807E+01 0.56728378213E+01 0.56374557993E+01
 0.56728378213E+01 0.57916724807E+01 0.60188825937E+01 0.63976536981E+01 0.69664913823E+01
 0.77444171725E+01 0.88007192234E+01 0.10794972383E+02 0.14650425688E+02 0.21026084541E+02
 0.30161790599E+02 0.41744070721E+02 0.54941177964E+02 0.68522563191E+02 0.81073701688E+02
 0.91211713838E+02 0.97796700971E+02 0.75493879257E+02 0.73797568491E+02 0.68891244798E+02
 0.61316432990E+02 0.51915846484E+02 0.41744070721E+02 0.31904589506E+02 0.23366710811E+02
 0.16769572514E+02 0.12312780121E+02 0.97229026616E+01 0.83721089510E+01 0.74989546652E+01
 0.68080370834E+01 0.63166686754E+01 0.59879693795E+01 0.57927208739E+01 0.56885884273E+01
 0.56586607804E+01 0.56885884273E+01 0.57927208739E+01 0.59879693795E+01 0.63166686754E+01
 0.68080370834E+01 0.74989546652E+01 0.83721089510E+01 0.97229026616E+01 0.12312780121E+02
 0.16769572514E+02 0.23366710811E+02 0.31904589506E+02 0.41744070721E+02 0.51915846484E+02
 0.61316432990E+02 0.68891244798E+02 0.73797568491E+02 0.53865252579E+02 0.52670497397E+02
 0.49216792817E+02 0.43881049119E+02 0.37273410108E+02 0.30161790599E+02 0.23366710811E+02
 0.17591848105E+02 0.13280709285E+02 0.10488679809E+02 0.89165346058E+01 0.79741536676E+01
 0.72233826736E+01 0.66436655645E+01 0.62290339325E+01 0.59562238282E+01 0.57890862151E+01
 0.57025175373E+01 0.56747765575E+01 0.57025175373E+01 0.57890862151E+01 0.59562238282E+01
 0.62290339325E+01 0.66436655645E+01 0.72233826736E+01 0.79741536676E+01 0.89165346058E+01
 0.10488679809E+02 0.13280709285E+02 0.17591848105E+02 0.23366710811E+02 0.30161790599E+02
 0.37273410108E+02 0.43881049119E+02 0.49216792817E+02 0.52670497397E+02 0.36450808509E+02
 0.35663419469E+02 0.33388412349E+02 0.29888703946E+02 0.25587443705E+02 0.21026084541E+02
 0.16769572514E+02 0.13280709285E+02 0.10790519291E+02 0.92482405886E+01 0.83076536802E+01
 0.75642673995E+01 0.69471205463E+01 0.64784585758E+01 0.61438838854E+01 0.59214736748E+01
 0.57838798097E+01 0.57107287126E+01 0.56876220591E+01 0.57107287126E+01 0.57838798097E+01
 0.59214736748E+01 0.61438838854E+01 0.64784585758E+01 0.69471205463E+01 0.75642673995E+01
 0.83076536802E+01 0.92482405886E+01 0.10790519291E+02 0.13280709285E+02 0.16769572514E+02
 0.21026084541E+02 0.25587443705E+02 0.29888703946E+02 0.33388412349E+02 0.35663419469E+02
 0.23712298166E+02 0.23235159787E+02 0.21863023612E+02 0.19774251367E+02 0.17252675243E+02
 0.14650425688E+02 0.12312780121E+02 0.10488679809E+02 0.92482405886E+01 0.84289288319E+01