   2   2   1   0
  0.1173411E+02  0.2863036E-09  0.2863036E-09  0.2863036E-09  0.5000000E-15
  1.000000000000000E-004
  CAR 
 unknown system                          
     45.77072237     -4.89091929  301      5.87952973      1.00000000
     -4.891  0.0000E+00  0.0000E+00  0.0000E+00  0.0000E+00
     -4.722  0.0000E+00  0.0000E+00  0.0000E+00  0.0000E+00
     -4.553  0.0000E+00  0.0000E+00  0.0000E+00  0.0000E+00
     -4.384  0.0000E+00  0.0000E+00  0.0000E+00  0.0000E+00
     -4.215 -0.3692E-33  0.0000E+00 -0.6235E-34  0.0000E+00
     -4.047 -0.1553E-27 -0.5443E-33 -0.2623E-28 -0.9192E-34
     -3.878 -0.1580E-22 -0.2198E-27 -0.2668E-23 -0.3712E-28
     -3.709 -0.3785E-18 -0.2146E-22 -0.6392E-19 -0.3624E-23
     -3.540 -0.2288E-14 -0.4944E-18 -0.3864E-15 -0.8350E-19
     -3.371 -0.3422E-11 -0.2862E-14 -0.5783E-12 -0.4834E-15
     -3.202 -0.1280E-08 -0.4110E-11 -0.2167E-09 -0.6946E-12
     -3.033 -0.1184E-06 -0.1476E-08 -0.2021E-07 -0.2500E-09
     -2.864 -0.2477E-05 -0.1310E-06 -0.4385E-06 -0.2237E-07
     -2.696 -0.5432E-05 -0.2618E-05 -0.1356E-05 -0.4644E-06
     -2.527  0.6155E-04 -0.5002E-05  0.9039E-05 -0.1309E-05
     -2.358  0.2360E-03  0.6500E-04  0.4889E-04  0.9668E-05
     -2.189  0.3752E-03  0.2393E-03  0.1123E-03  0.5007E-04
     -2.020  0.4818E-03  0.3739E-03  0.1936E-03  0.1132E-03
     -1.851  0.5758E-03  0.4778E-03  0.2908E-03  0.1939E-03
     -1.682  0.6126E-03  0.5689E-03  0.3943E-03  0.2900E-03
     -1.513  0.7870E-03  0.5983E-03  0.5272E-03  0.3910E-03
     -1.345  0.7681E-03  0.7680E-03  0.6569E-03  0.5207E-03
     -1.176  0.8509E-03  0.7548E-03  0.8006E-03  0.6482E-03
     -1.007  0.1066E-02  0.7950E-03  0.9806E-03  0.7825E-03
     -0.838  0.9909E-03  0.1033E-02  0.1148E-02  0.9569E-03
     -0.669  0.1107E-02  0.9393E-03  0.1335E-02  0.1115E-02
     -0.500  0.1289E-02  0.1027E-02  0.1553E-02  0.1289E-02
     -0.331  0.1443E-02  0.1138E-02  0.1796E-02  0.1481E-02
     -0.162  0.1294E-02  0.1340E-02  0.2015E-02  0.1707E-02
      0.006  0.1696E-02  0.1223E-02  0.2301E-02  0.1914E-02
      0.175  0.1890E-02  0.1231E-02  0.2620E-02  0.2122E-02
      0.344  0.1951E-02  0.1688E-02  0.2950E-02  0.2407E-02
      0.513  0.2181E-02  0.1563E-02  0.3318E-02  0.2671E-02
      0.682  0.2832E-02  0.1614E-02  0.3796E-02  0.2944E-02
      0.851  0.3687E-02  0.1708E-02  0.4419E-02  0.3232E-02
      1.020  0.6896E-02  0.2087E-02  0.5584E-02  0.3584E-02
      1.188  0.1060E-01  0.2205E-02  0.7373E-02  0.3957E-02
      1.357  0.1221E-01  0.2111E-02  0.9436E-02  0.4313E-02
      1.526  0.1487E-01  0.2515E-02  0.1195E-01  0.4738E-02
      1.695  0.1867E-01  0.2934E-02  0.1510E-01  0.5233E-02
      1.864  0.1711E-01  0.3318E-02  0.1799E-01  0.5793E-02
      2.033  0.1232E-01  0.3631E-02  0.2007E-01  0.6407E-02
      2.202  0.9281E-02  0.5362E-02  0.2163E-01  0.7312E-02
      2.371  0.9504E-02  0.6809E-02  0.2324E-01  0.8462E-02
      2.539  0.2371E-01  0.7091E-02  0.2724E-01  0.9660E-02
      2.708  0.2949E-01  0.7002E-02  0.3222E-01  0.1084E-01
      2.877  0.2210E-01  0.7943E-02  0.3596E-01  0.1218E-01
      3.046  0.2012E-01  0.9720E-02  0.3935E-01  0.1382E-01
      3.215  0.2429E-01  0.1245E-01  0.4346E-01  0.1593E-01
      3.384  0.2915E-01  0.1269E-01  0.4838E-01  0.1807E-01
      3.553  0.2388E-01  0.1015E-01  0.5241E-01  0.1978E-01
      3.722  0.1332E-01  0.6952E-02  0.5466E-01  0.2096E-01
      3.890  0.8654E-02  0.5966E-02  0.5612E-01  0.2197E-01
      4.059  0.8476E-02  0.1360E-01  0.5755E-01  0.2426E-01
      4.228  0.9522E-02  0.2442E-01  0.5916E-01  0.2839E-01
      4.397  0.1379E-01  0.2573E-01  0.6149E-01  0.3273E-01
      4.566  0.2361E-01  0.2380E-01  0.6548E-01  0.3675E-01
      4.735  0.3497E-01  0.2227E-01  0.7138E-01  0.4051E-01
      4.904  0.4769E-01  0.2314E-01  0.7944E-01  0.4442E-01
      5.073  0.4678E-01  0.2451E-01  0.8734E-01  0.4856E-01
      5.241  0.2697E-01  0.2165E-01  0.9189E-01  0.5221E-01
      5.410  0.1687E-01  0.1641E-01  0.9474E-01  0.5498E-01
      5.579  0.1543E-01  0.9862E-02  0.9735E-01  0.5665E-01
      5.748  0.1472E-01  0.5625E-02  0.9983E-01  0.5760E-01
      5.917  0.1491E-01  0.4733E-02  0.1023E+00  0.5840E-01
      6.086  0.1323E-01  0.5222E-02  0.1046E+00  0.5928E-01
      6.255  0.7172E-02  0.5576E-02  0.1058E+00  0.6022E-01
      6.424  0.2923E-02  0.7080E-02  0.1063E+00  0.6142E-01
      6.592  0.2934E-02  0.1017E-01  0.1068E+00  0.6314E-01
      6.761  0.3006E-02  0.1380E-01  0.1073E+00  0.6547E-01
      6.930  0.2862E-02  0.1620E-01  0.1078E+00  0.6820E-01
      7.099  0.3072E-02  0.2006E-01  0.1083E+00  0.7159E-01
      7.268  0.2969E-02  0.2555E-01  0.1088E+00  0.7590E-01
      7.437  0.2707E-02  0.2617E-01  0.1093E+00  0.8032E-01
      7.606  0.2749E-02  0.2656E-01  0.1097E+00  0.8481E-01
      7.774  0.2652E-02  0.4325E-01  0.1102E+00  0.9211E-01
      7.943  0.3223E-02  0.4210E-01  0.1107E+00  0.9922E-01
      8.112  0.2794E-02  0.2105E-01  0.1112E+00  0.1028E+00
      8.281  0.1969E-02  0.1310E-01  0.1115E+00  0.1050E+00
      8.450  0.2909E-02  0.8006E-02  0.1120E+00  0.1063E+00
      8.619  0.2966E-02  0.4599E-02  0.1125E+00  0.1071E+00
      8.788  0.2090E-02  0.4597E-02  0.1129E+00  0.1079E+00
      8.957  0.2418E-02  0.4154E-02  0.1133E+00  0.1086E+00
      9.125  0.2703E-02  0.3228E-02  0.1137E+00  0.1091E+00
      9.294  0.2409E-02  0.4185E-02  0.1141E+00  0.1098E+00
      9.463  0.1903E-02  0.3798E-02  0.1145E+00  0.1105E+00
      9.632  0.1847E-02  0.3055E-02  0.1148E+00  0.1110E+00
      9.801  0.2781E-02  0.3344E-02  0.1152E+00  0.1116E+00
      9.970  0.2382E-02  0.3355E-02  0.1156E+00  0.1121E+00
     10.139  0.1546E-02  0.2945E-02  0.1159E+00  0.1126E+00
     10.308  0.1791E-02  0.3080E-02  0.1162E+00  0.1132E+00
     10.476  0.2006E-02  0.2843E-02  0.1165E+00  0.1136E+00
     10.645  0.1754E-02  0.2977E-02  0.1168E+00  0.1141E+00
     10.814  0.1394E-02  0.2283E-02  0.1171E+00  0.1145E+00
     10.983  0.1599E-02  0.2286E-02  0.1173E+00  0.1149E+00
     11.152  0.2162E-02  0.3173E-02  0.1177E+00  0.1154E+00
     11.321  0.1846E-02  0.2335E-02  0.1180E+00  0.1158E+00
     11.490  0.8838E-03  0.1581E-02  0.1182E+00  0.1161E+00
     11.659  0.4811E-03  0.2323E-02  0.1182E+00  0.1165E+00
     11.827  0.1260E-02  0.2233E-02  0.1185E+00  0.1169E+00
     11.996  0.1534E-02  0.1689E-02  0.1187E+00  0.1172E+00
     12.165  0.1210E-02  0.1840E-02  0.1189E+00  0.1175E+00
     12.334  0.1080E-02  0.2010E-02  0.1191E+00  0.1178E+00
     12.503  0.6941E-03  0.1643E-02  0.1192E+00  0.1181E+00
     12.672  0.5505E-03  0.9138E-03  0.1193E+00  0.1182E+00
     12.841  0.4979E-03  0.1058E-02  0.1194E+00  0.1184E+00
     13.010  0.3414E-03  0.1847E-02  0.1195E+00  0.1187E+00
     13.178  0.3847E-03  0.1465E-02  0.1195E+00  0.1190E+00
     13.347  0.2049E-02  0.9347E-03  0.1199E+00  0.1191E+00
     13.516  0.4615E-02  0.6213E-03  0.1206E+00  0.1192E+00
     13.685  0.5366E-02  0.4483E-03  0.1216E+00  0.1193E+00
     13.854  0.4384E-02  0.7163E-03  0.1223E+00  0.1194E+00
     14.023  0.4484E-02  0.8628E-03  0.1231E+00  0.1196E+00
     14.192  0.4098E-02  0.7126E-03  0.1237E+00  0.1197E+00
     14.361  0.3499E-02  0.4884E-03  0.1243E+00  0.1198E+00
     14.529  0.3470E-02  0.7964E-03  0.1249E+00  0.1199E+00
     14.698  0.3603E-02  0.3455E-02  0.1255E+00  0.1205E+00
     14.867  0.3939E-02  0.6910E-02  0.1262E+00  0.1217E+00
     15.036  0.2694E-02  0.6602E-02  0.1266E+00  0.1228E+00
     15.205  0.2398E-02  0.4620E-02  0.1271E+00  0.1236E+00
     15.374  0.3181E-02  0.4646E-02  0.1276E+00  0.1244E+00
     15.543  0.3570E-02  0.4154E-02  0.1282E+00  0.1251E+00
     15.711  0.3832E-02  0.3630E-02  0.1288E+00  0.1257E+00
     15.880  0.3646E-02  0.3445E-02  0.1295E+00  0.1262E+00
     16.049  0.4067E-02  0.3727E-02  0.1301E+00  0.1269E+00
     16.218  0.4051E-02  0.3581E-02  0.1308E+00  0.1275E+00
     16.387  0.3628E-02  0.3573E-02  0.1314E+00  0.1281E+00
     16.556  0.3400E-02  0.4070E-02  0.1320E+00  0.1288E+00
     16.725  0.4309E-02  0.4395E-02  0.1327E+00  0.1295E+00
     16.894  0.4080E-02  0.4265E-02  0.1334E+00  0.1302E+00
     17.062  0.3197E-02  0.4432E-02  0.1340E+00  0.1310E+00
     17.231  0.3723E-02  0.3844E-02  0.1346E+00  0.1316E+00
     17.400  0.4153E-02  0.3746E-02  0.1353E+00  0.1323E+00
     17.569  0.3264E-02  0.3913E-02  0.1359E+00  0.1329E+00
     17.738  0.3817E-02  0.4322E-02  0.1365E+00  0.1337E+00
     17.907  0.3617E-02  0.3628E-02  0.1371E+00  0.1343E+00
     18.076  0.3330E-02  0.4015E-02  0.1377E+00  0.1349E+00
     18.245  0.4197E-02  0.4513E-02  0.1384E+00  0.1357E+00
     18.413  0.3957E-02  0.3144E-02  0.1390E+00  0.1362E+00
     18.582  0.3295E-02  0.3641E-02  0.1396E+00  0.1369E+00
     18.751  0.2996E-02  0.3636E-02  0.1401E+00  0.1375E+00
     18.920  0.2972E-02  0.4051E-02  0.1406E+00  0.1382E+00
     19.089  0.4182E-02  0.4724E-02  0.1413E+00  0.1389E+00
     19.258  0.4365E-02  0.3513E-02  0.1421E+00  0.1395E+00
     19.427  0.3500E-02  0.3301E-02  0.1426E+00  0.1401E+00
     19.596  0.3354E-02  0.2547E-02  0.1432E+00  0.1405E+00
     19.764  0.2623E-02  0.4067E-02  0.1437E+00  0.1412E+00
     19.933  0.2832E-02  0.4724E-02  0.1441E+00  0.1420E+00
     20.102  0.3877E-02  0.3886E-02  0.1448E+00  0.1427E+00
     20.271  0.3980E-02  0.3794E-02  0.1455E+00  0.1433E+00
     20.440  0.4435E-02  0.2704E-02  0.1462E+00  0.1438E+00
     20.609  0.2941E-02  0.2540E-02  0.1467E+00  0.1442E+00
     20.778  0.2510E-02  0.3996E-02  0.1471E+00  0.1449E+00
     20.947  0.2872E-02  0.4522E-02  0.1476E+00  0.1456E+00
     21.115  0.2880E-02  0.4214E-02  0.1481E+00  0.1463E+00
     21.284  0.4087E-02  0.3115E-02  0.1488E+00  0.1469E+00
     21.453  0.4238E-02  0.2985E-02  0.1495E+00  0.1474E+00
     21.622  0.3427E-02  0.2684E-02  0.1501E+00  0.1478E+00
     21.791  0.3181E-02  0.3247E-02  0.1506E+00  0.1484E+00
     21.960  0.2808E-02  0.4287E-02  0.1511E+00  0.1491E+00
     22.129  0.3096E-02  0.4239E-02  0.1516E+00  0.1498E+00
     22.297  0.3791E-02  0.3558E-02  0.1523E+00  0.1504E+00
     22.466  0.4604E-02  0.2824E-02  0.1530E+00  0.1509E+00
     22.635  0.4819E-02  0.2768E-02  0.1538E+00  0.1514E+00
     22.804  0.4220E-02  0.2706E-02  0.1546E+00  0.1518E+00
     22.973  0.4032E-02  0.4412E-02  0.1552E+00  0.1526E+00
     23.142  0.3592E-02  0.5360E-02  0.1558E+00  0.1535E+00
     23.311  0.4041E-02  0.4312E-02  0.1565E+00  0.1542E+00
     23.480  0.4324E-02  0.4008E-02  0.1573E+00  0.1549E+00
     23.648  0.5340E-02  0.4408E-02  0.1582E+00  0.1556E+00
     23.817  0.5981E-02  0.4113E-02  0.1592E+00  0.1563E+00
     23.986  0.5206E-02  0.4691E-02  0.1601E+00  0.1571E+00
     24.155  0.4471E-02  0.5943E-02  0.1608E+00  0.1581E+00
     24.324  0.5016E-02  0.6549E-02  0.1617E+00  0.1592E+00
     24.493  0.4096E-02  0.6044E-02  0.1623E+00  0.1602E+00
     24.662  0.4528E-02  0.4904E-02  0.1631E+00  0.1611E+00
     24.831  0.5709E-02  0.4047E-02  0.1641E+00  0.1617E+00
     24.999  0.5763E-02  0.4508E-02  0.1650E+00  0.1625E+00
     25.168  0.4641E-02  0.4915E-02  0.1658E+00  0.1633E+00
     25.337  0.5094E-02  0.6094E-02  0.1667E+00  0.1644E+00
     25.506  0.4888E-02  0.4766E-02  0.1675E+00  0.1652E+00
     25.675  0.3953E-02  0.4683E-02  0.1682E+00  0.1660E+00
     25.844  0.5044E-02  0.5962E-02  0.1690E+00  0.1670E+00
     26.013  0.5980E-02  0.5135E-02  0.1700E+00  0.1678E+00
     26.182  0.6738E-02  0.3772E-02  0.1712E+00  0.1685E+00
     26.350  0.5909E-02  0.5496E-02  0.1722E+00  0.1694E+00
     26.519  0.4308E-02  0.6844E-02  0.1729E+00  0.1706E+00
     26.688  0.2940E-02  0.5672E-02  0.1734E+00  0.1715E+00
     26.857  0.4322E-02  0.5544E-02  0.1741E+00  0.1725E+00
     27.026  0.4489E-02  0.3869E-02  0.1749E+00  0.1731E+00
     27.195  0.4462E-02  0.4079E-02  0.1756E+00  0.1738E+00
     27.364  0.5385E-02  0.5303E-02  0.1766E+00  0.1747E+00
     27.533  0.4291E-02  0.3672E-02  0.1773E+00  0.1753E+00
     27.701  0.3666E-02  0.3489E-02  0.1779E+00  0.1759E+00
     27.870  0.3238E-02  0.5294E-02  0.1784E+00  0.1768E+00
     28.039  0.3061E-02  0.4879E-02  0.1790E+00  0.1776E+00
     28.208  0.3097E-02  0.3355E-02  0.1795E+00  0.1782E+00
     28.377  0.3868E-02  0.3474E-02  0.1801E+00  0.1788E+00
     28.546  0.3609E-02  0.3211E-02  0.1808E+00  0.1793E+00
     28.715  0.2749E-02  0.3019E-02  0.1812E+00  0.1798E+00
     28.884  0.2776E-02  0.3024E-02  0.1817E+00  0.1803E+00
     29.052  0.3114E-02  0.3432E-02  0.1822E+00  0.1809E+00
     29.221  0.3041E-02  0.3432E-02  0.1827E+00  0.1815E+00
     29.390  0.2036E-02  0.3328E-02  0.1831E+00  0.1821E+00
     29.559  0.2810E-02  0.2848E-02  0.1835E+00  0.1825E+00
     29.728  0.3349E-02  0.1992E-02  0.1841E+00  0.1829E+00
     29.897  0.3072E-02  0.2900E-02  0.1846E+00  0.1834E+00
     30.066  0.3441E-02  0.3737E-02  0.1852E+00  0.1840E+00
     30.234  0.3886E-02  0.3142E-02  0.1859E+00  0.1845E+00
     30.403  0.4310E-02  0.3295E-02  0.1866E+00  0.1851E+00
     30.572  0.5135E-02  0.4355E-02  0.1875E+00  0.1858E+00
     30.741  0.6175E-02  0.4911E-02  0.1885E+00  0.1866E+00
     30.910  0.7465E-02  0.5131E-02  0.1898E+00  0.1875E+00
     31.079  0.6562E-02  0.5213E-02  0.1909E+00  0.1884E+00
     31.248  0.5848E-02  0.7055E-02  0.1919E+00  0.1896E+00
     31.417  0.3863E-02  0.6978E-02  0.1925E+00  0.1908E+00
     31.585  0.4506E-02  0.5785E-02  0.1933E+00  0.1917E+00
     31.754  0.4084E-02  0.4989E-02  0.1940E+00  0.1926E+00
     31.923  0.2649E-02  0.3600E-02  0.1944E+00  0.1932E+00
     32.092  0.2646E-02  0.3734E-02  0.1949E+00  0.1938E+00
     32.261  0.2939E-02  0.4195E-02  0.1954E+00  0.1945E+00
     32.430  0.3152E-02  0.3058E-02  0.1959E+00  0.1950E+00
     32.599  0.1846E-02  0.2874E-02  0.1962E+00  0.1955E+00
     32.768  0.1326E-02  0.2906E-02  0.1964E+00  0.1960E+00
     32.936  0.1532E-02  0.1488E-02  0.1967E+00  0.1963E+00
     33.105  0.1107E-02  0.1834E-02  0.1969E+00  0.1966E+00
     33.274  0.6046E-03  0.1571E-02  0.1970E+00  0.1968E+00
     33.443  0.8260E-03  0.5179E-03  0.1971E+00  0.1969E+00
     33.612  0.8233E-03  0.1045E-02  0.1972E+00  0.1971E+00
     33.781  0.7243E-03  0.9466E-03  0.1974E+00  0.1973E+00
     33.950  0.1443E-02  0.9184E-03  0.1976E+00  0.1974E+00
     34.119  0.1017E-02  0.1658E-02  0.1978E+00  0.1977E+00
     34.287  0.5333E-03  0.7586E-03  0.1979E+00  0.1978E+00
     34.456  0.6626E-03  0.4445E-03  0.1980E+00  0.1979E+00
     34.625  0.6237E-03  0.7461E-03  0.1981E+00  0.1980E+00
     34.794  0.1832E-03  0.4034E-03  0.1981E+00  0.1981E+00
     34.963  0.3424E-03  0.2500E-03  0.1982E+00  0.1981E+00
     35.132  0.8458E-03  0.7690E-03  0.1983E+00  0.1983E+00
     35.301  0.5693E-03  0.7315E-03  0.1984E+00  0.1984E+00
     35.470  0.1845E-03  0.1901E-03  0.1984E+00  0.1984E+00
     35.638  0.1015E-02  0.8332E-03  0.1986E+00  0.1986E+00
     35.807  0.9142E-03  0.1132E-02  0.1988E+00  0.1988E+00
     35.976  0.2746E-03  0.3011E-03  0.1988E+00  0.1988E+00
     36.145  0.2357E-03  0.1578E-03  0.1989E+00  0.1988E+00
     36.314  0.4609E-03  0.5009E-03  0.1989E+00  0.1989E+00
     36.483  0.3024E-03  0.3348E-03  0.1990E+00  0.1990E+00
     36.652  0.9303E-04  0.1222E-03  0.1990E+00  0.1990E+00
     36.820  0.2462E-03  0.2849E-03  0.1990E+00  0.1991E+00
     36.989  0.4433E-03  0.3846E-03  0.1991E+00  0.1991E+00
     37.158  0.3032E-03  0.4159E-03  0.1992E+00  0.1992E+00
     37.327  0.3680E-03  0.4635E-03  0.1992E+00  0.1993E+00
     37.496  0.5714E-03  0.5265E-03  0.1993E+00  0.1994E+00
     37.665  0.4904E-03  0.4464E-03  0.1994E+00  0.1994E+00
     37.834  0.2673E-03  0.1908E-03  0.1995E+00  0.1995E+00
     38.003  0.3507E-04  0.9775E-05  0.1995E+00  0.1995E+00
     38.171  0.2254E-03  0.2181E-03  0.1995E+00  0.1995E+00
     38.340  0.2962E-03  0.3580E-03  0.1996E+00  0.1996E+00
     38.509  0.8229E-04  0.5202E-04  0.1996E+00  0.1996E+00
     38.678  0.2477E-04  0.4429E-04  0.1996E+00  0.1996E+00
     38.847  0.2403E-03  0.2568E-03  0.1996E+00  0.1996E+00
     39.016  0.1462E-03  0.1022E-03  0.1996E+00  0.1996E+00
     39.185  0.2083E-04  0.1677E-03  0.1996E+00  0.1997E+00
     39.354  0.3685E-03  0.4700E-03  0.1997E+00  0.1997E+00
     39.522  0.4338E-03  0.2924E-03  0.1998E+00  0.1998E+00
     39.691  0.1721E-03  0.1080E-03  0.1998E+00  0.1998E+00
     39.860  0.7579E-04  0.3754E-04  0.1998E+00  0.1998E+00
     40.029  0.8270E-04  0.8334E-04  0.1998E+00  0.1998E+00
     40.198  0.2531E-04  0.2049E-04  0.1998E+00  0.1998E+00
     40.367  0.4511E-05  0.3444E-04  0.1998E+00  0.1998E+00
     40.536  0.1120E-03  0.1290E-03  0.1999E+00  0.1999E+00
     40.705  0.8763E-04  0.5794E-04  0.1999E+00  0.1999E+00
     40.873  0.1980E-04  0.1080E-03  0.1999E+00  0.1999E+00
     41.042  0.1220E-03  0.8631E-04  0.1999E+00  0.1999E+00
     41.211  0.6690E-04  0.2930E-05  0.1999E+00  0.1999E+00
     41.380  0.3569E-04  0.1047E-03  0.1999E+00  0.1999E+00
     41.549  0.1385E-03  0.1874E-03  0.1999E+00  0.2000E+00
     41.718  0.1525E-03  0.1183E-03  0.2000E+00  0.2000E+00
     41.887  0.9204E-04  0.7241E-05  0.2000E+00  0.2000E+00
     42.056  0.6327E-06 -0.4789E-05  0.2000E+00  0.2000E+00
     42.224 -0.3429E-05 -0.3285E-06  0.2000E+00  0.2000E+00
     42.393 -0.1695E-06 -0.3919E-08  0.2000E+00  0.2000E+00
     42.562 -0.1537E-08 -0.7487E-10  0.2000E+00  0.2000E+00
     42.731 -0.2362E-09 -0.1451E-07  0.2000E+00  0.2000E+00
     42.900 -0.3833E-07 -0.6710E-06  0.2000E+00  0.2000E+00
     43.069 -0.1241E-05 -0.4015E-05  0.2000E+00  0.2000E+00
     43.238 -0.3248E-05  0.2626E-04  0.2000E+00  0.2000E+00
     43.407  0.4369E-04  0.8877E-04  0.2000E+00  0.2000E+00
     43.575  0.8639E-04  0.3259E-04  0.2000E+00  0.2000E+00
     43.744  0.1684E-04 -0.3902E-05  0.2000E+00  0.2000E+00
     43.913 -0.3832E-05 -0.8613E-06  0.2000E+00  0.2000E+00
     44.082 -0.4233E-06 -0.2154E-07  0.2000E+00  0.2000E+00
     44.251 -0.7007E-08 -0.1098E-09  0.2000E+00  0.2000E+00
     44.420 -0.2430E-10 -0.1257E-12  0.2000E+00  0.2000E+00
     44.589 -0.1900E-13 -0.3340E-16  0.2000E+00  0.2000E+00
     44.757 -0.3435E-17  0.0000E+00  0.2000E+00  0.2000E+00
     44.926  0.0000E+00  0.0000E+00  0.2000E+00  0.2000E+00
     45.095  0.0000E+00  0.0000E+00  0.2000E+00  0.2000E+00
     45.264  0.0000E+00  0.0000E+00  0.2000E+00  0.2000E+00
     45.433  0.0000E+00  0.0000E+00  0.2000E+00  0.2000E+00
     45.602  0.0000E+00  0.0000E+00  0.2000E+00  0.2000E+00
     45.771  0.0000E+00  0.0000E+00  0.2000E+00  0.2000E+00
     45.77072237     -4.89091929  301      5.87952973      1.00000000
     -4.891  0.0000E+00  0.0000E+00  0.0000E+00  0.0000E+00  0.0000E+00  0.0000E+00  0.0000E+00  0.0000E+00  0.0000E+00  0.0000E+00  0.0000E+00  0.0000E+00  0.0000E+00  0.0000E+00  0.0000E+00  0.0000E+00  0.0000E+00  0.0000E+00
     -4.722  0.0000E+00  0.0000E+00  0.0000E+00  0.0000E+00  0.0000E+00  0.0000E+00  0.0000E+00  0.0000E+00  0.0000E+00  0.0000E+00  0.0000E+00  0.0000E+00  0.0000E+00  0.0000E+00  0.0000E+00  0.0000E+00  0.0000E+00  0.0000E+00
     -4.553  0.0000E+00  0.0000E+00  0.0000E+00  0.0000E+00  0.0000E+00  0.0000E+00  0.0000E+00  0.0000E+00  0.0000E+00  0.0000E+00  0.0000E+00  0.0000E+00  0.0000E+00  0.0000E+00  0.0000E+00  0.0000E+00  0.0000E+00  0.0000E+00
     -4.384  0.0000E+00  0.0000E+00  0.0000E+00  0.0000E+00  0.0000E+00  0.0000E+00  0.0000E+00  0.0000E+00  0.0000E+00  0.0000E+00  0.0000E+00  0.0000E+00  0.0000E+00  0.0000E+00  0.0000E+00  0.0000E+00  0.0000E+00  0.0000E+00
     -4.215 -0.1357E-31  0.0000E+00 -0.1287E-35  0.0000E+00 -0.1287E-35  0.0000E+00 -0.1287E-35  0.0000E+00 -0.3409E-39  0.0000E+00 -0.3409E-39  0.0000E+00 -0.8721E-38  0.0000E+00 -0.3409E-39  0.0000E+00 -0.8721E-38  0.0000E+00
     -4.047 -0.5710E-26 -0.2001E-31 -0.8742E-30 -0.1894E-35 -0.8742E-30 -0.1894E-35 -0.8742E-30 -0.1894E-35 -0.3788E-33 -0.3565E-39 -0.3788E-33 -0.3565E-39 -0.5871E-32 -0.9045E-38 -0.3788E-33 -0.3565E-39 -0.5871E-32 -0.9045E-38
     -3.878 -0.5806E-21 -0.8078E-26 -0.1425E-24 -0.1237E-29 -0.1425E-24 -0.1237E-29 -0.1425E-24 -0.1237E-29 -0.9922E-28 -0.3819E-33 -0.9922E-28 -0.3819E-33 -0.9435E-27 -0.5855E-32 -0.9922E-28 -0.3819E-33 -0.9435E-27 -0.5855E-32
     -3.709 -0.1390E-16 -0.7884E-21 -0.5393E-20 -0.1939E-24 -0.5393E-20 -0.1939E-24 -0.5393E-20 -0.1939E-24 -0.6202E-23 -0.9640E-28 -0.6202E-23 -0.9640E-28 -0.3484E-22 -0.9048E-27 -0.6202E-23 -0.9640E-28 -0.3484E-22 -0.9048E-27
     -3.540 -0.8399E-13 -0.1816E-16 -0.5111E-16 -0.7119E-20 -0.5111E-16 -0.7119E-20 -0.5111E-16 -0.7119E-20 -0.8938E-19 -0.5808E-23 -0.8938E-19 -0.5808E-23 -0.3193E-18 -0.3241E-22 -0.8938E-19 -0.5808E-23 -0.3193E-18 -0.3241E-22
     -3.371 -0.1255E-09 -0.1050E-12 -0.1165E-12 -0.6430E-16 -0.1165E-12 -0.6430E-16 -0.1165E-12 -0.6430E-16 -0.3143E-15 -0.8065E-19 -0.3143E-15 -0.8065E-19 -0.6906E-15 -0.2829E-18 -0.3143E-15 -0.8065E-19 -0.6906E-15 -0.2829E-18
     -3.202 -0.4688E-07 -0.1507E-09 -0.6455E-10 -0.1409E-12 -0.6455E-10 -0.1409E-12 -0.6455E-10 -0.1409E-12 -0.2620E-12 -0.2732E-15 -0.2620E-12 -0.2732E-15 -0.3575E-12 -0.5878E-15 -0.2620E-12 -0.2732E-15 -0.3575E-12 -0.5878E-15
     -3.033 -0.4327E-05 -0.5405E-07 -0.8671E-08 -0.7510E-10 -0.8671E-08 -0.7510E-10 -0.8671E-08 -0.7510E-10 -0.5159E-10 -0.2194E-12 -0.5159E-10 -0.2194E-12 -0.4584E-10 -0.2921E-12 -0.5159E-10 -0.2194E-12 -0.4584E-10 -0.2921E-12
     -2.864 -0.9027E-04 -0.4788E-05 -0.2755E-06 -0.9696E-08 -0.2755E-06 -0.9696E-08 -0.2755E-06 -0.9696E-08 -0.2418E-08 -0.4158E-10 -0.2418E-08 -0.4158E-10 -0.1694E-08 -0.3592E-10 -0.2418E-08 -0.4158E-10 -0.1694E-08 -0.3592E-10
     -2.696 -0.1943E-03 -0.9535E-04 -0.1807E-05 -0.2954E-06 -0.1807E-05 -0.2954E-06 -0.1807E-05 -0.2954E-06 -0.2839E-07 -0.1870E-08 -0.2839E-07 -0.1870E-08 -0.2281E-07 -0.1272E-08 -0.2839E-07 -0.1870E-08 -0.2281E-07 -0.1272E-08
     -2.527  0.2255E-02 -0.1784E-03  0.3146E-05 -0.1833E-05  0.3146E-05 -0.1833E-05  0.3146E-05 -0.1833E-05 -0.6407E-07 -0.2091E-07 -0.6407E-07 -0.2091E-07 -0.5154E-07 -0.1643E-07 -0.6407E-07 -0.2091E-07 -0.5154E-07 -0.1643E-07
     -2.358  0.8533E-02  0.2379E-02  0.4876E-04  0.3666E-05  0.4876E-04  0.3666E-05  0.4876E-04  0.3666E-05  0.5155E-06 -0.4164E-07  0.5155E-06 -0.4164E-07  0.4493E-06 -0.3235E-07  0.5155E-06 -0.4164E-07  0.4493E-06 -0.3235E-07
     -2.189  0.1338E-01  0.8645E-02  0.1375E-03  0.5052E-04  0.1375E-03  0.5052E-04  0.1375E-03  0.5052E-04  0.3133E-05  0.3961E-06  0.3133E-05  0.3961E-06  0.2036E-05  0.3363E-06  0.3133E-05  0.3961E-06  0.2036E-05  0.3363E-06
     -2.020  0.1686E-01  0.1333E-01  0.2792E-03  0.1389E-03  0.2792E-03  0.1389E-03  0.2792E-03  0.1389E-03  0.9122E-05  0.2271E-05  0.9122E-05  0.2271E-05  0.8385E-05  0.1428E-05  0.9122E-05  0.2271E-05  0.8385E-05  0.1428E-05
     -1.851  0.1982E-01  0.1671E-01  0.4331E-03  0.2798E-03  0.4331E-03  0.2798E-03  0.4331E-03  0.2798E-03  0.2185E-04  0.6401E-05  0.2185E-04  0.6401E-05  0.1468E-04  0.5726E-05  0.2185E-04  0.6401E-05  0.1468E-04  0.5726E-05
     -1.682  0.2067E-01  0.1958E-01  0.5838E-03  0.4316E-03  0.5838E-03  0.4316E-03  0.5838E-03  0.4316E-03  0.3702E-04  0.1503E-04  0.3702E-04  0.1503E-04  0.2974E-04  0.9768E-05  0.3702E-04  0.1503E-04  0.2974E-04  0.9768E-05
     -1.513  0.2600E-01  0.2019E-01  0.9035E-03  0.5732E-03  0.9035E-03  0.5732E-03  0.9035E-03  0.5732E-03  0.6980E-04  0.2480E-04  0.6980E-04  0.2480E-04  0.6362E-04  0.1883E-04  0.6980E-04  0.2480E-04  0.6362E-04  0.1883E-04
     -1.345  0.2496E-01  0.2540E-01  0.9900E-03  0.8896E-03  0.9900E-03  0.8896E-03  0.9900E-03  0.8896E-03  0.1049E-03  0.4550E-04  0.1049E-03  0.4550E-04  0.6732E-04  0.4068E-04  0.1049E-03  0.4550E-04  0.6732E-04  0.4068E-04
     -1.176  0.2687E-01  0.2459E-01  0.1290E-02  0.9796E-03  0.1290E-02  0.9796E-03  0.1290E-02  0.9796E-03  0.1596E-03  0.6766E-04  0.1596E-03  0.6766E-04  0.1335E-03  0.4178E-04  0.1596E-03  0.6766E-04  0.1335E-03  0.4178E-04
     -1.007  0.3300E-01  0.2523E-01  0.1772E-02  0.1216E-02  0.1772E-02  0.1216E-02  0.1772E-02  0.1216E-02  0.2349E-03  0.9794E-04  0.2349E-03  0.9794E-04  0.2273E-03  0.7469E-04  0.2349E-03  0.9794E-04  0.2273E-03  0.7469E-04
     -0.838  0.2992E-01  0.3219E-01  0.1794E-02  0.1739E-02  0.1794E-02  0.1739E-02  0.1794E-02  0.1739E-02  0.3396E-03  0.1442E-03  0.3396E-03  0.1442E-03  0.2344E-03  0.1359E-03  0.3396E-03  0.1442E-03  0.2344E-03  0.1359E-03
     -0.669  0.3248E-01  0.2868E-01  0.2193E-02  0.1724E-02  0.2193E-02  0.1724E-02  0.2193E-02  0.1724E-02  0.4690E-03  0.1911E-03  0.4690E-03  0.1911E-03  0.3549E-03  0.1341E-03  0.4690E-03  0.1911E-03  0.3549E-03  0.1341E-03
     -0.500  0.3667E-01  0.3058E-01  0.2772E-02  0.2072E-02  0.2772E-02  0.2072E-02  0.2772E-02  0.2072E-02  0.6083E-03  0.2808E-03  0.6083E-03  0.2808E-03  0.6382E-03  0.1761E-03  0.6083E-03  0.2808E-03  0.6382E-03  0.1761E-03
     -0.331  0.3988E-01  0.3309E-01  0.3243E-02  0.2493E-02  0.3243E-02  0.2493E-02  0.3243E-02  0.2493E-02  0.9571E-03  0.3071E-03  0.9571E-03  0.3071E-03  0.7583E-03  0.3124E-03  0.9571E-03  0.3071E-03  0.7583E-03  0.3124E-03
     -0.162  0.3450E-01  0.3795E-01  0.3049E-02  0.3131E-02  0.3049E-02  0.3131E-02  0.3049E-02  0.3131E-02  0.1121E-02  0.4979E-03  0.1121E-02  0.4979E-03  0.8106E-03  0.4127E-03  0.1121E-02  0.4979E-03  0.8106E-03  0.4127E-03
      0.006  0.4314E-01  0.3393E-01  0.4246E-02  0.2986E-02  0.4246E-02  0.2986E-02  0.4246E-02  0.2986E-02  0.1681E-02  0.5829E-03  0.1681E-02  0.5829E-03  0.1556E-02  0.3786E-03  0.1681E-02  0.5829E-03  0.1556E-02  0.3786E-03
      0.175  0.4624E-01  0.3294E-01  0.4864E-02  0.3240E-02  0.4864E-02  0.3240E-02  0.4864E-02  0.3240E-02  0.2190E-02  0.6981E-03  0.2190E-02  0.6981E-03  0.2139E-02  0.5237E-03  0.2190E-02  0.6981E-03  0.2139E-02  0.5237E-03
      0.344  0.4511E-01  0.4394E-01  0.5013E-02  0.4651E-02  0.5013E-02  0.4651E-02  0.5013E-02  0.4651E-02  0.3230E-02  0.1023E-02  0.3230E-02  0.1023E-02  0.2410E-02  0.9564E-03  0.3230E-02  0.1023E-02  0.2410E-02  0.9564E-03
      0.513  0.4720E-01  0.3957E-01  0.5674E-02  0.4484E-02  0.5674E-02  0.4484E-02  0.5674E-02  0.4484E-02  0.4214E-02  0.1125E-02  0.4214E-02  0.1125E-02  0.3637E-02  0.9801E-03  0.4214E-02  0.1125E-02  0.3637E-02  0.9801E-03
      0.682  0.5759E-01  0.3939E-01  0.7527E-02  0.4735E-02  0.7527E-02  0.4735E-02  0.7527E-02  0.4735E-02  0.6136E-02  0.1621E-02  0.6136E-02  0.1621E-02  0.5717E-02  0.1041E-02  0.6136E-02  0.1621E-02  0.5717E-02  0.1041E-02
      0.851  0.6354E-01  0.4015E-01  0.8014E-02  0.5202E-02  0.8014E-02  0.5202E-02  0.8014E-02  0.5202E-02  0.1325E-01  0.1840E-02  0.1325E-01  0.1840E-02  0.1004E-01  0.1461E-02  0.1325E-01  0.1840E-02  0.1004E-01  0.1461E-02
      1.020  0.8308E-01  0.4702E-01  0.9526E-02  0.6637E-02  0.9526E-02  0.6637E-02  0.9526E-02  0.6637E-02  0.3502E-01  0.2390E-02  0.3502E-01  0.2390E-02  0.3549E-01  0.2268E-02  0.3502E-01  0.2390E-02  0.3549E-01  0.2268E-02
      1.188  0.9699E-01  0.4776E-01  0.1199E-01  0.6975E-02  0.1199E-01  0.6975E-02  0.1199E-01  0.6975E-02  0.5251E-01  0.3194E-02  0.5251E-01  0.3194E-02  0.7956E-01  0.2651E-02  0.5251E-01  0.3194E-02  0.7956E-01  0.2651E-02
      1.357  0.8688E-01  0.4354E-01  0.1289E-01  0.6693E-02  0.1289E-01  0.6693E-02  0.1289E-01  0.6693E-02  0.5650E-01  0.3863E-02  0.5650E-01  0.3863E-02  0.1142E+00  0.2666E-02  0.5650E-01  0.3863E-02  0.1142E+00  0.2666E-02
      1.526  0.8105E-01  0.4884E-01  0.1646E-01  0.7984E-02  0.1646E-01  0.7984E-02  0.1646E-01  0.7984E-02  0.6114E-01  0.5175E-02  0.6114E-01  0.5175E-02  0.1638E+00  0.4091E-02  0.6114E-01  0.5175E-02  0.1638E+00  0.4091E-02
      1.695  0.7671E-01  0.5351E-01  0.2151E-01  0.9363E-02  0.2151E-01  0.9363E-02  0.2151E-01  0.9363E-02  0.6809E-01  0.6515E-02  0.6809E-01  0.6515E-02  0.2322E+00  0.6035E-02  0.6809E-01  0.6515E-02  0.2322E+00  0.6035E-02
      1.864  0.5727E-01  0.5674E-01  0.1972E-01  0.1008E-01  0.1972E-01  0.1008E-01  0.1972E-01  0.1008E-01  0.7026E-01  0.9319E-02  0.7026E-01  0.9319E-02  0.2103E+00  0.7216E-02  0.7026E-01  0.9319E-02  0.2103E+00  0.7216E-02
      2.033  0.3273E-01  0.5558E-01  0.1262E-01  0.9710E-02  0.1262E-01  0.9710E-02  0.1262E-01  0.9710E-02  0.7084E-01  0.1327E-01  0.7084E-01  0.1327E-01  0.1314E+00  0.9770E-02  0.7084E-01  0.1327E-01  0.1314E+00  0.9770E-02
      2.202  0.1765E-01  0.7107E-01  0.9098E-02  0.1215E-01  0.9098E-02  0.1215E-01  0.9098E-02  0.1215E-01  0.5851E-01  0.2395E-01  0.5851E-01  0.2395E-01  0.9717E-01  0.1871E-01  0.5851E-01  0.2395E-01  0.9717E-01  0.1871E-01
      2.371  0.6486E-02  0.7852E-01  0.9401E-02  0.1287E-01  0.9401E-02  0.1287E-01  0.9401E-02  0.1287E-01  0.6954E-01  0.3540E-01  0.6954E-01  0.3540E-01  0.9347E-01  0.2822E-01  0.6954E-01  0.3540E-01  0.9347E-01  0.2822E-01
      2.539  0.2739E-02  0.7429E-01  0.1920E-01  0.1294E-01  0.1920E-01  0.1294E-01  0.1920E-01  0.1294E-01  0.2551E+00  0.4000E-01  0.2551E+00  0.4000E-01  0.1356E+00  0.3033E-01  0.2551E+00  0.4000E-01  0.1356E+00  0.3033E-01
      2.708  0.4196E-02  0.6531E-01  0.2103E-01  0.1355E-01  0.2103E-01  0.1355E-01  0.2103E-01  0.1355E-01  0.3320E+00  0.3944E-01  0.3320E+00  0.3944E-01  0.1535E+00  0.3342E-01  0.3320E+00  0.3944E-01  0.1535E+00  0.3342E-01
      2.877  0.6705E-02  0.6228E-01  0.1567E-01  0.1500E-01  0.1567E-01  0.1500E-01  0.1567E-01  0.1500E-01  0.2454E+00  0.4239E-01  0.2454E+00  0.4239E-01  0.1193E+00  0.4873E-01  0.2454E+00  0.4239E-01  0.1193E+00  0.4873E-01
      3.046  0.1004E-01  0.5353E-01  0.1969E-01  0.1631E-01  0.1969E-01  0.1631E-01  0.1969E-01  0.1631E-01  0.2225E+00  0.4321E-01  0.2225E+00  0.4321E-01  0.9823E-01  0.8851E-01  0.2225E+00  0.4321E-01  0.9823E-01  0.8851E-01
      3.215  0.1496E-01  0.4892E-01  0.2962E-01  0.1994E-01  0.2962E-01  0.1994E-01  0.2962E-01  0.1994E-01  0.2648E+00  0.4705E-01  0.2648E+00  0.4705E-01  0.1128E+00  0.1382E+00  0.2648E+00  0.4705E-01  0.1128E+00  0.1382E+00
      3.384  0.1963E-01  0.3789E-01  0.3456E-01  0.1873E-01  0.3456E-01  0.1873E-01  0.3456E-01  0.1873E-01  0.3186E+00  0.5010E-01  0.3186E+00  0.5010E-01  0.1366E+00  0.1480E+00  0.3186E+00  0.5010E-01  0.1366E+00  0.1480E+00
      3.553  0.1638E-01  0.2439E-01  0.2680E-01  0.1369E-01  0.2680E-01  0.1369E-01  0.2680E-01  0.1369E-01  0.2697E+00  0.5118E-01  0.2697E+00  0.5118E-01  0.1035E+00  0.1092E+00  0.2697E+00  0.5118E-01  0.1035E+00  0.1092E+00