    2    2  100    2
  0.1173411E+02  0.2863035E-09  0.2863035E-09  0.2863035E-09  0.5000000E-15
  1.000000000000000E-004
  CAR 
 unknown system                          
     16    220     20
 
  0.0000000E+00  0.0000000E+00  0.0000000E+00  0.1457938E-03
    1       -2.588117     -2.424063   1.000000   1.000000
    2        1.002971      2.815676   1.000000   1.000000
    3        1.002971      2.815817   1.000000   1.000000
    4        3.567867      5.464833   1.000000   1.006260
    5        3.567868      5.464966   1.000000   1.006274
    6        3.567868      5.464976   1.000000   1.006275
    7        4.786509      7.530785   1.000000  -0.000000
    8        4.786510      7.530949   1.000000  -0.000000
    9        6.004220      8.175156   0.069739  -0.000000
   10        6.004222      8.175280   0.069736  -0.000000
   11        6.004222      8.175291   0.069736  -0.000000
   12       15.841058     16.107695   0.000000   0.000000
   13       15.841058     16.107696   0.000000   0.000000
   14       15.841058     16.107699   0.000000   0.000000
   15       21.572302     22.628113   0.000000   0.000000
   16       21.572304     22.628126   0.000000   0.000000
   17       26.739141     27.839201   0.000000   0.000000
   18       30.940702     30.687376   0.000000   0.000000
   19       30.940702     30.687376   0.000000   0.000000
   20       30.940702     30.687376   0.000000   0.000000
 
  0.5263158E-01  0.0000000E+00  0.0000000E+00  0.8747631E-03
    1       -2.530263     -2.365972   1.000000   1.000000
    2        1.027860      2.837097   1.000000   1.000000
    3        1.029059      2.845303   1.000000   1.000000
    4        3.567307      5.462106   1.000000   1.005973
    5        3.567308      5.462249   1.000000   1.005987
    6        3.583758      5.482463   1.000000   1.008380
    7        4.760582      7.497030   1.000000  -0.000000
    8        4.796777      7.543905   1.000000  -0.000000
    9        5.954977      8.109969   0.204547  -0.000000
   10        5.954978      8.110103   0.204542  -0.000000
   11        5.987171      8.156136   0.109644  -0.000000
   12       15.406290     15.751231   0.000000   0.000000
   13       15.951290     16.234399   0.000000   0.000000
   14       15.951290     16.234399   0.000000   0.000000
   15       21.589199     22.639767   0.000000   0.000000
   16       21.907785     22.896082   0.000000   0.000000
   17       26.923449     28.014609   0.000000   0.000000
   18       30.525199     30.328235   0.000000   0.000000
   19       30.893473     30.664203   0.000000   0.000000
   20       30.893473     30.664203   0.000000   0.000000
 
  0.1052632E+00  0.0000000E+00  0.0000000E+00  0.8747631E-03
    1       -2.358061     -2.192842   1.000000   1.000000
    2        1.101544      2.895756   1.000000   1.000000
    3        1.103943      2.932849   1.000000   1.000000
    4        3.566714      5.455291   1.000000   1.005300
    5        3.566715      5.455434   1.000000   1.005314
    6        3.631056      5.534558   1.000000   1.017477
    7        4.683429      7.396573   1.000000  -0.000000
    8        4.827119      7.581832   1.000000  -0.000000
    9        5.814401      7.927143   0.760050  -0.000000
   10        5.814403      7.927276   0.760045  -0.000000
   11        5.935779      8.098403   0.272107  -0.000000
   12       14.366423     14.866066   0.000000   0.000000
   13       16.273565     16.600222   0.000000   0.000000
   14       16.273565     16.600224   0.000000   0.000000
   15       21.639290     22.674646   0.000000   0.000000
   16       22.601813     23.475894   0.000000   0.000000
   17       27.526086     28.584818   0.000000   0.000000
   18       29.601894     29.505547   0.000000   0.000000
   19       30.704094     30.558030   0.000000   0.000000
   20       30.704094     30.558032   0.000000   0.000000
 
  0.1578947E+00  0.3081488E-32  0.0000000E+00  0.8747631E-03
    1       -2.075912     -1.908302   1.000000   1.000000
    2        1.218847      2.977999   1.000000   1.000000
    3        1.222538      3.076944   1.000000   1.000000
    4        3.568971      5.448056   1.000000   1.004654
    5        3.568972      5.448198   1.000000   1.004666
    6        3.708652      5.620083   1.000000   1.034725
    7        4.556869      7.232028   1.000000  -0.000000
    8        4.876508      7.641912   1.000000  -0.000000
    9        5.603279      7.660230   1.032435  -0.000000
   10        5.603280      7.660361   1.032436  -0.000000
   11        5.851832      8.004152   0.615961  -0.000000
   12       13.081265     13.744003   0.000000   0.000000
   13       16.786215     17.170721   0.000000   0.000000
   14       16.786215     17.170724   0.000000   0.000000
   15       21.724922     22.734896   0.000000   0.000000
   16       23.233942     24.025209   0.000000   0.000000
   17       28.547794     28.549064   0.000000   0.000000
   18       28.619559     29.617529   0.000000   0.000000
   19       30.258844     30.269345   0.000000   0.000000
   20       30.258844     30.269349   0.000000   0.000000
 
  0.2105263E+00 -0.6162976E-32  0.0000000E+00  0.8747631E-03
    1       -1.691829     -1.518817   1.000000   1.000000
    2        1.358505      3.059442   1.000000   1.000000
    3        1.388097      3.274808   1.000000   1.000000
    4        3.579010      5.446542   1.000000   1.004527
    5        3.579011      5.446683   1.000000   1.004539
    6        3.814685      5.737020   1.000000   0.964177
    7        4.384121      7.008159   1.000000  -0.000000
    8        4.943792      7.347031   1.000000  -0.000000
    9        5.347490      7.347162   1.000550  -0.000000
   10        5.347491      7.719482   1.000550  -0.000000
   11        5.737860      7.876292   0.962755  -0.000000
   12       11.736190     12.570365   0.000000   0.000000
   13       17.461487     17.906054   0.000000   0.000000
   14       17.461487     17.906058   0.000000   0.000000
   15       21.849139     22.823592   0.000000   0.000000
   16       23.679991     24.414039   0.000000   0.000000
   17       27.516296     27.611319   0.000000   0.000000
   18       29.493766     29.699691   0.000000   0.000000
   19       29.493767     29.699696   0.000000   0.000000
   20       30.161242     31.085803   0.000000   0.000000
 
  0.2631579E+00  0.1848893E-31  0.0000000E+00  0.8747631E-03
    1       -1.218566     -1.034033   1.000000   1.000000
    2        1.500484      3.104266   1.000000   1.000000
    3        1.594372      3.522447   1.000000   1.000000
    4        3.601790      5.457029   1.000000   1.005466
    5        3.601791      5.457169   1.000000   1.005479
    6        3.946598      5.882646   1.000000   0.486817
    7        4.169324      6.730778   1.000000  -0.000000
    8        5.029865      7.019562   1.000000  -0.000000
    9        5.071651      7.019692   1.000000  -0.000000
   10        5.071652      7.718677   1.000000  -0.000000
   11        5.597257      7.809800   1.031349  -0.000000
   12       10.419153     11.450711  -0.000000   0.000000
   13       18.271734     18.770935   0.000000   0.000000
   14       18.271735     18.770940   0.000000   0.000000
   15       22.016096     22.945037   0.000000   0.000000
   16       24.005575     24.686099   0.000000   0.000000
   17       26.560307     26.749204   0.000000   0.000000
   18       28.473824     28.846858   0.000000   0.000000
   19       28.473824     28.846865   0.000000   0.000000
   20       30.291108     30.714795   0.000000   0.000000
 
  0.3157895E+00  0.2465190E-31  0.0000000E+00  0.8747631E-03
    1       -0.675590     -0.467675   1.000000   1.000000
    2        1.614872      3.066815   1.000000   1.000000
    3        1.836436      3.814747   1.000000   1.000000
    4        3.643769      5.487675   1.000000   1.009099
    5        3.643770      5.487813   1.000000   1.009118
    6        3.918798      6.053475   1.000000  -0.005798
    7        4.101156      6.409013   1.000000  -0.000584
    8        4.796533      6.702036   1.000000  -0.000000
    9        4.796534      6.702166   1.000000  -0.000000
   10        5.140800      7.536221   1.000001  -0.000000
   11        5.434246      7.909812   1.003598  -0.000000
   12        9.183243     10.456126  -0.000000  -0.000000
   13       19.192894     19.737462   0.000000   0.000000
   14       19.192895     19.737465   0.000000   0.000000
   15       22.231327     23.104902   0.000000   0.000000
   16       24.300579     24.924313   0.000000   0.000000
   17       25.700333     25.984230   0.000000   0.000000
   18       27.312547     27.798879   0.000000   0.000000
   19       27.312547     27.798885   0.000000   0.000000
   20       29.084380     29.498787   0.000000   0.000000
 
  0.3684211E+00  0.2465190E-31  0.0000000E+00  0.8747631E-03
    1       -0.092804      0.160780   1.000000   1.000000
    2        1.662507      2.898842   1.000000   1.000000
    3        2.108229      4.145150   1.000000   1.000000
    4        3.639342      5.545520   1.000000   1.019870
    5        3.710558      5.545657   1.000000   1.019901
    6        3.710559      6.052414   1.000000  -0.004742
    7        4.274496      6.245329   1.000000  -0.013342
    8        4.537270      6.410435   1.000000  -0.000565
    9        4.537271      6.410565   1.000000  -0.000563
   10        5.253604      7.334361   1.000044  -0.000000
   11        5.292412      8.021206   1.000133  -0.000000
   12        8.072041      9.639262  -0.000000  -0.000000
   13       20.205050     20.784256   0.000000   0.000000
   14       20.205050     20.784259   0.000000   0.000000
   15       22.501234     23.310029   0.000000   0.000000
   16       24.631705     25.197402   0.000000   0.000000
   17       24.941026     25.320645   0.000000   0.000000
   18       26.090218     26.645744   0.000000   0.000000
   19       26.090219     26.645750   0.000000   0.000000
   20       27.995152     28.405146   0.000000   0.000000
 
  0.4210526E+00 -0.1232595E-31  0.0000000E+00  0.8747631E-03
    1        0.484802      0.823313   1.000000   1.000000
    2        1.597508      2.568661   1.000000   1.000000
    3        2.402690      4.505817   1.000000   1.000000
    4        3.339054      5.637028   1.000000   1.035434
    5        3.807190      5.637164   1.000000   1.035432
    6        3.807190      5.672095   1.000000   1.028567
    7        4.303905      6.154302   1.000000  -0.032684
    8        4.303906      6.154434   1.000000  -0.032662
    9        4.462209      6.453408   1.000000  -0.000190
   10        5.060517      7.118891   1.000000  -0.000000
   11        5.516341      8.154633   1.013826  -0.000000
   12        7.128577      9.027255  -0.000000  -0.000000
   13       21.291256     21.893797   0.000000   0.000000
   14       21.291257     21.893799   0.000000   0.000000
   15       22.833173     23.568444   0.000000   0.000000
   16       24.280698     24.755257   0.000000   0.000000
   17       24.853413     25.447804   0.000000   0.000000
   18       24.853414     25.447808   0.000000   0.000000
   19       25.044876     25.556419   0.000000   0.000000
   20       27.041971     27.457400   0.000000   0.000000
 
  0.4736842E+00  0.0000000E+00  0.0000000E+00  0.8747631E-03
    1        0.996530      1.480888   1.000000   1.000000
    2        1.379147      2.081799   1.000000   1.000000
    3        2.711933      4.887676   1.000000   1.000000
    4        3.027210      5.280348   1.000000   1.000096
    5        3.937498      5.767467   1.000000   0.901411
    6        3.937499      5.767601   1.000000   0.901083
    7        4.103200      5.939618   1.000000   0.258020
    8        4.103201      5.939751   1.000000   0.257538
    9        4.659467      6.672527   1.000000  -0.000000
   10        4.860776      6.896418   1.000000  -0.000000
   11        5.863106      8.335860   0.569237  -0.000000
   12        6.389358      8.608195  -0.000927  -0.000000
   13       22.437776     23.051610   0.000000   0.000000
   14       22.437777     23.051610   0.000000   0.000000
   15       23.235298     23.889221   0.000000   0.000000
   16       23.629934     24.241943   0.000000   0.000000
   17       23.629935     24.241945   0.000000   0.000000
   18       23.715618     24.281910   0.000000   0.000000
   19       25.572190     26.038543   0.000000   0.000000
   20       26.234439     26.668275   0.000000   0.000000
 
  0.5263158E-01  0.5263158E-01  0.0000000E+00  0.1749526E-02
    1       -2.472638     -2.308074   1.000000   1.000000
    2        1.052511      2.862940   1.000000   1.000000
    3        1.054783      2.869545   1.000000   1.000000
    4        3.536138      5.426751   1.000000   1.003113
    5        3.565798      5.458423   1.000000   1.005601
    6        3.630163      5.532685   1.000000   1.017082
    7        4.754412      7.488335   1.000000  -0.000000
    8        4.789033      7.533715   1.000000  -0.000000
    9        5.865793      8.001253   0.557976  -0.000000
   10        5.905328      8.044425   0.391841  -0.000000
   11        6.011757      8.183680   0.054434  -0.000000
   12       15.415621     15.788258   0.000000   0.000000
   13       15.609170     15.959037   0.000000   0.000000
   14       16.059326     16.357437   0.000000   0.000000
   15       21.762632     22.776750   0.000000   0.000000
   16       22.103204     23.054206   0.000000   0.000000
   17       27.097916     28.181738   0.000000   0.000000
   18       30.163061     30.034128   0.000000   0.000000
   19       30.775534     30.558369   0.000000   0.000000
   20       30.858280     30.648634   0.000000   0.000000
 
  0.1052632E+00  0.5263158E-01  0.0000000E+00  0.3499052E-02
    1       -2.301306     -2.135682   1.000000   1.000000
    2        1.124546      2.923893   1.000000   1.000000
    3        1.130555      2.954000   1.000000   1.000000
    4        3.510334      5.393470   1.000000   1.001572
    5        3.562236      5.448594   1.000000   1.004700
    6        3.702368      5.611087   1.000000   1.033655
    7        4.688435      7.401287   1.000000  -0.000000
    8        4.813302      7.563765   1.000000  -0.000000
    9        5.698256      7.792160   1.012485  -0.000000
   10        5.765073      7.862494   0.907188  -0.000000
   11        5.993390      8.161859   0.094238  -0.000000
   12       14.443095     14.959764   0.000000   0.000000
   13       15.843950     16.247045   0.000000   0.000000
   14       16.375683     16.713823   0.000000   0.000000
   15       21.873669     22.861292   0.000000   0.000000
   16       22.783274     23.627437   0.000000   0.000000
   17       27.672589     28.728148   0.000000   0.000000
   18       29.248919     29.226887   0.000000   0.000000
   19       30.527792     30.386078   0.000000   0.000000
   20       30.702326     30.564403   0.000000   0.000000
 
  0.1578947E+00  0.5263158E-01  0.0000000E+00  0.3499052E-02
    1       -2.020673     -1.852396   1.000000   1.000000
    2        1.240000      3.006854   1.000000   1.000000
    3        1.249425      3.095508   1.000000   1.000000
    4        3.495855      5.369399   1.000000   1.000921
    5        3.559734      5.436750   1.000000   1.003773
    6        3.796136      5.713106   1.000000   0.997815
    7        4.569971      7.245070   1.000000  -0.000000
    8        4.863247      7.517758   1.000000  -0.000000
    9        5.475824      7.598250   1.007527  -0.000000
   10        5.555041      7.624647   1.022031  -0.000000
   11        5.929127      8.087578   0.297122  -0.000000
   12       13.156730     13.833325   0.000000   0.000000
   13       16.327788     16.790608   0.000000   0.000000
   14       16.880085     17.272015   0.000000   0.000000
   15       21.980989     22.939651   0.000000   0.000000
   16       23.456976     24.217417   0.000000   0.000000
   17       28.171852     28.251257   0.000000   0.000000
   18       28.729565     29.728615   0.000000   0.000000
   19       30.033746     30.036276   0.000000   0.000000
   20       30.295612     30.304836   0.000000   0.000000
 
  0.2105263E+00  0.5263158E-01  0.0000000E+00  0.3499052E-02
    1       -1.638948     -1.464772   1.000000   1.000000
    2        1.382020      3.088755   1.000000   1.000000
    3        1.410134      3.289712   1.000000   1.000000
    4        3.494662      5.357050   1.000000   1.000691
    5        3.561592      5.428049   1.000000   1.003193
    6        3.912546      5.840300   1.000000   0.662507
    7        4.409236      7.031973   1.000000  -0.000000
    8        4.931622      7.205920   1.000000  -0.000000
    9        5.217410      7.291305   1.000015  -0.000000
   10        5.302123      7.704060   1.000173  -0.000000
   11        5.827382      7.971558   0.712556  -0.000000
   12       11.808794     12.653368   0.000000   0.000000
   13       16.963421     17.488027   0.000000   0.000000
   14       17.546266     17.994784   0.000000   0.000000
   15       22.127185     23.047053   0.000000   0.000000
   16       23.948224     24.651826   0.000000   0.000000
   17       27.095589     27.274865   0.000000   0.000000
   18       29.245209     29.413227   0.000000   0.000000
   19       29.550144     29.755267   0.000000   0.000000
   20       30.241018     31.168172   0.000000   0.000000
 
  0.2631579E+00  0.5263158E-01  0.0000000E+00  0.3499052E-02
    1       -1.169148     -0.982586   1.000000   1.000000
    2        1.524442      3.133162   1.000000   1.000000
    3        1.611994      3.532206   1.000000   1.000000
    4        3.509760      5.360414   1.000000   1.000748
    5        3.569083      5.428161   1.000000   1.003200
    6        4.050915      5.992122   1.000000   0.097300
    7        4.215866      6.770473   1.000000  -0.000000
    8        4.943216      6.883230   1.000000  -0.000000
    9        5.018606      6.975728   1.000000  -0.000000
   10        5.032074      7.796319   1.000000  -0.000000
   11        5.694529      7.821244   1.015492  -0.000000
   12       10.488107     11.525328  -0.000000   0.000000
   13       17.718093     18.298899   0.000000   0.000000
   14       18.347651     18.848274   0.000000   0.000000
   15       22.322688     23.193152   0.000000   0.000000
   16       24.316104     24.968515   0.000000   0.000000
   17       26.069140     26.351156   0.000000   0.000000
   18       28.260455     28.554605   0.000000   0.000000
   19       28.531411     28.906410   0.000000   0.000000
   20       31.014598     31.427492   0.000000   0.000000
 
  0.3157895E+00  0.5263158E-01  0.0000000E+00  0.3499052E-02
    1       -0.631077     -0.419683   1.000000   1.000000
    2        1.637670      3.094017   1.000000   1.000000
    3        1.849014      3.817301   1.000000   1.000000
    4        3.546111      5.385971   1.000000   1.001336
    5        3.569350      5.439576   1.000000   1.003979
    6        4.014527      6.166710   1.000000  -0.030389
    7        4.209436      6.474142   1.000000  -0.000108
    8        4.671565      6.571377   1.000000  -0.000006
    9        4.766964      6.677720   1.000000  -0.000000
   10        5.130404      7.643599   1.000001  -0.000000
   11        5.536709      7.898121   1.017937  -0.000000
   12        9.246839     10.518761  -0.000000  -0.000000
   13       18.562841     19.190054   0.000000   0.000000
   14       19.260872     19.805231   0.000000   0.000000
   15       22.577064     23.387514   0.000000   0.000000
   16       24.655188     25.254479   0.000000   0.000000
   17       25.100368     25.488489   0.000000   0.000000
   18       27.209633     27.580582   0.000000   0.000000
   19       27.365859     27.854412   0.000000   0.000000
   20       29.820521     30.245017   0.000000   0.000000
 
  0.3684211E+00  0.5263158E-01  0.0000000E+00  0.3499052E-02
    1       -0.054924      0.204324   1.000000   1.000000
    2        1.682803      2.923915   1.000000   1.000000
    3        2.114550      4.137509   1.000000   1.000000
    4        3.493254      5.439822   1.000000   1.003998
    5        3.608452      5.452077   1.000000   1.005005
    6        3.885746      6.169385   1.000000  -0.029842
    7        4.384954      6.284983   1.000000  -0.007313
    8        4.416173      6.360543   1.000000  -0.001751
    9        4.523538      6.413773   1.000000  -0.000521
   10        5.284019      7.445172   1.000106  -0.000000
   11        5.359749      8.011464   1.000736  -0.000000
   12        8.127214      9.685509  -0.000000  -0.000000
   13       19.471260     20.132470   0.000000   0.000000
   14       20.266139     20.844234   0.000000   0.000000
   15       22.902081     23.642732   0.000000   0.000000
   16       24.172594     24.666275   0.000000   0.000000
   17       25.036475     25.583221   0.000000   0.000000
   18       26.140002     26.607630   0.000000   0.000000
   19       26.189720     26.696713   0.000000   0.000000
   20       28.708349     29.138093   0.000000   0.000000
 
  0.4210526E+00  0.5263158E-01  0.0000000E+00  0.3499052E-02
    1        0.514605      0.861483   1.000000   1.000000
    2        1.615061      2.593211   1.000000   1.000000
    3        2.400978      4.482831   1.000000   1.000000
    4        3.277827      5.401423   1.000000   1.001862
    5        3.701258      5.527846   1.000000   1.016080
    6        3.902848      5.936800   1.000000   0.268335
    7        4.187066      6.033963   1.000000   0.017420
    8        4.312707      6.191525   1.000000  -0.024918
    9        4.573610      6.569476   1.000000  -0.000006
   10        5.169253      7.232178   1.000003  -0.000000
   11        5.513540      8.148077   1.013307  -0.000000
   12        7.170908      9.054748  -0.000000  -0.000000
   13       20.418145     21.098236   0.000000   0.000000
   14       21.347088     21.948110   0.000000   0.000000
   15       23.258084     23.844436   0.000000   0.000000
   16       23.313408     23.976759   0.000000   0.000000
   17       24.901909     25.496276   0.000000   0.000000
   18       25.265810     25.724475   0.000000   0.000000
   19       25.508149     26.008568   0.000000   0.000000
   20       27.705699     28.139732   0.000000   0.000000
 
  0.4736842E+00  0.5263158E-01  0.0000000E+00  0.3499052E-02
    1        1.018464      1.513181   1.000000   1.000000
    2        1.396515      2.108968   1.000000   1.000000
    3        2.699064      4.838186   1.000000   1.000000
    4        2.997421      5.173082   1.000000   1.000004
    5        3.827799      5.654564   1.000000   1.033702
    6        3.989868      5.823066   1.000000   0.728688
    7        3.999563      5.905147   1.000000   0.392585
    8        4.138155      6.015370   1.000000   0.047599
    9        4.770579      6.788074   1.000000  -0.000000
   10        4.970906      7.010950   1.000000  -0.000000
   11        5.871795      8.335404   0.532702  -0.000000
   12        6.414814      8.619045  -0.000508  -0.000000
   13       21.378443     22.057507   0.000000   0.000000
   14       22.329263     22.979409   0.000000   0.000000
   15       22.488982     23.101527   0.000000   0.000000
   16       23.678730     24.289970   0.000000   0.000000
   17       23.830452     24.414647   0.000000   0.000000
   18       24.476366     24.989135   0.000000   0.000000
   19       26.101327     26.566908   0.000000   0.000000
   20       26.833152     27.277281   0.000000   0.000000
 
  0.1052632E+00  0.1052632E+00  0.0000000E+00  0.1749526E-02
    1       -2.132531     -1.965407   1.000000   1.000000
    2        1.190517      3.003785   1.000000   1.000000
    3        1.209697      3.016428   1.000000   1.000000
    4        3.445207      5.317468   1.000000   1.000259
    5        3.550729      5.430770   1.000000   1.003366
    6        3.813017      5.731832   1.000000   0.972596
    7        4.677990      7.381547   1.000000  -0.000000
    8        4.797284      7.541494   1.000000  -0.000000
    9        5.489569      7.543182   1.009370  -0.000000
   10        5.625937      7.683973   1.035187  -0.000000
   11        6.032855      8.207193   0.018990  -0.000000
   12       14.424820     14.996244   0.000000   0.000000
   13       15.082243     15.621841   0.000000   0.000000
   14       16.675808     17.045162   0.000000   0.000000
   15       22.158755     23.091636   0.000000   0.000000
   16       23.411653     24.168045   0.000000   0.000000
   17       28.161942     28.450268   0.000000   0.000000
   18       28.343741     29.202080   0.000000   0.000000
   19       30.189438     30.080993   0.000000   0.000000
   20       30.648306     30.547350   0.000000   0.000000
 
  0.1578947E+00  0.1052632E+00  0.0000000E+00  0.3499052E-02
    1       -1.856706     -1.686033   1.000000   1.000000
    2        1.295795      3.091339   1.000000   1.000000
    3        1.334041      3.147696   1.000000   1.000000
    4        3.394537      5.254596   1.000000   1.000046
    5        3.535536      5.405898   1.000000   1.002045
    6        3.941236      5.871511   1.000000   0.533899
    7        4.600012      7.242301   1.000000  -0.000000
    8        4.830590      7.272158   1.000000  -0.000000
    9        5.238833      7.429607   1.000029  -0.000000
   10        5.420389      7.583024   1.002746  -0.000000
   11        6.020797      8.192328   0.037934  -0.000000
   12       13.335224     14.045174   0.000000   0.000000
   13       15.316962     15.926991   0.000000   0.000000
   14       17.157284     17.569959   0.000000   0.000000
   15       22.331729     23.225464   0.000000   0.000000
   16       24.182828     24.855452   0.000000   0.000000
   17       27.227479     27.444931   0.000000   0.000000
   18       29.098183     29.650898   0.000000   0.000000
   19       29.666782     30.097370   0.000000   0.000000
   20       30.379658     30.387177   0.000000   0.000000
 
  0.2105263E+00  0.1052632E+00  0.0000000E+00  0.3499052E-02
    1       -1.482453     -1.304204   1.000000   1.000000
    2        1.429788      3.170862   1.000000   1.000000
    3        1.494721      3.333765   1.000000   1.000000
    4        3.362211      5.209609   1.000000   1.000012
    5        3.519812      5.379519   1.000000   1.001158
    6        4.086125      6.029483   1.000000   0.023944
    7        4.473565      6.920764   1.000000  -0.000000
    8        4.897880      7.094308   1.000000  -0.000000
    9        4.965143      7.142481   1.000000  -0.000000
   10        5.177087      7.661806   1.000004  -0.000000
   11        5.960951      8.122217   0.185095  -0.000000
   12       11.999963     12.867970   0.000000   0.000000
   13       15.875358     16.541731   0.000000   0.000000
   14       17.797744     18.257673   0.000000   0.000000
   15       22.498885     23.349991   0.000000   0.000000
   16       24.805341     25.423864   0.000000   0.000000
   17       26.080229     26.398377   0.000000   0.000000
   18       28.914316     29.013442   0.000000   0.000000
   19       29.714203     29.914437   0.000000   0.000000
   20       30.502481     31.437259   0.000000   0.000000
 
  0.2631579E+00  0.1052632E+00  0.0000000E+00  0.3499052E-02
    1       -1.023677     -0.830084   1.000000   1.000000
    2        1.570068      3.210791   1.000000   1.000000
    3        1.686739      3.564047   1.000000   1.000000
    4        3.351390      5.186445   1.000000   1.000005
    5        3.501139      5.355556   1.000000   1.000667
    6        4.246575      6.204856   1.000000  -0.021839
    7        4.325236      6.598374   1.000000  -0.000002
    8        4.685605      6.862373   1.000000  -0.000000
    9        4.925196      6.873543   1.000000  -0.000000
   10        4.986100      7.757738   1.000000  -0.000000
   11        5.860457      8.006169   0.580297  -0.000000
   12       10.674903     11.723029  -0.000000   0.000000
   13       16.555370     17.268470   0.000000   0.000000
   14       18.573780     19.078753   0.000000   0.000000
   15       22.699014     23.498817   0.000000   0.000000
   16       24.958669     25.373556   0.000000   0.000000
   17       25.292844     25.869912   0.000000   0.000000
   18       28.015113     28.210315   0.000000   0.000000
   19       28.702814     29.083364   0.000000   0.000000
   20       32.266950     32.779273   0.000000   0.000000
 
  0.3157895E+00  0.1052632E+00  0.0000000E+00  0.3499052E-02
    1       -0.501456     -0.278089   1.000000   1.000000
    2        1.680262      3.164004   1.000000   1.000000
    3        1.908369      3.831308   1.000000   1.000000
    4        3.366355      5.190541   1.000000   1.000006
    5        3.462486      5.331741   1.000000   1.000373
    6        4.186376      6.291710   1.000000  -0.006534
    7        4.414693      6.396406   1.000000  -0.000788
    8        4.421188      6.618979   1.000000  -0.000001
    9        4.689661      6.631369   1.000000  -0.000001
   10        5.099585      7.853428   1.000000  -0.000000
   11        5.726891      7.863850   0.980023  -0.000000
   12        9.421190     10.686905  -0.000000  -0.000000
   13       17.318749     18.064914   0.000000   0.000000
   14       19.463647     20.007690   0.000000   0.000000
   15       22.947974     23.687326   0.000000   0.000000
   16       23.877701     24.384383   0.000000   0.000000
   17       25.740189     26.277841   0.000000   0.000000
   18       27.081489     27.347450   0.000000   0.000000
   19       27.523899     28.019324   0.000000   0.000000
   20       31.240164     31.654193   0.000000   0.000000
 
  0.3684211E+00  0.1052632E+00  0.0000000E+00  0.3499052E-02
    1        0.053024      0.331799   1.000000   1.000000
    2        1.719297      2.986817   1.000000   1.000000
    3        2.155669      4.126510   1.000000   1.000000
    4        3.366667      5.226899   1.000000   1.000020
    5        3.411041      5.291401   1.000000   1.000130
    6        4.102604      6.013485   1.000000   0.051124