 vasp.6.2.0 18Jan21 (build Aug 12 2022 13:00:08) complex                        
  
 executed on             LinuxIFC date 2024.11.04  04:22:18
 running on    4 total cores
 distrk:  each k-point on    4 cores,    1 groups
 distr:  one band on NCORE=   1 cores,    4 groups


--------------------------------------------------------------------------------------------------------


 INCAR:
   ISTART = 0            (Read existing wavefunction, if there)
   ISPIN = 2            (Non-Spin polarised DFT)
   MAGMOM = 5 5          (Set this parameters manually)
   GGA_COMPAT = .FALSE.   (Apply spherical cutoff on gradient field)
   VOSKOWN = 1        (Enhances the magnetic moments and the magnetic energies)
   LMAXMIX = 4        (For d elements increase LMAXMIX to 4, f: LMAXMIX \= 6)
   LREAL = .FALSE.       (Projection operators: automatic)
   ENCUT = 350          (Cut-off energy for plane wave basis set, in eV)
   LORBIT = 11           (Write orbital decomposed charge densities and magnetic moments)
   ADDGRID = .TRUE.        (Increase grid, helps GGA convergence)
   LASPH = .TRUE.        (Give more accurate total energies and band structure calculations)
   PREC = Accurate      (Accurate strictly avoids any aliasing or wrap around errors)
   KSPACING = 0.12
   ISMEAR = 1            (Gaussian smearing, metals:1)
   SIGMA = 0.2          (Smearing value in eV, metals:0.2)
   NELM = 90           (Max electronic SCF steps)
   NELMIN = 6            (Min electronic SCF steps)
   EDIFF = 1E-06        (SCF energy convergence, in eV)
   NSW = 100          (Max ionic steps)
   IBRION = 2            (Algorithm: 0-MD, 1-Quasi-New, 2-CG)
   ISIF = 3            (Stress/relaxation: 2-Ions, 3-Shape/Ions/V, 4-Shape/Ions)
   EDIFFG = -2E-03        (Ionic convergence, eV/AA)
   ISYM = 2              (Symmetry: 0\=none, 2\=GGA, 3\=hybrids)

 POTCAR:    PAW_PBE Fe 06Sep2000                  
 POTCAR:    PAW_PBE Fe 06Sep2000                  
   VRHFIN =Fe:  d7 s1                                                                               
   LEXCH  = PE                                                                                      
   EATOM  =   594.3153 eV,   43.6809 Ry                                                             
                                                                                                    
   TITEL  = PAW_PBE Fe 06Sep2000                                                                    
   LULTRA =        F    use ultrasoft PP ?                                                          
   IUNSCR =        1    unscreen: 0-lin 1-nonlin 2-no                                               
   RPACOR =    2.000    partial core radius                                                         
   POMASS =   55.847; ZVAL   =    8.000    mass and valenz                                          
   RCORE  =    2.300    outmost cutoff radius                                                       
   RWIGS  =    2.460; RWIGS  =    1.302    wigner-seitz radius (au A)                               
   ENMAX  =  267.882; ENMIN  =  200.911 eV                                                          
   RCLOC  =    1.701    cutoff for local pot                                                        
   LCOR   =        T    correct aug charges                                                         
   LPAW   =        T    paw PP                                                                      
   EAUG   =  511.368                                                                                
   DEXC   =    0.000                                                                                
   RMAX   =    2.356    core radius for proj-oper                                                   
   RAUG   =    1.300    factor for augmentation sphere                                              
   RDEP   =    2.442    radius for radial grids                                                     
   RDEPT  =    1.890    core radius for aug-charge                                                  
                                                                                                    
   Atomic configuration                                                                             
    9 entries                                                                                       
     n  l   j            E        occ.                                                              
     1  0  0.50     -6993.8440   2.0000                                                             
     2  0  0.50      -814.6047   2.0000                                                             
     2  1  1.50      -693.3689   6.0000                                                             
     3  0  0.50       -89.4732   2.0000                                                             
     3  1  1.50       -55.6373   6.0000                                                             
     3  2  2.50        -3.8151   7.0000                                                             
     4  0  0.50        -4.2551   1.0000                                                             
     4  1  1.50        -3.4015   0.0000                                                             
     4  3  2.50        -1.3606   0.0000                                                             
   Description                                                                                      
     l       E           TYP  RCUT    TYP  RCUT                                                     
     2     -3.8151135     23  2.300                                                                 
     2     -5.1756961     23  2.300                                                                 
     0     -4.2550963     23  2.300                                                                 
     0      7.2035603     23  2.300                                                                 
     1     -2.7211652     23  2.300                                                                 
     1     18.4316424     23  2.300                                                                 
  local pseudopotential read in
  partial core-charges read in
  partial kinetic energy density read in
  atomic valenz-charges read in
  non local Contribution for L=           2  read in
    real space projection operators read in
  non local Contribution for L=           2  read in
    real space projection operators read in
  non local Contribution for L=           0  read in
    real space projection operators read in
  non local Contribution for L=           0  read in
    real space projection operators read in
  non local Contribution for L=           1  read in
    real space projection operators read in
  non local Contribution for L=           1  read in
    real space projection operators read in
    PAW grid and wavefunctions read in
 
   number of l-projection  operators is LMAX  =           6
   number of lm-projection operators is LMMAX =          18
 
  PAW_PBE Fe 06Sep2000                  :
 energy of atom  1       EATOM= -594.3153
 kinetic energy error for atom=    0.0205 (will be added to EATOM!!)
 
 
 POSCAR: Fe2
  positions in direct lattice
  No initial velocities read in
 exchange correlation table for  LEXCH =        8
   RHO(1)=    0.500       N(1)  =     2000
   RHO(2)=  100.500       N(2)  =     4000
 


--------------------------------------------------------------------------------------------------------


 ion  position               nearest neighbor table
   1  0.000  0.000  0.000-   2 2.48   2 2.48   2 2.48   2 2.48   2 2.48   2 2.48   2 2.48   2 2.48

   2  0.500  0.500  0.500-   1 2.48   1 2.48   1 2.48   1 2.48   1 2.48   1 2.48   1 2.48   1 2.48

 
  LATTYP: Found a simple cubic cell.
 ALAT       =     2.8630354989
  
  Lattice vectors:
  
 A1 = (   2.8630354989,   0.0000000000,   0.0000000000)
 A2 = (   0.0000000000,   2.8630354989,   0.0000000000)
 A3 = (   0.0000000000,   0.0000000000,   2.8630354989)


Analysis of symmetry for initial positions (statically):
=====================================================================
 Subroutine PRICEL returns following result:
 
  LATTYP: Found a body centered cubic cell.
 ALAT       =     2.8630354989
  
  Lattice vectors:
  
 A1 = (   1.4315177495,   1.4315177495,  -1.4315177495)
 A2 = (  -1.4315177495,   1.4315177495,   1.4315177495)
 A3 = (   1.4315177495,  -1.4315177495,   1.4315177495)
 
   2 primitive cells build up your supercell.
 

 Routine SETGRP: Setting up the symmetry group for a 
 simple cubic supercell.


 Subroutine GETGRP returns: Found 48 space group operations
 (whereof 48 operations were pure point group operations)
 out of a pool of 48 trial point group operations.


The static configuration has the point symmetry O_h .


Analysis of symmetry for dynamics (positions and initial velocities):
=====================================================================
 Subroutine PRICEL returns following result:
 
  LATTYP: Found a body centered cubic cell.
 ALAT       =     2.8630354989
  
  Lattice vectors:
  
 A1 = (   1.4315177495,   1.4315177495,  -1.4315177495)
 A2 = (  -1.4315177495,   1.4315177495,   1.4315177495)
 A3 = (   1.4315177495,  -1.4315177495,   1.4315177495)
 
   2 primitive cells build up your supercell.
 

 Routine SETGRP: Setting up the symmetry group for a 
 simple cubic supercell.


 Subroutine GETGRP returns: Found 48 space group operations
 (whereof 48 operations were pure point group operations)
 out of a pool of 48 trial point group operations.


The dynamic configuration has the point symmetry O_h .


Analysis of structural, dynamic, and magnetic symmetry:
=====================================================================
 Subroutine PRICEL returns following result:
 
  LATTYP: Found a body centered cubic cell.
 ALAT       =     2.8630354989
  
  Lattice vectors:
  
 A1 = (   1.4315177495,   1.4315177495,  -1.4315177495)
 A2 = (  -1.4315177495,   1.4315177495,   1.4315177495)
 A3 = (   1.4315177495,  -1.4315177495,   1.4315177495)
 
   2 primitive cells build up your supercell.
 

 Routine SETGRP: Setting up the symmetry group for a 
 simple cubic supercell.


 Subroutine GETGRP returns: Found 48 space group operations
 (whereof 48 operations were pure point group operations)
 out of a pool of 48 trial point group operations.


The overall configuration has the point symmetry O_h .


 Subroutine INISYM returns: Found 48 space group operations
 (whereof 48 operations are pure point group operations),
 and found     2 'primitive' translations


----------------------------------------------------------------------------------------

                                     Primitive cell                                     

  volume of cell :      11.7341

  direct lattice vectors                    reciprocal lattice vectors
     1.431517749  1.431517749 -1.431517749     0.349279637  0.349279637  0.000000000
    -1.431517749  1.431517749  1.431517749     0.000000000  0.349279637  0.349279637
     1.431517749 -1.431517749  1.431517749     0.349279637 -0.000000000  0.349279637

  length of vectors
     2.479461474  2.479461474  2.479461474     0.493956000  0.493956000  0.493956000

  position of ions in fractional coordinates (direct lattice)
     0.000000000  0.000000000  0.000000000

  ion indices of the primitive-cell ions
   primitive index   ion index
                 1           1

----------------------------------------------------------------------------------------

 
 -----------------------------------------------------------------------------
|                                                                             |
|           W    W    AA    RRRRR   N    N  II  N    N   GGGG   !!!           |
|           W    W   A  A   R    R  NN   N  II  NN   N  G    G  !!!           |
|           W    W  A    A  R    R  N N  N  II  N N  N  G       !!!           |
|           W WW W  AAAAAA  RRRRR   N  N N  II  N  N N  G  GGG   !            |
|           WW  WW  A    A  R   R   N   NN  II  N   NN  G    G                |
|           W    W  A    A  R    R  N    N  II  N    N   GGGG   !!!           |
|                                                                             |
|     The requested file  could not be found or opened for reading            |
|     k-point information. Automatic k-point generation is used as a          |
|     fallback, which may lead to unwanted results.                           |
|                                                                             |
 -----------------------------------------------------------------------------

 

Automatic generation of k-mesh.
 Grid dimensions derived from KSPACING:
 generate k-points for:   19   19   19

 Generating k-lattice:

  Cartesian coordinates                     Fractional coordinates (reciprocal lattice)
     0.018383139 -0.000000000  0.000000000     0.052631579  0.000000000  0.000000000
     0.000000000  0.018383139  0.000000000     0.000000000  0.052631579  0.000000000
    -0.000000000 -0.000000000  0.018383139    -0.000000000  0.000000000  0.052631579

  Length of vectors
     0.018383139  0.018383139  0.018383139

  Shift w.r.t. Gamma in fractional coordinates (k-lattice)
     0.000000000  0.000000000  0.000000000

 
 Subroutine IBZKPT returns following result:
 ===========================================
 
 Found    220 irreducible k-points:
 
 Following reciprocal coordinates:
            Coordinates               Weight
  0.000000  0.000000  0.000000      1.000000
  0.052632  0.000000  0.000000      6.000000
  0.105263  0.000000  0.000000      6.000000
  0.157895  0.000000  0.000000      6.000000
  0.210526 -0.000000  0.000000      6.000000
  0.263158  0.000000  0.000000      6.000000
  0.315789  0.000000  0.000000      6.000000
  0.368421  0.000000  0.000000      6.000000
  0.421053 -0.000000  0.000000      6.000000
  0.473684  0.000000  0.000000      6.000000
  0.052632  0.052632  0.000000     12.000000
  0.105263  0.052632  0.000000     24.000000
  0.157895  0.052632  0.000000     24.000000
  0.210526  0.052632  0.000000     24.000000
  0.263158  0.052632  0.000000     24.000000
  0.315789  0.052632  0.000000     24.000000
  0.368421  0.052632  0.000000     24.000000
  0.421053  0.052632  0.000000     24.000000
  0.473684  0.052632  0.000000     24.000000
  0.105263  0.105263  0.000000     12.000000
  0.157895  0.105263  0.000000     24.000000
  0.210526  0.105263  0.000000     24.000000
  0.263158  0.105263  0.000000     24.000000
  0.315789  0.105263  0.000000     24.000000
  0.368421  0.105263  0.000000     24.000000
  0.421053  0.105263  0.000000     24.000000
  0.473684  0.105263  0.000000     24.000000
  0.157895  0.157895  0.000000     12.000000
  0.210526  0.157895  0.000000     24.000000
  0.263158  0.157895  0.000000     24.000000
  0.315789  0.157895  0.000000     24.000000
  0.368421  0.157895  0.000000     24.000000
  0.421053  0.157895  0.000000     24.000000
  0.473684  0.157895  0.000000     24.000000
  0.210526  0.210526  0.000000     12.000000
  0.263158  0.210526  0.000000     24.000000
  0.315789  0.210526  0.000000     24.000000
  0.368421  0.210526  0.000000     24.000000
  0.421053  0.210526  0.000000     24.000000
  0.473684  0.210526  0.000000     24.000000
  0.263158  0.263158  0.000000     12.000000
  0.315789  0.263158  0.000000     24.000000
  0.368421  0.263158  0.000000     24.000000
  0.421053  0.263158  0.000000     24.000000
  0.473684  0.263158  0.000000     24.000000
  0.315789  0.315789  0.000000     12.000000
  0.368421  0.315789  0.000000     24.000000
  0.421053  0.315789  0.000000     24.000000
  0.473684  0.315789  0.000000     24.000000
  0.368421  0.368421  0.000000     12.000000
  0.421053  0.368421  0.000000     24.000000
  0.473684  0.368421  0.000000     24.000000
  0.421053  0.421053  0.000000     12.000000
  0.473684  0.421053  0.000000     24.000000
  0.473684  0.473684  0.000000     12.000000
  0.052632  0.052632  0.052632      8.000000
  0.105263  0.052632  0.052632     24.000000
  0.157895  0.052632  0.052632     24.000000
  0.210526  0.052632  0.052632     24.000000
  0.263158  0.052632  0.052632     24.000000
  0.315789  0.052632  0.052632     24.000000
  0.368421  0.052632  0.052632     24.000000
  0.421053  0.052632  0.052632     24.000000
  0.473684  0.052632  0.052632     24.000000
  0.105263  0.105263  0.052632     24.000000
  0.157895  0.105263  0.052632     48.000000
  0.210526  0.105263  0.052632     48.000000
  0.263158  0.105263  0.052632     48.000000
  0.315789  0.105263  0.052632     48.000000
  0.368421  0.105263  0.052632     48.000000
  0.421053  0.105263  0.052632     48.000000
  0.473684  0.105263  0.052632     48.000000
  0.157895  0.157895  0.052632     24.000000
  0.210526  0.157895  0.052632     48.000000
  0.263158  0.157895  0.052632     48.000000
  0.315789  0.157895  0.052632     48.000000
  0.368421  0.157895  0.052632     48.000000
  0.421053  0.157895  0.052632     48.000000
  0.473684  0.157895  0.052632     48.000000
  0.210526  0.210526  0.052632     24.000000
  0.263158  0.210526  0.052632     48.000000
  0.315789  0.210526  0.052632     48.000000
  0.368421  0.210526  0.052632     48.000000
  0.421053  0.210526  0.052632     48.000000
  0.473684  0.210526  0.052632     48.000000
  0.263158  0.263158  0.052632     24.000000
  0.315789  0.263158  0.052632     48.000000
  0.368421  0.263158  0.052632     48.000000
  0.421053  0.263158  0.052632     48.000000
  0.473684  0.263158  0.052632     48.000000
  0.315789  0.315789  0.052632     24.000000
  0.368421  0.315789  0.052632     48.000000
  0.421053  0.315789  0.052632     48.000000
  0.473684  0.315789  0.052632     48.000000
  0.368421  0.368421  0.052632     24.000000
  0.421053  0.368421  0.052632     48.000000
  0.473684  0.368421  0.052632     48.000000
  0.421053  0.421053  0.052632     24.000000
  0.473684  0.421053  0.052632     48.000000
  0.473684  0.473684  0.052632     24.000000
  0.105263  0.105263  0.105263      8.000000
  0.157895  0.105263  0.105263     24.000000
  0.210526  0.105263  0.105263     24.000000
  0.263158  0.105263  0.105263     24.000000
  0.315789  0.105263  0.105263     24.000000
  0.368421  0.105263  0.105263     24.000000
  0.421053  0.105263  0.105263     24.000000
  0.473684  0.105263  0.105263     24.000000
  0.157895  0.157895  0.105263     24.000000
  0.210526  0.157895  0.105263     48.000000
  0.263158  0.157895  0.105263     48.000000
  0.315789  0.157895  0.105263     48.000000
  0.368421  0.157895  0.105263     48.000000
  0.421053  0.157895  0.105263     48.000000
  0.473684  0.157895  0.105263     48.000000
  0.210526  0.210526  0.105263     24.000000
  0.263158  0.210526  0.105263     48.000000
  0.315789  0.210526  0.105263     48.000000
  0.368421  0.210526  0.105263     48.000000
  0.421053  0.210526  0.105263     48.000000
  0.473684  0.210526  0.105263     48.000000
  0.263158  0.263158  0.105263     24.000000
  0.315789  0.263158  0.105263     48.000000
  0.368421  0.263158  0.105263     48.000000
  0.421053  0.263158  0.105263     48.000000
  0.473684  0.263158  0.105263     48.000000
  0.315789  0.315789  0.105263     24.000000
  0.368421  0.315789  0.105263     48.000000
  0.421053  0.315789  0.105263     48.000000
  0.473684  0.315789  0.105263     48.000000
  0.368421  0.368421  0.105263     24.000000
  0.421053  0.368421  0.105263     48.000000
  0.473684  0.368421  0.105263     48.000000
  0.421053  0.421053  0.105263     24.000000
  0.473684  0.421053  0.105263     48.000000
  0.473684  0.473684  0.105263     24.000000
  0.157895  0.157895  0.157895      8.000000
  0.210526  0.157895  0.157895     24.000000
  0.263158  0.157895  0.157895     24.000000
  0.315789  0.157895  0.157895     24.000000
  0.368421  0.157895  0.157895     24.000000
  0.421053  0.157895  0.157895     24.000000
  0.473684  0.157895  0.157895     24.000000
  0.210526  0.210526  0.157895     24.000000
  0.263158  0.210526  0.157895     48.000000
  0.315789  0.210526  0.157895     48.000000
  0.368421  0.210526  0.157895     48.000000
  0.421053  0.210526  0.157895     48.000000
  0.473684  0.210526  0.157895     48.000000
  0.263158  0.263158  0.157895     24.000000
  0.315789  0.263158  0.157895     48.000000
  0.368421  0.263158  0.157895     48.000000
  0.421053  0.263158  0.157895     48.000000
  0.473684  0.263158  0.157895     48.000000
  0.315789  0.315789  0.157895     24.000000
  0.368421  0.315789  0.157895     48.000000
  0.421053  0.315789  0.157895     48.000000
  0.473684  0.315789  0.157895     48.000000
  0.368421  0.368421  0.157895     24.000000
  0.421053  0.368421  0.157895     48.000000
  0.473684  0.368421  0.157895     48.000000
  0.421053  0.421053  0.157895     24.000000
  0.473684  0.421053  0.157895     48.000000
  0.473684  0.473684  0.157895     24.000000
  0.210526  0.210526  0.210526      8.000000
  0.263158  0.210526  0.210526     24.000000
  0.315789  0.210526  0.210526     24.000000
  0.368421  0.210526  0.210526     24.000000
  0.421053  0.210526  0.210526     24.000000
  0.473684  0.210526  0.210526     24.000000
  0.263158  0.263158  0.210526     24.000000
  0.315789  0.263158  0.210526     48.000000
  0.368421  0.263158  0.210526     48.000000
  0.421053  0.263158  0.210526     48.000000
  0.473684  0.263158  0.210526     48.000000
  0.315789  0.315789  0.210526     24.000000
  0.368421  0.315789  0.210526     48.000000
  0.421053  0.315789  0.210526     48.000000
  0.473684  0.315789  0.210526     48.000000
  0.368421  0.368421  0.210526     24.000000
  0.421053  0.368421  0.210526     48.000000
  0.473684  0.368421  0.210526     48.000000
  0.421053  0.421053  0.210526     24.000000
  0.473684  0.421053  0.210526     48.000000
  0.473684  0.473684  0.210526     24.000000
  0.263158  0.263158  0.263158      8.000000
  0.315789  0.263158  0.263158     24.000000
  0.368421  0.263158  0.263158     24.000000
  0.421053  0.263158  0.263158     24.000000
  0.473684  0.263158  0.263158     24.000000
  0.315789  0.315789  0.263158     24.000000
  0.368421  0.315789  0.263158     48.000000
  0.421053  0.315789  0.263158     48.000000
  0.473684  0.315789  0.263158     48.000000
  0.368421  0.368421  0.263158     24.000000
  0.421053  0.368421  0.263158     48.000000
  0.473684  0.368421  0.263158     48.000000
  0.421053  0.421053  0.263158     24.000000
  0.473684  0.421053  0.263158     48.000000
  0.473684  0.473684  0.263158     24.000000
  0.315789  0.315789  0.315789      8.000000
  0.368421  0.315789  0.315789     24.000000
  0.421053  0.315789  0.315789     24.000000
  0.473684  0.315789  0.315789     24.000000
  0.368421  0.368421  0.315789     24.000000
  0.421053  0.368421  0.315789     48.000000
  0.473684  0.368421  0.315789     48.000000
  0.421053  0.421053  0.315789     24.000000
  0.473684  0.421053  0.315789     48.000000
  0.473684  0.473684  0.315789     24.000000
  0.368421  0.368421  0.368421      8.000000
  0.421053  0.368421  0.368421     24.000000
  0.473684  0.368421  0.368421     24.000000
  0.421053  0.421053  0.368421     24.000000
  0.473684  0.421053  0.368421     48.000000
  0.473684  0.473684  0.368421     24.000000
  0.421053  0.421053  0.421053      8.000000
  0.473684  0.421053  0.421053     24.000000
  0.473684  0.473684  0.421053     24.000000
  0.473684  0.473684  0.473684      8.000000
 
 Following cartesian coordinates:
            Coordinates               Weight
  0.000000  0.000000  0.000000      1.000000
  0.018383 -0.000000  0.000000      6.000000
  0.036766 -0.000000  0.000000      6.000000
  0.055149 -0.000000  0.000000      6.000000
  0.073533 -0.000000  0.000000      6.000000
  0.091916 -0.000000  0.000000      6.000000
  0.110299 -0.000000  0.000000      6.000000
  0.128682 -0.000000  0.000000      6.000000
  0.147065 -0.000000  0.000000      6.000000
  0.165448 -0.000000  0.000000      6.000000
  0.018383  0.018383  0.000000     12.000000
  0.036766  0.018383  0.000000     24.000000
  0.055149  0.018383  0.000000     24.000000
  0.073533  0.018383  0.000000     24.000000
  0.091916  0.018383  0.000000     24.000000
  0.110299  0.018383  0.000000     24.000000
  0.128682  0.018383  0.000000     24.000000
  0.147065  0.018383  0.000000     24.000000
  0.165448  0.018383  0.000000     24.000000
  0.036766  0.036766  0.000000     12.000000
  0.055149  0.036766  0.000000     24.000000
  0.073533  0.036766  0.000000     24.000000
  0.091916  0.036766  0.000000     24.000000
  0.110299  0.036766  0.000000     24.000000
  0.128682  0.036766  0.000000     24.000000
  0.147065  0.036766  0.000000     24.000000
  0.165448  0.036766  0.000000     24.000000
  0.055149  0.055149  0.000000     12.000000
  0.073533  0.055149  0.000000     24.000000
  0.091916  0.055149  0.000000     24.000000
  0.110299  0.055149  0.000000     24.000000
  0.128682  0.055149  0.000000     24.000000
  0.147065  0.055149  0.000000     24.000000
  0.165448  0.055149  0.000000     24.000000
  0.073533  0.073533  0.000000     12.000000
  0.091916  0.073533  0.000000     24.000000
  0.110299  0.073533  0.000000     24.000000
  0.128682  0.073533  0.000000     24.000000
  0.147065  0.073533  0.000000     24.000000
  0.165448  0.073533  0.000000     24.000000
  0.091916  0.091916  0.000000     12.000000
  0.110299  0.091916  0.000000     24.000000
  0.128682  0.091916  0.000000     24.000000
  0.147065  0.091916  0.000000     24.000000
  0.165448  0.091916  0.000000     24.000000
  0.110299  0.110299  0.000000     12.000000
  0.128682  0.110299  0.000000     24.000000
  0.147065  0.110299  0.000000     24.000000
  0.165448  0.110299  0.000000     24.000000
  0.128682  0.128682  0.000000     12.000000
  0.147065  0.128682  0.000000     24.000000
  0.165448  0.128682  0.000000     24.000000
  0.147065  0.147065  0.000000     12.000000
  0.165448  0.147065  0.000000     24.000000
  0.165448  0.165448  0.000000     12.000000
  0.018383  0.018383  0.018383      8.000000
  0.036766  0.018383  0.018383     24.000000
  0.055149  0.018383  0.018383     24.000000
  0.073533  0.018383  0.018383     24.000000
  0.091916  0.018383  0.018383     24.000000
  0.110299  0.018383  0.018383     24.000000
  0.128682  0.018383  0.018383     24.000000
  0.147065  0.018383  0.018383     24.000000
  0.165448  0.018383  0.018383     24.000000
  0.036766  0.036766  0.018383     24.000000
  0.055149  0.036766  0.018383     48.000000
  0.073533  0.036766  0.018383     48.000000
  0.091916  0.036766  0.018383     48.000000
  0.110299  0.036766  0.018383     48.000000
  0.128682  0.036766  0.018383     48.000000
  0.147065  0.036766  0.018383     48.000000
  0.165448  0.036766  0.018383     48.000000
  0.055149  0.055149  0.018383     24.000000
  0.073533  0.055149  0.018383     48.000000
  0.091916  0.055149  0.018383     48.000000
  0.110299  0.055149  0.018383     48.000000
  0.128682  0.055149  0.018383     48.000000
  0.147065  0.055149  0.018383     48.000000
  0.165448  0.055149  0.018383     48.000000
  0.073533  0.073533  0.018383     24.000000
  0.091916  0.073533  0.018383     48.000000
  0.110299  0.073533  0.018383     48.000000
  0.128682  0.073533  0.018383     48.000000
  0.147065  0.073533  0.018383     48.000000
  0.165448  0.073533  0.018383     48.000000
  0.091916  0.091916  0.018383     24.000000
  0.110299  0.091916  0.018383     48.000000
  0.128682  0.091916  0.018383     48.000000
  0.147065  0.091916  0.018383     48.000000
  0.165448  0.091916  0.018383     48.000000
  0.110299  0.110299  0.018383     24.000000
  0.128682  0.110299  0.018383     48.000000
  0.147065  0.110299  0.018383     48.000000
  0.165448  0.110299  0.018383     48.000000
  0.128682  0.128682  0.018383     24.000000
  0.147065  0.128682  0.018383     48.000000
  0.165448  0.128682  0.018383     48.000000
  0.147065  0.147065  0.018383     24.000000
  0.165448  0.147065  0.018383     48.000000
  0.165448  0.165448  0.018383     24.000000
  0.036766  0.036766  0.036766      8.000000
  0.055149  0.036766  0.036766     24.000000
  0.073533  0.036766  0.036766     24.000000
  0.091916  0.036766  0.036766     24.000000
  0.110299  0.036766  0.036766     24.000000
  0.128682  0.036766  0.036766     24.000000
  0.147065  0.036766  0.036766     24.000000
  0.165448  0.036766  0.036766     24.000000
  0.055149  0.055149  0.036766     24.000000
  0.073533  0.055149  0.036766     48.000000
  0.091916  0.055149  0.036766     48.000000
  0.110299  0.055149  0.036766     48.000000
  0.128682  0.055149  0.036766     48.000000
  0.147065  0.055149  0.036766     48.000000
  0.165448  0.055149  0.036766     48.000000
  0.073533  0.073533  0.036766     24.000000
  0.091916  0.073533  0.036766     48.000000
  0.110299  0.073533  0.036766     48.000000
  0.128682  0.073533  0.036766     48.000000
  0.147065  0.073533  0.036766     48.000000
  0.165448  0.073533  0.036766     48.000000
  0.091916  0.091916  0.036766     24.000000
  0.110299  0.091916  0.036766     48.000000
  0.128682  0.091916  0.036766     48.000000
  0.147065  0.091916  0.036766     48.000000
  0.165448  0.091916  0.036766     48.000000
  0.110299  0.110299  0.036766     24.000000
  0.128682  0.110299  0.036766     48.000000
  0.147065  0.110299  0.036766     48.000000
  0.165448  0.110299  0.036766     48.000000
  0.128682  0.128682  0.036766     24.000000
  0.147065  0.128682  0.036766     48.000000
  0.165448  0.128682  0.036766     48.000000
  0.147065  0.147065  0.036766     24.000000
  0.165448  0.147065  0.036766     48.000000
  0.165448  0.165448  0.036766     24.000000
  0.055149  0.055149  0.055149      8.000000
  0.073533  0.055149  0.055149     24.000000
  0.091916  0.055149  0.055149     24.000000
  0.110299  0.055149  0.055149     24.000000
  0.128682  0.055149  0.055149     24.000000
  0.147065  0.055149  0.055149     24.000000
  0.165448  0.055149  0.055149     24.000000
  0.073533  0.073533  0.055149     24.000000
  0.091916  0.073533  0.055149     48.000000
  0.110299  0.073533  0.055149     48.000000
  0.128682  0.073533  0.055149     48.000000
  0.147065  0.073533  0.055149     48.000000
  0.165448  0.073533  0.055149     48.000000
  0.091916  0.091916  0.055149     24.000000
  0.110299  0.091916  0.055149     48.000000
  0.128682  0.091916  0.055149     48.000000
  0.147065  0.091916  0.055149     48.000000
  0.165448  0.091916  0.055149     48.000000
  0.110299  0.110299  0.055149     24.000000
  0.128682  0.110299  0.055149     48.000000
  0.147065  0.110299  0.055149     48.000000
  0.165448  0.110299  0.055149     48.000000
  0.128682  0.128682  0.055149     24.000000
  0.147065  0.128682  0.055149     48.000000
  0.165448  0.128682  0.055149     48.000000
  0.147065  0.147065  0.055149     24.000000
  0.165448  0.147065  0.055149     48.000000
  0.165448  0.165448  0.055149     24.000000
  0.073533  0.073533  0.073533      8.000000
  0.091916  0.073533  0.073533     24.000000
  0.110299  0.073533  0.073533     24.000000
  0.128682  0.073533  0.073533     24.000000
  0.147065  0.073533  0.073533     24.000000
  0.165448  0.073533  0.073533     24.000000
  0.091916  0.091916  0.073533     24.000000
  0.110299  0.091916  0.073533     48.000000
  0.128682  0.091916  0.073533     48.000000
  0.147065  0.091916  0.073533     48.000000
  0.165448  0.091916  0.073533     48.000000
  0.110299  0.110299  0.073533     24.000000
  0.128682  0.110299  0.073533     48.000000
  0.147065  0.110299  0.073533     48.000000
  0.165448  0.110299  0.073533     48.000000
  0.128682  0.128682  0.073533     24.000000
  0.147065  0.128682  0.073533     48.000000
  0.165448  0.128682  0.073533     48.000000
  0.147065  0.147065  0.073533     24.000000
  0.165448  0.147065  0.073533     48.000000
  0.165448  0.165448  0.073533     24.000000
  0.091916  0.091916  0.091916      8.000000
  0.110299  0.091916  0.091916     24.000000
  0.128682  0.091916  0.091916     24.000000
  0.147065  0.091916  0.091916     24.000000
  0.165448  0.091916  0.091916     24.000000
  0.110299  0.110299  0.091916     24.000000
  0.128682  0.110299  0.091916     48.000000
  0.147065  0.110299  0.091916     48.000000
  0.165448  0.110299  0.091916     48.000000
  0.128682  0.128682  0.091916     24.000000
  0.147065  0.128682  0.091916     48.000000
  0.165448  0.128682  0.091916     48.000000
  0.147065  0.147065  0.091916     24.000000
  0.165448  0.147065  0.091916     48.000000
  0.165448  0.165448  0.091916     24.000000
  0.110299  0.110299  0.110299      8.000000
  0.128682  0.110299  0.110299     24.000000
  0.147065  0.110299  0.110299     24.000000
  0.165448  0.110299  0.110299     24.000000
  0.128682  0.128682  0.110299     24.000000
  0.147065  0.128682  0.110299     48.000000
  0.165448  0.128682  0.110299     48.000000
  0.147065  0.147065  0.110299     24.000000
  0.165448  0.147065  0.110299     48.000000
  0.165448  0.165448  0.110299     24.000000
  0.128682  0.128682  0.128682      8.000000
  0.147065  0.128682  0.128682     24.000000
  0.165448  0.128682  0.128682     24.000000
  0.147065  0.147065  0.128682     24.000000
  0.165448  0.147065  0.128682     48.000000
  0.165448  0.165448  0.128682     24.000000
  0.147065  0.147065  0.147065      8.000000
  0.165448  0.147065  0.147065     24.000000
  0.165448  0.165448  0.147065     24.000000
  0.165448  0.165448  0.165448      8.000000
 


--------------------------------------------------------------------------------------------------------




 Dimension of arrays:
   k-points           NKPTS =    220   k-points in BZ     NKDIM =    220   number of bands    NBANDS=     20
   number of dos      NEDOS =    301   number of ions     NIONS =      2
   non local maximal  LDIM  =      6   non local SUM 2l+1 LMDIM =     18
   total plane-waves  NPLWV =   5832
   max r-space proj   IRMAX =      1   max aug-charges    IRDMAX=  71010
   dimension x,y,z NGX =    18 NGY =   18 NGZ =   18
   dimension x,y,z NGXF=    36 NGYF=   36 NGZF=   36
   support grid    NGXF=    72 NGYF=   72 NGZF=   72
   ions per type =               2
   NGX,Y,Z   is equivalent  to a cutoff of  10.45, 10.45, 10.45 a.u.
   NGXF,Y,Z  is equivalent  to a cutoff of  20.90, 20.90, 20.90 a.u.

 SYSTEM =  unknown system                          
 POSCAR =  Fe2                                     

 Startparameter for this run:
   NWRITE =      2    write-flag & timer
   PREC   = accura    normal or accurate (medium, high low for compatibility)
   ISTART =      0    job   : 0-new  1-cont  2-samecut
   ICHARG =      2    charge: 1-file 2-atom 10-const
   ISPIN  =      2    spin polarized calculation?
   LNONCOLLINEAR =      F non collinear calculations
   LSORBIT =      F    spin-orbit coupling
   INIWAV =      1    electr: 0-lowe 1-rand  2-diag
   LASPH  =      T    aspherical Exc in radial PAW
   METAGGA=      F    non-selfconsistent MetaGGA calc.

 Electronic Relaxation 1
   ENCUT  =  350.0 eV  25.72 Ry    5.07 a.u.   4.37  4.37  4.37*2*pi/ulx,y,z
   ENINI  =  350.0     initial cutoff
   ENAUG  =  511.4 eV  augmentation charge cutoff
   NELM   =     90;   NELMIN=  6; NELMDL= -5     # of ELM steps 
   EDIFF  = 0.1E-05   stopping-criterion for ELM
   LREAL  =      F    real-space projection
   NLSPLINE    = F    spline interpolate recip. space projectors
   LCOMPAT=      F    compatible to vasp.4.4
   GGA_COMPAT  = F    GGA compatible to vasp.4.4-vasp.4.6
   LMAXPAW     = -100 max onsite density
   LMAXMIX     =    4 max onsite mixed and CHGCAR
   VOSKOWN=      1    Vosko Wilk Nusair interpolation
   ROPT   =    0.00000
 Ionic relaxation
   EDIFFG = -.2E-02   stopping-criterion for IOM
   NSW    =    100    number of steps for IOM
   NBLOCK =      1;   KBLOCK =    100    inner block; outer block 
   IBRION =      2    ionic relax: 0-MD 1-quasi-New 2-CG
   NFREE  =      1    steps in history (QN), initial steepest desc. (CG)
   ISIF   =      3    stress and relaxation
   IWAVPR =     11    prediction:  0-non 1-charg 2-wave 3-comb
   ISYM   =      2    0-nonsym 1-usesym 2-fastsym
   LCORR  =      T    Harris-Foulkes like correction to forces

   POTIM  = 0.5000    time-step for ionic-motion
   TEIN   =    0.0    initial temperature
   TEBEG  =    0.0;   TEEND  =   0.0 temperature during run
   SMASS  =  -3.00    Nose mass-parameter (am)
   estimated Nose-frequenzy (Omega)   =  0.10E-29 period in steps = 0.13E+47 mass=  -0.187E-27a.u.
   SCALEE = 1.0000    scale energy and forces
   NPACO  =    256;   APACO  = 16.0  distance and # of slots for P.C.
   PSTRESS=    0.0 pullay stress

  Mass of Ions in am
   POMASS =  55.85
  Ionic Valenz
   ZVAL   =   8.00
  Atomic Wigner-Seitz radii
   RWIGS  =  -1.00
  virtual crystal weights 
   VCA    =   1.00
   NELECT =      16.0000    total number of electrons
   NUPDOWN=      -1.0000    fix difference up-down

 DOS related values:
   EMIN   =  10.00;   EMAX   =-10.00  energy-range for DOS
   EFERMI =   0.00
   ISMEAR =     1;   SIGMA  =   0.20  broadening in eV -4-tet -1-fermi 0-gaus

 Electronic relaxation 2 (details)
   IALGO  =     38    algorithm
   LDIAG  =      T    sub-space diagonalisation (order eigenvalues)
   LSUBROT=      F    optimize rotation matrix (better conditioning)
   TURBO    =      0    0=normal 1=particle mesh
   IRESTART =      0    0=no restart 2=restart with 2 vectors
   NREBOOT  =      0    no. of reboots
   NMIN     =      0    reboot dimension
   EREF     =   0.00    reference energy to select bands
   IMIX   =      4    mixing-type and parameters
     AMIX     =   0.40;   BMIX     =  1.00
     AMIX_MAG =   1.60;   BMIX_MAG =  1.00
     AMIN     =   0.10
     WC   =   100.;   INIMIX=   1;  MIXPRE=   1;  MAXMIX= -45

 Intra band minimization:
   WEIMIN = 0.0010     energy-eigenvalue tresh-hold
   EBREAK =  0.12E-07  absolut break condition
   DEPER  =   0.30     relativ break condition  

   TIME   =   0.40     timestep for ELM

  volume/ion in A,a.u.               =      11.73        79.19
  Fermi-wavevector in a.u.,A,eV,Ry     =   1.440859  2.722828 28.246703  2.076074
  Thomas-Fermi vector in A             =   2.559556
 
 Write flags
   LWAVE        =      T    write WAVECAR
   LDOWNSAMPLE  =      F    k-point downsampling of WAVECAR
   LCHARG       =      T    write CHGCAR
   LVTOT        =      F    write LOCPOT, total local potential
   LVHAR        =      F    write LOCPOT, Hartree potential only
   LELF         =      F    write electronic localiz. function (ELF)
   LORBIT       =     11    0 simple, 1 ext, 2 COOP (PROOUT), +10 PAW based schemes


 Dipole corrections
   LMONO  =      F    monopole corrections only (constant potential shift)
   LDIPOL =      F    correct potential (dipole corrections)
   IDIPOL =      0    1-x, 2-y, 3-z, 4-all directions 
   EPSILON=  1.0000000 bulk dielectric constant

 Exchange correlation treatment:
   GGA     =    --    GGA type
   LEXCH   =     8    internal setting for exchange type
   VOSKOWN=      1    Vosko Wilk Nusair interpolation
   LHFCALC =     F    Hartree Fock is set to
   LHFONE  =     F    Hartree Fock one center treatment
   AEXX    =    0.0000 exact exchange contribution

 Linear response parameters
   LEPSILON=     F    determine dielectric tensor
   LRPA    =     F    only Hartree local field effects (RPA)
   LNABLA  =     F    use nabla operator in PAW spheres
   LVEL    =     F    velocity operator in full k-point grid
   LINTERFAST=   F  fast interpolation
   KINTER  =     0    interpolate to denser k-point grid
   CSHIFT  =0.1000    complex shift for real part using Kramers Kronig
   OMEGAMAX=  -1.0    maximum frequency
   DEG_THRESHOLD= 0.2000000E-02 threshold for treating states as degnerate
   RTIME   =   -0.100 relaxation time in fs
  (WPLASMAI=    0.000 imaginary part of plasma frequency in eV, 0.658/RTIME)
   DFIELD  = 0.0000000 0.0000000 0.0000000 field for delta impulse in time
 
 Orbital magnetization related:
   ORBITALMAG=     F  switch on orbital magnetization
   LCHIMAG   =     F  perturbation theory with respect to B field
   DQ        =  0.001000  dq finite difference perturbation B field
   LLRAUG    =     F  two centre corrections for induced B field



--------------------------------------------------------------------------------------------------------


 conjugate gradient relaxation of ions
 charge density and potential will be updated during run
 spin polarized calculation
 Variant of blocked Davidson
 Davidson routine will perform the subspace rotation
 perform sub-space diagonalisation
    after iterative eigenvector-optimisation
 modified Broyden-mixing scheme, WC =      100.0
 initial mixing is a Kerker type mixing with AMIX =  0.4000 and BMIX =      1.0000
 Hartree-type preconditioning will be used
 using additional bands           12
 reciprocal scheme for non local part
 use partial core corrections
 calculate Harris-corrections to forces 
   (improved forces if not selfconsistent)
 use gradient corrections 
 use of overlap-Matrix (Vanderbilt PP)
 Methfessel and Paxton  Order N= 1 SIGMA  =   0.20


--------------------------------------------------------------------------------------------------------


  energy-cutoff  :      350.00
  volume of cell :       23.47
      direct lattice vectors                 reciprocal lattice vectors
     2.863035499  0.000000000  0.000000000     0.349279637 -0.000000000  0.000000000
     0.000000000  2.863035499  0.000000000     0.000000000  0.349279637  0.000000000
     0.000000000  0.000000000  2.863035499    -0.000000000 -0.000000000  0.349279637

  length of vectors
     2.863035499  2.863035499  2.863035499     0.349279637  0.349279637  0.349279637


 
 k-points in units of 2pi/SCALE and weight: read from INCAR                         
   0.00000000  0.00000000  0.00000000       0.000
   0.01838314 -0.00000000  0.00000000       0.001
   0.03676628 -0.00000000  0.00000000       0.001
   0.05514942 -0.00000000  0.00000000       0.001
   0.07353256 -0.00000000  0.00000000       0.001
   0.09191569 -0.00000000  0.00000000       0.001
   0.11029883 -0.00000000  0.00000000       0.001
   0.12868197 -0.00000000  0.00000000       0.001
   0.14706511 -0.00000000  0.00000000       0.001
   0.16544825 -0.00000000  0.00000000       0.001
   0.01838314  0.01838314  0.00000000       0.002
   0.03676628  0.01838314  0.00000000       0.003
   0.05514942  0.01838314  0.00000000       0.003
   0.07353256  0.01838314  0.00000000       0.003
   0.09191569  0.01838314  0.00000000       0.003
   0.11029883  0.01838314  0.00000000       0.003
   0.12868197  0.01838314  0.00000000       0.003
   0.14706511  0.01838314  0.00000000       0.003
   0.16544825  0.01838314  0.00000000       0.003
   0.03676628  0.03676628  0.00000000       0.002
   0.05514942  0.03676628  0.00000000       0.003
   0.07353256  0.03676628  0.00000000       0.003
   0.09191569  0.03676628  0.00000000       0.003
   0.11029883  0.03676628  0.00000000       0.003
   0.12868197  0.03676628  0.00000000       0.003
   0.14706511  0.03676628  0.00000000       0.003
   0.16544825  0.03676628  0.00000000       0.003
   0.05514942  0.05514942  0.00000000       0.002
   0.07353256  0.05514942  0.00000000       0.003
   0.09191569  0.05514942  0.00000000       0.003
   0.11029883  0.05514942  0.00000000       0.003
   0.12868197  0.05514942  0.00000000       0.003
   0.14706511  0.05514942  0.00000000       0.003
   0.16544825  0.05514942  0.00000000       0.003
   0.07353256  0.07353256  0.00000000       0.002
   0.09191569  0.07353256  0.00000000       0.003
   0.11029883  0.07353256  0.00000000       0.003
   0.12868197  0.07353256  0.00000000       0.003
   0.14706511  0.07353256  0.00000000       0.003
   0.16544825  0.07353256  0.00000000       0.003
   0.09191569  0.09191569  0.00000000       0.002
   0.11029883  0.09191569  0.00000000       0.003
   0.12868197  0.09191569  0.00000000       0.003
   0.14706511  0.09191569  0.00000000       0.003
   0.16544825  0.09191569  0.00000000       0.003
   0.11029883  0.11029883  0.00000000       0.002
   0.12868197  0.11029883  0.00000000       0.003
   0.14706511  0.11029883  0.00000000       0.003
   0.16544825  0.11029883  0.00000000       0.003
   0.12868197  0.12868197  0.00000000       0.002
   0.14706511  0.12868197  0.00000000       0.003
   0.16544825  0.12868197  0.00000000       0.003
   0.14706511  0.14706511  0.00000000       0.002
   0.16544825  0.14706511  0.00000000       0.003
   0.16544825  0.16544825  0.00000000       0.002
   0.01838314  0.01838314  0.01838314       0.001
   0.03676628  0.01838314  0.01838314       0.003
   0.05514942  0.01838314  0.01838314       0.003
   0.07353256  0.01838314  0.01838314       0.003
   0.09191569  0.01838314  0.01838314       0.003
   0.11029883  0.01838314  0.01838314       0.003
   0.12868197  0.01838314  0.01838314       0.003
   0.14706511  0.01838314  0.01838314       0.003
   0.16544825  0.01838314  0.01838314       0.003
   0.03676628  0.03676628  0.01838314       0.003
   0.05514942  0.03676628  0.01838314       0.007
   0.07353256  0.03676628  0.01838314       0.007
   0.09191569  0.03676628  0.01838314       0.007
   0.11029883  0.03676628  0.01838314       0.007
   0.12868197  0.03676628  0.01838314       0.007
   0.14706511  0.03676628  0.01838314       0.007
   0.16544825  0.03676628  0.01838314       0.007
   0.05514942  0.05514942  0.01838314       0.003
   0.07353256  0.05514942  0.01838314       0.007
   0.09191569  0.05514942  0.01838314       0.007
   0.11029883  0.05514942  0.01838314       0.007
   0.12868197  0.05514942  0.01838314       0.007
   0.14706511  0.05514942  0.01838314       0.007
   0.16544825  0.05514942  0.01838314       0.007
   0.07353256  0.07353256  0.01838314       0.003
   0.09191569  0.07353256  0.01838314       0.007
   0.11029883  0.07353256  0.01838314       0.007
   0.12868197  0.07353256  0.01838314       0.007
   0.14706511  0.07353256  0.01838314       0.007
   0.16544825  0.07353256  0.01838314       0.007
   0.09191569  0.09191569  0.01838314       0.003
   0.11029883  0.09191569  0.01838314       0.007
   0.12868197  0.09191569  0.01838314       0.007
   0.14706511  0.09191569  0.01838314       0.007
   0.16544825  0.09191569  0.01838314       0.007
   0.11029883  0.11029883  0.01838314       0.003
   0.12868197  0.11029883  0.01838314       0.007
   0.14706511  0.11029883  0.01838314       0.007
   0.16544825  0.11029883  0.01838314       0.007
   0.12868197  0.12868197  0.01838314       0.003
   0.14706511  0.12868197  0.01838314       0.007
   0.16544825  0.12868197  0.01838314       0.007
   0.14706511  0.14706511  0.01838314       0.003
   0.16544825  0.14706511  0.01838314       0.007
   0.16544825  0.16544825  0.01838314       0.003
   0.03676628  0.03676628  0.03676628       0.001
   0.05514942  0.03676628  0.03676628       0.003
   0.07353256  0.03676628  0.03676628       0.003
   0.09191569  0.03676628  0.03676628       0.003
   0.11029883  0.03676628  0.03676628       0.003
   0.12868197  0.03676628  0.03676628       0.003
   0.14706511  0.03676628  0.03676628       0.003
   0.16544825  0.03676628  0.03676628       0.003
   0.05514942  0.05514942  0.03676628       0.003
   0.07353256  0.05514942  0.03676628       0.007
   0.09191569  0.05514942  0.03676628       0.007
   0.11029883  0.05514942  0.03676628       0.007
   0.12868197  0.05514942  0.03676628       0.007
   0.14706511  0.05514942  0.03676628       0.007
   0.16544825  0.05514942  0.03676628       0.007
   0.07353256  0.07353256  0.03676628       0.003
   0.09191569  0.07353256  0.03676628       0.007
   0.11029883  0.07353256  0.03676628       0.007
   0.12868197  0.07353256  0.03676628       0.007
   0.14706511  0.07353256  0.03676628       0.007
   0.16544825  0.07353256  0.03676628       0.007
   0.09191569  0.09191569  0.03676628       0.003
   0.11029883  0.09191569  0.03676628       0.007
   0.12868197  0.09191569  0.03676628       0.007
   0.14706511  0.09191569  0.03676628       0.007
   0.16544825  0.09191569  0.03676628       0.007
   0.11029883  0.11029883  0.03676628       0.003
   0.12868197  0.11029883  0.03676628       0.007
   0.14706511  0.11029883  0.03676628       0.007
   0.16544825  0.11029883  0.03676628       0.007
   0.12868197  0.12868197  0.03676628       0.003
   0.14706511  0.12868197  0.03676628       0.007
   0.16544825  0.12868197  0.03676628       0.007
   0.14706511  0.14706511  0.03676628       0.003
   0.16544825  0.14706511  0.03676628       0.007
   0.16544825  0.16544825  0.03676628       0.003
   0.05514942  0.05514942  0.05514942       0.001
   0.07353256  0.05514942  0.05514942       0.003
   0.09191569  0.05514942  0.05514942       0.003
   0.11029883  0.05514942  0.05514942       0.003
   0.12868197  0.05514942  0.05514942       0.003
   0.14706511  0.05514942  0.05514942       0.003
   0.16544825  0.05514942  0.05514942       0.003
   0.07353256  0.07353256  0.05514942       0.003
   0.09191569  0.07353256  0.05514942       0.007
   0.11029883  0.07353256  0.05514942       0.007
   0.12868197  0.07353256  0.05514942       0.007
   0.14706511  0.07353256  0.05514942       0.007
   0.16544825  0.07353256  0.05514942       0.007
   0.09191569  0.09191569  0.05514942       0.003
   0.11029883  0.09191569  0.05514942       0.007
   0.12868197  0.09191569  0.05514942       0.007
   0.14706511  0.09191569  0.05514942       0.007
   0.16544825  0.09191569  0.05514942       0.007
   0.11029883  0.11029883  0.05514942       0.003
   0.12868197  0.11029883  0.05514942       0.007
   0.14706511  0.11029883  0.05514942       0.007
   0.16544825  0.11029883  0.05514942       0.007
   0.12868197  0.12868197  0.05514942       0.003
   0.14706511  0.12868197  0.05514942       0.007
   0.16544825  0.12868197  0.05514942       0.007
   0.14706511  0.14706511  0.05514942       0.003
   0.16544825  0.14706511  0.05514942       0.007
   0.16544825  0.16544825  0.05514942       0.003
   0.07353256  0.07353256  0.07353256       0.001
   0.09191569  0.07353256  0.07353256       0.003
   0.11029883  0.07353256  0.07353256       0.003
   0.12868197  0.07353256  0.07353256       0.003
   0.14706511  0.07353256  0.07353256       0.003
   0.16544825  0.07353256  0.07353256       0.003
   0.09191569  0.09191569  0.07353256       0.003
   0.11029883  0.09191569  0.07353256       0.007
   0.12868197  0.09191569  0.07353256       0.007
   0.14706511  0.09191569  0.07353256       0.007
   0.16544825  0.09191569  0.07353256       0.007
   0.11029883  0.11029883  0.07353256       0.003
   0.12868197  0.11029883  0.07353256       0.007
   0.14706511  0.11029883  0.07353256       0.007
   0.16544825  0.11029883  0.07353256       0.007
   0.12868197  0.12868197  0.07353256       0.003
   0.14706511  0.12868197  0.07353256       0.007
   0.16544825  0.12868197  0.07353256       0.007
   0.14706511  0.14706511  0.07353256       0.003
   0.16544825  0.14706511  0.07353256       0.007
   0.16544825  0.16544825  0.07353256       0.003
   0.09191569  0.09191569  0.09191569       0.001
   0.11029883  0.09191569  0.09191569       0.003
   0.12868197  0.09191569  0.09191569       0.003
   0.14706511  0.09191569  0.09191569       0.003
   0.16544825  0.09191569  0.09191569       0.003
   0.11029883  0.11029883  0.09191569       0.003
   0.12868197  0.11029883  0.09191569       0.007
   0.14706511  0.11029883  0.09191569       0.007
   0.16544825  0.11029883  0.09191569       0.007
   0.12868197  0.12868197  0.09191569       0.003
   0.14706511  0.12868197  0.09191569       0.007
   0.16544825  0.12868197  0.09191569       0.007
   0.14706511  0.14706511  0.09191569       0.003
   0.16544825  0.14706511  0.09191569       0.007
   0.16544825  0.16544825  0.09191569       0.003
   0.11029883  0.11029883  0.11029883       0.001
   0.12868197  0.11029883  0.11029883       0.003
   0.14706511  0.11029883  0.11029883       0.003
   0.16544825  0.11029883  0.11029883       0.003
   0.12868197  0.12868197  0.11029883       0.003
   0.14706511  0.12868197  0.11029883       0.007
   0.16544825  0.12868197  0.11029883       0.007
   0.14706511  0.14706511  0.11029883       0.003
   0.16544825  0.14706511  0.11029883       0.007
   0.16544825  0.16544825  0.11029883       0.003
   0.12868197  0.12868197  0.12868197       0.001
   0.14706511  0.12868197  0.12868197       0.003
   0.16544825  0.12868197  0.12868197       0.003
   0.14706511  0.14706511  0.12868197       0.003
   0.16544825  0.14706511  0.12868197       0.007
   0.16544825  0.16544825  0.12868197       0.003
   0.14706511  0.14706511  0.14706511       0.001
   0.16544825  0.14706511  0.14706511       0.003
   0.16544825  0.16544825  0.14706511       0.003
   0.16544825  0.16544825  0.16544825       0.001
 
 k-points in reciprocal lattice and weights: read from INCAR                         
   0.00000000  0.00000000  0.00000000       0.000
   0.05263158  0.00000000  0.00000000       0.001
   0.10526316  0.00000000  0.00000000       0.001
   0.15789474  0.00000000  0.00000000       0.001
   0.21052632 -0.00000000  0.00000000       0.001
   0.26315789  0.00000000  0.00000000       0.001
   0.31578947  0.00000000  0.00000000       0.001
   0.36842105  0.00000000  0.00000000       0.001
   0.42105263 -0.00000000  0.00000000       0.001
   0.47368421  0.00000000  0.00000000       0.001
   0.05263158  0.05263158  0.00000000       0.002
   0.10526316  0.05263158  0.00000000       0.003
   0.15789474  0.05263158  0.00000000       0.003
   0.21052632  0.05263158  0.00000000       0.003
   0.26315789  0.05263158  0.00000000       0.003
   0.31578947  0.05263158  0.00000000       0.003
   0.36842105  0.05263158  0.00000000       0.003
   0.42105263  0.05263158  0.00000000       0.003
   0.47368421  0.05263158  0.00000000       0.003
   0.10526316  0.10526316  0.00000000       0.002
   0.15789474  0.10526316  0.00000000       0.003
   0.21052632  0.10526316  0.00000000       0.003
   0.26315789  0.10526316  0.00000000       0.003
   0.31578947  0.10526316  0.00000000       0.003
   0.36842105  0.10526316  0.00000000       0.003
   0.42105263  0.10526316  0.00000000       0.003
   0.47368421  0.10526316  0.00000000       0.003
   0.15789474  0.15789474  0.00000000       0.002
   0.21052632  0.15789474  0.00000000       0.003
   0.26315789  0.15789474  0.00000000       0.003
   0.31578947  0.15789474  0.00000000       0.003
   0.36842105  0.15789474  0.00000000       0.003
   0.42105263  0.15789474  0.00000000       0.003
   0.47368421  0.15789474  0.00000000       0.003
   0.21052632  0.21052632  0.00000000       0.002
   0.26315789  0.21052632  0.00000000       0.003
   0.31578947  0.21052632  0.00000000       0.003
   0.36842105  0.21052632  0.00000000       0.003
   0.42105263  0.21052632  0.00000000       0.003
   0.47368421  0.21052632  0.00000000       0.003
   0.26315789  0.26315789  0.00000000       0.002
   0.31578947  0.26315789  0.00000000       0.003
   0.36842105  0.26315789  0.00000000       0.003
   0.42105263  0.26315789  0.00000000       0.003
   0.47368421  0.26315789  0.00000000       0.003
   0.31578947  0.31578947  0.00000000       0.002
   0.36842105  0.31578947  0.00000000       0.003
   0.42105263  0.31578947  0.00000000       0.003
   0.47368421  0.31578947  0.00000000       0.003
   0.36842105  0.36842105  0.00000000       0.002
   0.42105263  0.36842105  0.00000000       0.003
   0.47368421  0.36842105  0.00000000       0.003
   0.42105263  0.42105263  0.00000000       0.002
   0.47368421  0.42105263  0.00000000       0.003
   0.47368421  0.47368421  0.00000000       0.002
   0.05263158  0.05263158  0.05263158       0.001
   0.10526316  0.05263158  0.05263158       0.003
   0.15789474  0.05263158  0.05263158       0.003
   0.21052632  0.05263158  0.05263158       0.003
   0.26315789  0.05263158  0.05263158       0.003
   0.31578947  0.05263158  0.05263158       0.003
   0.36842105  0.05263158  0.05263158       0.003
   0.42105263  0.05263158  0.05263158       0.003
   0.47368421  0.05263158  0.05263158       0.003
   0.10526316  0.10526316  0.05263158       0.003
   0.15789474  0.10526316  0.05263158       0.007
   0.21052632  0.10526316  0.05263158       0.007
   0.26315789  0.10526316  0.05263158       0.007
   0.31578947  0.10526316  0.05263158       0.007
   0.36842105  0.10526316  0.05263158       0.007
   0.42105263  0.10526316  0.05263158       0.007
   0.47368421  0.10526316  0.05263158       0.007
   0.15789474  0.15789474  0.05263158       0.003
   0.21052632  0.15789474  0.05263158       0.007
   0.26315789  0.15789474  0.05263158       0.007
   0.31578947  0.15789474  0.05263158       0.007
   0.36842105  0.15789474  0.05263158       0.007
   0.42105263  0.15789474  0.05263158       0.007
   0.47368421  0.15789474  0.05263158       0.007
   0.21052632  0.21052632  0.05263158       0.003
   0.26315789  0.21052632  0.05263158       0.007
   0.31578947  0.21052632  0.05263158       0.007
   0.36842105  0.21052632  0.05263158       0.007
   0.42105263  0.21052632  0.05263158       0.007
   0.47368421  0.21052632  0.05263158       0.007
   0.26315789  0.26315789  0.05263158       0.003
   0.31578947  0.26315789  0.05263158       0.007
   0.36842105  0.26315789  0.05263158       0.007
   0.42105263  0.26315789  0.05263158       0.007
   0.47368421  0.26315789  0.05263158       0.007
   0.31578947  0.31578947  0.05263158       0.003
   0.36842105  0.31578947  0.05263158       0.007
   0.42105263  0.31578947  0.05263158       0.007
   0.47368421  0.31578947  0.05263158       0.007
   0.36842105  0.36842105  0.05263158       0.003
   0.42105263  0.36842105  0.05263158       0.007
   0.47368421  0.36842105  0.05263158       0.007
   0.42105263  0.42105263  0.05263158       0.003
   0.47368421  0.42105263  0.05263158       0.007
   0.47368421  0.47368421  0.05263158       0.003
   0.10526316  0.10526316  0.10526316       0.001
   0.15789474  0.10526316  0.10526316       0.003
   0.21052632  0.10526316  0.10526316       0.003
   0.26315789  0.10526316  0.10526316       0.003
   0.31578947  0.10526316  0.10526316       0.003
   0.36842105  0.10526316  0.10526316       0.003
   0.42105263  0.10526316  0.10526316       0.003
   0.47368421  0.10526316  0.10526316       0.003
   0.15789474  0.15789474  0.10526316       0.003
   0.21052632  0.15789474  0.10526316       0.007
   0.26315789  0.15789474  0.10526316       0.007
   0.31578947  0.15789474  0.10526316       0.007
   0.36842105  0.15789474  0.10526316       0.007
   0.42105263  0.15789474  0.10526316       0.007
   0.47368421  0.15789474  0.10526316       0.007
   0.21052632  0.21052632  0.10526316       0.003
   0.26315789  0.21052632  0.10526316       0.007
   0.31578947  0.21052632  0.10526316       0.007
   0.36842105  0.21052632  0.10526316       0.007
   0.42105263  0.21052632  0.10526316       0.007
   0.47368421  0.21052632  0.10526316       0.007
   0.26315789  0.26315789  0.10526316       0.003
   0.31578947  0.26315789  0.10526316       0.007
   0.36842105  0.26315789  0.10526316       0.007
   0.42105263  0.26315789  0.10526316       0.007
   0.47368421  0.26315789  0.10526316       0.007
   0.31578947  0.31578947  0.10526316       0.003
   0.36842105  0.31578947  0.10526316       0.007
   0.42105263  0.31578947  0.10526316       0.007
   0.47368421  0.31578947  0.10526316       0.007
   0.36842105  0.36842105  0.10526316       0.003
   0.42105263  0.36842105  0.10526316       0.007
   0.47368421  0.36842105  0.10526316       0.007
   0.42105263  0.42105263  0.10526316       0.003
   0.47368421  0.42105263  0.10526316       0.007
   0.47368421  0.47368421  0.10526316       0.003
   0.15789474  0.15789474  0.15789474       0.001
   0.21052632  0.15789474  0.15789474       0.003
   0.26315789  0.15789474  0.15789474       0.003
   0.31578947  0.15789474  0.15789474       0.003
   0.36842105  0.15789474  0.15789474       0.003
   0.42105263  0.15789474  0.15789474       0.003
   0.47368421  0.15789474  0.15789474       0.003
   0.21052632  0.21052632  0.15789474       0.003
   0.26315789  0.21052632  0.15789474       0.007
   0.31578947  0.21052632  0.15789474       0.007
   0.36842105  0.21052632  0.15789474       0.007
   0.42105263  0.21052632  0.15789474       0.007
   0.47368421  0.21052632  0.15789474       0.007
   0.26315789  0.26315789  0.15789474       0.003
   0.31578947  0.26315789  0.15789474       0.007
   0.36842105  0.26315789  0.15789474       0.007
   0.42105263  0.26315789  0.15789474       0.007
   0.47368421  0.26315789  0.15789474       0.007
   0.31578947  0.31578947  0.15789474       0.003
   0.36842105  0.31578947  0.15789474       0.007
   0.42105263  0.31578947  0.15789474       0.007
   0.47368421  0.31578947  0.15789474       0.007
   0.36842105  0.36842105  0.15789474       0.003
   0.42105263  0.36842105  0.15789474       0.007
   0.47368421  0.36842105  0.15789474       0.007
   0.42105263  0.42105263  0.15789474       0.003
   0.47368421  0.42105263  0.15789474       0.007
   0.47368421  0.47368421  0.15789474       0.003
   0.21052632  0.21052632  0.21052632       0.001
   0.26315789  0.21052632  0.21052632       0.003
   0.31578947  0.21052632  0.21052632       0.003
   0.36842105  0.21052632  0.21052632       0.003
   0.42105263  0.21052632  0.21052632       0.003
   0.47368421  0.21052632  0.21052632       0.003
   0.26315789  0.26315789  0.21052632       0.003
   0.31578947  0.26315789  0.21052632       0.007
   0.36842105  0.26315789  0.21052632       0.007
   0.42105263  0.26315789  0.21052632       0.007
   0.47368421  0.26315789  0.21052632       0.007
   0.31578947  0.31578947  0.21052632       0.003
   0.36842105  0.31578947  0.21052632       0.007
   0.42105263  0.31578947  0.21052632       0.007
   0.47368421  0.31578947  0.21052632       0.007
   0.36842105  0.36842105  0.21052632       0.003
   0.42105263  0.36842105  0.21052632       0.007
   0.47368421  0.36842105  0.21052632       0.007
   0.42105263  0.42105263  0.21052632       0.003
   0.47368421  0.42105263  0.21052632       0.007
   0.47368421  0.47368421  0.21052632       0.003
   0.26315789  0.26315789  0.26315789       0.001
   0.31578947  0.26315789  0.26315789       0.003
   0.36842105  0.26315789  0.26315789       0.003
   0.42105263  0.26315789  0.26315789       0.003
   0.47368421  0.26315789  0.26315789       0.003
   0.31578947  0.31578947  0.26315789       0.003
   0.36842105  0.31578947  0.26315789       0.007
   0.42105263  0.31578947  0.26315789       0.007
   0.47368421  0.31578947  0.26315789       0.007
   0.36842105  0.36842105  0.26315789       0.003
   0.42105263  0.36842105  0.26315789       0.007
   0.47368421  0.36842105  0.26315789       0.007
   0.42105263  0.42105263  0.26315789       0.003
   0.47368421  0.42105263  0.26315789       0.007
   0.47368421  0.47368421  0.26315789       0.003
   0.31578947  0.31578947  0.31578947       0.001
   0.36842105  0.31578947  0.31578947       0.003
   0.42105263  0.31578947  0.31578947       0.003
   0.47368421  0.31578947  0.31578947       0.003
   0.36842105  0.36842105  0.31578947       0.003
   0.42105263  0.36842105  0.31578947       0.007
   0.47368421  0.36842105  0.31578947       0.007
   0.42105263  0.42105263  0.31578947       0.003
   0.47368421  0.42105263  0.31578947       0.007
   0.47368421  0.47368421  0.31578947       0.003
   0.36842105  0.36842105  0.36842105       0.001
   0.42105263  0.36842105  0.36842105       0.003
   0.47368421  0.36842105  0.36842105       0.003
   0.42105263  0.42105263  0.36842105       0.003
   0.47368421  0.42105263  0.36842105       0.007
   0.47368421  0.47368421  0.36842105       0.003
   0.42105263  0.42105263  0.42105263       0.001
   0.47368421  0.42105263  0.42105263       0.003
   0.47368421  0.47368421  0.42105263       0.003
   0.47368421  0.47368421  0.47368421       0.001
 
 position of ions in fractional coordinates (direct lattice) 
   0.00000000  0.00000000  0.00000000
   0.50000000  0.50000000  0.50000000
 
 position of ions in cartesian coordinates  (Angst):
   0.00000000  0.00000000  0.00000000
   1.43151775  1.43151775  1.43151775
 


--------------------------------------------------------------------------------------------------------


 k-point   1 :   0.0000 0.0000 0.0000  plane waves:     365
 k-point   2 :   0.0526 0.0000 0.0000  plane waves:     353
 k-point   3 :   0.1053 0.0000 0.0000  plane waves:     353
 k-point   4 :   0.1579 0.0000 0.0000  plane waves:     353
 k-point   5 :   0.2105-0.0000 0.0000  plane waves:     349
 k-point   6 :   0.2632 0.0000 0.0000  plane waves:     357
 k-point   7 :   0.3158 0.0000 0.0000  plane waves:     357
 k-point   8 :   0.3684 0.0000 0.0000  plane waves:     352
 k-point   9 :   0.4211-0.0000 0.0000  plane waves:     352
 k-point  10 :   0.4737 0.0000 0.0000  plane waves:     336
 k-point  11 :   0.0526 0.0526 0.0000  plane waves:     355
 k-point  12 :   0.1053 0.0526 0.0000  plane waves:     354
 k-point  13 :   0.1579 0.0526 0.0000  plane waves:     355
 k-point  14 :   0.2105 0.0526 0.0000  plane waves:     351
 k-point  15 :   0.2632 0.0526 0.0000  plane waves:     355
 k-point  16 :   0.3158 0.0526 0.0000  plane waves:     352
 k-point  17 :   0.3684 0.0526 0.0000  plane waves:     349
 k-point  18 :   0.4211 0.0526 0.0000  plane waves:     344
 k-point  19 :   0.4737 0.0526 0.0000  plane waves:     348
 k-point  20 :   0.1053 0.1053 0.0000  plane waves:     352
 k-point  21 :   0.1579 0.1053 0.0000  plane waves:     350
 k-point  22 :   0.2105 0.1053 0.0000  plane waves:     351
 k-point  23 :   0.2632 0.1053 0.0000  plane waves:     350
 k-point  24 :   0.3158 0.1053 0.0000  plane waves:     352
 k-point  25 :   0.3684 0.1053 0.0000  plane waves:     349
 k-point  26 :   0.4211 0.1053 0.0000  plane waves:     347
 k-point  27 :   0.4737 0.1053 0.0000  plane waves:     349
 k-point  28 :   0.1579 0.1579 0.0000  plane waves:     356
 k-point  29 :   0.2105 0.1579 0.0000  plane waves:     357
 k-point  30 :   0.2632 0.1579 0.0000  plane waves:     352
 k-point  31 :   0.3158 0.1579 0.0000  plane waves:     353
 k-point  32 :   0.3684 0.1579 0.0000  plane waves:     348
 k-point  33 :   0.4211 0.1579 0.0000  plane waves:     346
 k-point  34 :   0.4737 0.1579 0.0000  plane waves:     350
 k-point  35 :   0.2105 0.2105 0.0000  plane waves:     346
 k-point  36 :   0.2632 0.2105 0.0000  plane waves:     349
 k-point  37 :   0.3158 0.2105 0.0000  plane waves:     348
 k-point  38 :   0.3684 0.2105 0.0000  plane waves:     346
 k-point  39 :   0.4211 0.2105 0.0000  plane waves:     352
 k-point  40 :   0.4737 0.2105 0.0000  plane waves:     352
 k-point  41 :   0.2632 0.2632 0.0000  plane waves:     340
 k-point  42 :   0.3158 0.2632 0.0000  plane waves:     344
 k-point  43 :   0.3684 0.2632 0.0000  plane waves:     347
 k-point  44 :   0.4211 0.2632 0.0000  plane waves:     352
 k-point  45 :   0.4737 0.2632 0.0000  plane waves:     350
 k-point  46 :   0.3158 0.3158 0.0000  plane waves:     348
 k-point  47 :   0.3684 0.3158 0.0000  plane waves:     351
 k-point  48 :   0.4211 0.3158 0.0000  plane waves:     353
 k-point  49 :   0.4737 0.3158 0.0000  plane waves:     354
 k-point  50 :   0.3684 0.3684 0.0000  plane waves:     354
 k-point  51 :   0.4211 0.3684 0.0000  plane waves:     354
 k-point  52 :   0.4737 0.3684 0.0000  plane waves:     355
 k-point  53 :   0.4211 0.4211 0.0000  plane waves:     354
 k-point  54 :   0.4737 0.4211 0.0000  plane waves:     356
 k-point  55 :   0.4737 0.4737 0.0000  plane waves:     356
 k-point  56 :   0.0526 0.0526 0.0526  plane waves:     353
 k-point  57 :   0.1053 0.0526 0.0526  plane waves:     355
 k-point  58 :   0.1579 0.0526 0.0526  plane waves:     353
 k-point  59 :   0.2105 0.0526 0.0526  plane waves:     355
 k-point  60 :   0.2632 0.0526 0.0526  plane waves:     348
 k-point  61 :   0.3158 0.0526 0.0526  plane waves:     351
 k-point  62 :   0.3684 0.0526 0.0526  plane waves:     345
 k-point  63 :   0.4211 0.0526 0.0526  plane waves:     348
 k-point  64 :   0.4737 0.0526 0.0526  plane waves:     350
 k-point  65 :   0.1053 0.1053 0.0526  plane waves:     354
 k-point  66 :   0.1579 0.1053 0.0526  plane waves:     353
 k-point  67 :   0.2105 0.1053 0.0526  plane waves:     354
 k-point  68 :   0.2632 0.1053 0.0526  plane waves:     351
 k-point  69 :   0.3158 0.1053 0.0526  plane waves:     349
 k-point  70 :   0.3684 0.1053 0.0526  plane waves:     347
 k-point  71 :   0.4211 0.1053 0.0526  plane waves:     347
 k-point  72 :   0.4737 0.1053 0.0526  plane waves:     347
 k-point  73 :   0.1579 0.1579 0.0526  plane waves:     353
 k-point  74 :   0.2105 0.1579 0.0526  plane waves:     356
 k-point  75 :   0.2632 0.1579 0.0526  plane waves:     350
 k-point  76 :   0.3158 0.1579 0.0526  plane waves:     346
 k-point  77 :   0.3684 0.1579 0.0526  plane waves:     351
 k-point  78 :   0.4211 0.1579 0.0526  plane waves:     350
 k-point  79 :   0.4737 0.1579 0.0526  plane waves:     348
 k-point  80 :   0.2105 0.2105 0.0526  plane waves:     350
 k-point  81 :   0.2632 0.2105 0.0526  plane waves:     348
 k-point  82 :   0.3158 0.2105 0.0526  plane waves:     349
 k-point  83 :   0.3684 0.2105 0.0526  plane waves:     351
 k-point  84 :   0.4211 0.2105 0.0526  plane waves:     352
 k-point  85 :   0.4737 0.2105 0.0526  plane waves:     352
 k-point  86 :   0.2632 0.2632 0.0526  plane waves:     345
 k-point  87 :   0.3158 0.2632 0.0526  plane waves:     350
 k-point  88 :   0.3684 0.2632 0.0526  plane waves:     350
 k-point  89 :   0.4211 0.2632 0.0526  plane waves:     352
 k-point  90 :   0.4737 0.2632 0.0526  plane waves:     350
 k-point  91 :   0.3158 0.3158 0.0526  plane waves:     347
 k-point  92 :   0.3684 0.3158 0.0526  plane waves:     348
 k-point  93 :   0.4211 0.3158 0.0526  plane waves:     353
 k-point  94 :   0.4737 0.3158 0.0526  plane waves:     353
 k-point  95 :   0.3684 0.3684 0.0526  plane waves:     348
 k-point  96 :   0.4211 0.3684 0.0526  plane waves:     351
 k-point  97 :   0.4737 0.3684 0.0526  plane waves:     352
 k-point  98 :   0.4211 0.4211 0.0526  plane waves:     350
 k-point  99 :   0.4737 0.4211 0.0526  plane waves:     353
 k-point 100 :   0.4737 0.4737 0.0526  plane waves:     356
 k-point 101 :   0.1053 0.1053 0.1053  plane waves:     353
 k-point 102 :   0.1579 0.1053 0.1053  plane waves:     351
 k-point 103 :   0.2105 0.1053 0.1053  plane waves:     351
 k-point 104 :   0.2632 0.1053 0.1053  plane waves:     351
 k-point 105 :   0.3158 0.1053 0.1053  plane waves:     349
 k-point 106 :   0.3684 0.1053 0.1053  plane waves:     352
 k-point 107 :   0.4211 0.1053 0.1053  plane waves:     350
 k-point 108 :   0.4737 0.1053 0.1053  plane waves:     351
 k-point 109 :   0.1579 0.1579 0.1053  plane waves:     355
 k-point 110 :   0.2105 0.1579 0.1053  plane waves:     351
 k-point 111 :   0.2632 0.1579 0.1053  plane waves:     353
 k-point 112 :   0.3158 0.1579 0.1053  plane waves:     353
 k-point 113 :   0.3684 0.1579 0.1053  plane waves:     351
 k-point 114 :   0.4211 0.1579 0.1053  plane waves:     353
 k-point 115 :   0.4737 0.1579 0.1053  plane waves:     352
 k-point 116 :   0.2105 0.2105 0.1053  plane waves:     352
 k-point 117 :   0.2632 0.2105 0.1053  plane waves:     356
 k-point 118 :   0.3158 0.2105 0.1053  plane waves:     351
 k-point 119 :   0.3684 0.2105 0.1053  plane waves:     349
 k-point 120 :   0.4211 0.2105 0.1053  plane waves:     351
 k-point 121 :   0.4737 0.2105 0.1053  plane waves:     353
 k-point 122 :   0.2632 0.2632 0.1053  plane waves:     351
 k-point 123 :   0.3158 0.2632 0.1053  plane waves:     348
 k-point 124 :   0.3684 0.2632 0.1053  plane waves:     348
 k-point 125 :   0.4211 0.2632 0.1053  plane waves:     347
 k-point 126 :   0.4737 0.2632 0.1053  plane waves:     349
 k-point 127 :   0.3158 0.3158 0.1053  plane waves:     351
 k-point 128 :   0.3684 0.3158 0.1053  plane waves:     348
 k-point 129 :   0.4211 0.3158 0.1053  plane waves:     350
 k-point 130 :   0.4737 0.3158 0.1053  plane waves:     350
 k-point 131 :   0.3684 0.3684 0.1053  plane waves:     347
 k-point 132 :   0.4211 0.3684 0.1053  plane waves:     350
 k-point 133 :   0.4737 0.3684 0.1053  plane waves:     349
 k-point 134 :   0.4211 0.4211 0.1053  plane waves:     348
 k-point 135 :   0.4737 0.4211 0.1053  plane waves:     347
 k-point 136 :   0.4737 0.4737 0.1053  plane waves:     348
 k-point 137 :   0.1579 0.1579 0.1579  plane waves:     350
 k-point 138 :   0.2105 0.1579 0.1579  plane waves:     347
 k-point 139 :   0.2632 0.1579 0.1579  plane waves:     353
 k-point 140 :   0.3158 0.1579 0.1579  plane waves:     354
 k-point 141 :   0.3684 0.1579 0.1579  plane waves:     351
 k-point 142 :   0.4211 0.1579 0.1579  plane waves:     351
 k-point 143 :   0.4737 0.1579 0.1579  plane waves:     351
 k-point 144 :   0.2105 0.2105 0.1579  plane waves:     353
 k-point 145 :   0.2632 0.2105 0.1579  plane waves:     352
 k-point 146 :   0.3158 0.2105 0.1579  plane waves:     351
 k-point 147 :   0.3684 0.2105 0.1579  plane waves:     347
 k-point 148 :   0.4211 0.2105 0.1579  plane waves:     349
 k-point 149 :   0.4737 0.2105 0.1579  plane waves:     350
 k-point 150 :   0.2632 0.2632 0.1579  plane waves:     351
 k-point 151 :   0.3158 0.2632 0.1579  plane waves:     346
 k-point 152 :   0.3684 0.2632 0.1579  plane waves:     350
 k-point 153 :   0.4211 0.2632 0.1579  plane waves:     350
 k-point 154 :   0.4737 0.2632 0.1579  plane waves:     348
 k-point 155 :   0.3158 0.3158 0.1579  plane waves:     348
 k-point 156 :   0.3684 0.3158 0.1579  plane waves:     346
 k-point 157 :   0.4211 0.3158 0.1579  plane waves:     347
 k-point 158 :   0.4737 0.3158 0.1579  plane waves:     346
 k-point 159 :   0.3684 0.3684 0.1579  plane waves:     345
 k-point 160 :   0.4211 0.3684 0.1579  plane waves:     344
 k-point 161 :   0.4737 0.3684 0.1579  plane waves:     349
 k-point 162 :   0.4211 0.4211 0.1579  plane waves:     347
 k-point 163 :   0.4737 0.4211 0.1579  plane waves:     346
 k-point 164 :   0.4737 0.4737 0.1579  plane waves:     346
 k-point 165 :   0.2105 0.2105 0.2105  plane waves:     353
 k-point 166 :   0.2632 0.2105 0.2105  plane waves:     352
 k-point 167 :   0.3158 0.2105 0.2105  plane waves:     348
 k-point 168 :   0.3684 0.2105 0.2105  plane waves:     345
 k-point 169 :   0.4211 0.2105 0.2105  plane waves:     345
 k-point 170 :   0.4737 0.2105 0.2105  plane waves:     350
 k-point 171 :   0.2632 0.2632 0.2105  plane waves:     353
 k-point 172 :   0.3158 0.2632 0.2105  plane waves:     348
 k-point 173 :   0.3684 0.2632 0.2105  plane waves:     348
 k-point 174 :   0.4211 0.2632 0.2105  plane waves:     347
 k-point 175 :   0.4737 0.2632 0.2105  plane waves:     348
 k-point 176 :   0.3158 0.3158 0.2105  plane waves:     349
 k-point 177 :   0.3684 0.3158 0.2105  plane waves:     348
 k-point 178 :   0.4211 0.3158 0.2105  plane waves:     348
 k-point 179 :   0.4737 0.3158 0.2105  plane waves:     348
 k-point 180 :   0.3684 0.3684 0.2105  plane waves:     348
 k-point 181 :   0.4211 0.3684 0.2105  plane waves:     346
 k-point 182 :   0.4737 0.3684 0.2105  plane waves:     343
 k-point 183 :   0.4211 0.4211 0.2105  plane waves:     347
 k-point 184 :   0.4737 0.4211 0.2105  plane waves:     345
 k-point 185 :   0.4737 0.4737 0.2105  plane waves:     348
 k-point 186 :   0.2632 0.2632 0.2632  plane waves:     350
 k-point 187 :   0.3158 0.2632 0.2632  plane waves:     348
 k-point 188 :   0.3684 0.2632 0.2632  plane waves:     345
 k-point 189 :   0.4211 0.2632 0.2632  plane waves:     348
 k-point 190 :   0.4737 0.2632 0.2632  plane waves:     348
 k-point 191 :   0.3158 0.3158 0.2632  plane waves:     348
 k-point 192 :   0.3684 0.3158 0.2632  plane waves:     345
 k-point 193 :   0.4211 0.3158 0.2632  plane waves:     349
 k-point 194 :   0.4737 0.3158 0.2632  plane waves:     350
 k-point 195 :   0.3684 0.3684 0.2632  plane waves:     348
 k-point 196 :   0.4211 0.3684 0.2632  plane waves:     346
 k-point 197 :   0.4737 0.3684 0.2632  plane waves:     346
 k-point 198 :   0.4211 0.4211 0.2632  plane waves:     344
 k-point 199 :   0.4737 0.4211 0.2632  plane waves:     343
 k-point 200 :   0.4737 0.4737 0.2632  plane waves:     342
 k-point 201 :   0.3158 0.3158 0.3158  plane waves:     344
 k-point 202 :   0.3684 0.3158 0.3158  plane waves:     348
 k-point 203 :   0.4211 0.3158 0.3158  plane waves:     346
 k-point 204 :   0.4737 0.3158 0.3158  plane waves:     344
 k-point 205 :   0.3684 0.3684 0.3158  plane waves:     345
 k-point 206 :   0.4211 0.3684 0.3158  plane waves:     344
 k-point 207 :   0.4737 0.3684 0.3158  plane waves:     342
 k-point 208 :   0.4211 0.4211 0.3158  plane waves:     338
 k-point 209 :   0.4737 0.4211 0.3158  plane waves:     336
 k-point 210 :   0.4737 0.4737 0.3158  plane waves:     338
 k-point 211 :   0.3684 0.3684 0.3684  plane waves:     344
 k-point 212 :   0.4211 0.3684 0.3684  plane waves:     340
 k-point 213 :   0.4737 0.3684 0.3684  plane waves:     336
 k-point 214 :   0.4211 0.4211 0.3684  plane waves:     341
 k-point 215 :   0.4737 0.4211 0.3684  plane waves:     337
 k-point 216 :   0.4737 0.4737 0.3684  plane waves:     338
 k-point 217 :   0.4211 0.4211 0.4211  plane waves:     344
 k-point 218 :   0.4737 0.4211 0.4211  plane waves:     342
 k-point 219 :   0.4737 0.4737 0.4211  plane waves:     343
 k-point 220 :   0.4737 0.4737 0.4737  plane waves:     353

 maximum and minimum number of plane-waves per node :       365      336

 maximum number of plane-waves:       365
 maximum index in each direction: 
   IXMAX=    4   IYMAX=    4   IZMAX=    4
   IXMIN=   -4   IYMIN=   -4   IZMIN=   -4


 serial   3D FFT for wavefunctions
 parallel 3D FFT for charge:
    minimum data exchange during FFTs selected (reduces bandwidth)


 total amount of memory used by VASP MPI-rank0    59080. kBytes
=======================================================================

   base      :      30000. kBytes
   nonl-proj :      11670. kBytes
   fftplans  :       1775. kBytes
   grid      :       1353. kBytes
   one-center:         62. kBytes
   wavefun   :      14220. kBytes
 
     INWAV:  cpu time    0.0000: real time    0.0009
 Broyden mixing: mesh for mixing (old mesh)
   NGX =  9   NGY =  9   NGZ =  9
  (NGX  = 36   NGY  = 36   NGZ  = 36)
  gives a total of    729 points

 initial charge density was supplied:
 charge density of overlapping atoms calculated
 number of electron      16.0000000 magnetization      10.0000000
 keeping initial charge density in first step


--------------------------------------------------------------------------------------------------------


 Maximum index for augmentation-charges        17277 (set IRDMAX)


--------------------------------------------------------------------------------------------------------


 First call to EWALD:  gamma=   0.619
 Maximum number of real-space cells 3x 3x 3
 Maximum number of reciprocal cells 3x 3x 3

    FEWALD:  cpu time    0.0030: real time    0.0035


--------------------------------------- Iteration      1(   1)  ---------------------------------------


    POTLOK:  cpu time    0.0360: real time    0.0384
    SETDIJ:  cpu time    1.5498: real time    1.5512
     EDDAV:  cpu time    6.9849: real time    6.9917
       DOS:  cpu time    0.0180: real time    0.0184
    --------------------------------------------
      LOOP:  cpu time    8.5887: real time    8.6000

 eigenvalue-minimisations  : 19588
 total energy-change (2. order) : 0.6466077E+02  (-0.6069006E+03)
 number of electron      16.0000000 magnetization      10.0000000
 augmentation part       16.0000000 magnetization      10.0000000

 Free energy of the ion-electron system (eV)
  ---------------------------------------------------
  alpha Z        PSCENC =       117.79976220
  Ewald energy   TEWEN  =     -1171.43779597
  -Hartree energ DENC   =      -228.04061711
  -exchange      EXHF   =         0.00000000
[...]

 k-point   214 :       0.4211    0.4211    0.3684
  band No.  band energies     occupation 
      1       3.6140      1.00000
      2       3.6970      1.00000
      3       3.9556      1.00000
      4       4.0907      1.00000
      5       4.1246      1.00000
      6       4.3278      1.00000
      7       7.7066     -0.00000
      8       7.7324     -0.00000
      9       7.7698     -0.00000
     10       7.7894     -0.00000
     11      11.6736      0.00000
     12      13.3443      0.00000
     13      14.6397      0.00000
     14      16.6139      0.00000
     15      16.8745      0.00000
     16      18.2190      0.00000
     17      19.2741      0.00000
     18      21.2534      0.00000
     19      38.1662      0.00000
     20      39.2929      0.00000

 k-point   215 :       0.4737    0.4211    0.3684
  band No.  band energies     occupation 
      1       3.6356      1.00000
      2       3.6732      1.00000
      3       3.9624      1.00000
      4       4.0126      1.00000
      5       4.2627      1.00000
      6       4.3375      1.00000
      7       7.7227     -0.00000
      8       7.7319     -0.00000
      9       7.8038     -0.00000
     10       7.8104     -0.00000
     11      12.2665      0.00000
     12      12.8821      0.00000
     13      15.2043      0.00000
     14      16.0008      0.00000
     15      17.0782      0.00000
     16      17.7188      0.00000
     17      19.5712      0.00000
     18      20.3283      0.00000
     19      38.7851      0.00000
     20      39.2238      0.00000

 k-point   216 :       0.4737    0.4737    0.3684
  band No.  band energies     occupation 
      1       3.6655      1.00000
      2       3.6856      1.00000
      3       3.9244      1.00000
      4       3.9477      1.00000
      5       4.3513      1.00000
      6       4.3778      1.00000
      7       7.7438     -0.00000
      8       7.7471     -0.00000
      9       7.8235     -0.00000
     10       7.8258     -0.00000
     11      12.7857      0.00000
     12      13.0819      0.00000
     13      14.9700      0.00000
     14      15.3224      0.00000
     15      17.5929      0.00000
     16      18.0171      0.00000
     17      18.9928      0.00000
     18      19.4512      0.00000
     19      39.3682      0.00000
     20      39.5504      0.00000

 k-point   217 :       0.4211    0.4211    0.4211
  band No.  band energies     occupation 
      1       3.6901      1.00000
      2       3.9527      1.00000
      3       3.9528      1.00000
      4       3.9635      1.00000
      5       4.1696      1.00000
      6       4.1696      1.00000
      7       7.7731     -0.00000
      8       7.7733     -0.00000
      9       7.7879     -0.00000
     10       7.7881     -0.00000
     11      12.2966      0.00000
     12      14.2471      0.00000
     13      14.2471      0.00000
     14      16.3693      0.00000
     15      17.1782      0.00000
     16      17.1782      0.00000
     17      18.5576      0.00000
     18      20.2297      0.00000
     19      39.9398      0.00000
     20      39.9399      0.00000

 k-point   218 :       0.4737    0.4211    0.4211
  band No.  band energies     occupation 
      1       3.7502      1.00000
      2       3.8335      1.00000
      3       3.9842      1.00000
      4       4.0555      1.00000
      5       4.1339      1.00000
      6       4.2008      1.00000
      7       7.7789     -0.00000
      8       7.7843     -0.00000
      9       7.8117     -0.00000
     10       7.8166     -0.00000
     11      12.9451      0.00000
     12      13.6180      0.00000
     13      15.1891      0.00000
     14      16.1671      0.00000
     15      16.5822      0.00000
     16      16.9993      0.00000
     17      18.6490      0.00000
     18      19.3314      0.00000
     19      40.4587      0.00000
     20      40.8560      0.00000

 k-point   219 :       0.4737    0.4737    0.4211
  band No.  band energies     occupation 
      1       3.8243      1.00000
      2       3.8939      1.00000
      3       3.9313      1.00000
      4       3.9958      1.00000
      5       4.1709      1.00000
      6       4.1944      1.00000
      7       7.7996     -0.00000
      8       7.8016     -0.00000
      9       7.8282     -0.00000
     10       7.8299     -0.00000
     11      13.5911      0.00000
     12      14.0026      0.00000
     13      15.0984      0.00000
     14      15.6340      0.00000
     15      16.7163      0.00000
     16      16.9706      0.00000
     17      18.1454      0.00000
     18      18.5103      0.00000
     19      41.3722      0.00000
     20      41.5702      0.00000

 k-point   220 :       0.4737    0.4737    0.4737
  band No.  band energies     occupation 
      1       3.9083      1.00000
      2       3.9745      1.00000
      3       3.9746      1.00000
      4       4.0606      1.00000
      5       4.0607      1.00000
      6       4.0745      1.00000
      7       7.8308     -0.00000
      8       7.8309     -0.00000
      9       7.8315     -0.00000
     10       7.8317     -0.00000
     11      14.3606      0.00000
     12      14.9598      0.00000
     13      14.9598      0.00000
     14      15.9503      0.00000
     15      15.9503      0.00000
     16      16.1822      0.00000
     17      17.6757      0.00000
     18      17.8304      0.00000
     19      43.3147      0.00000
     20      43.3440      0.00000


--------------------------------------------------------------------------------------------------------


 soft charge-density along one line, spin component           1
         0         1         2         3         4         5         6         7         8         9
 total charge-density along one line
 
 soft charge-density along one line, spin component           2
         0         1         2         3         4         5         6         7         8         9
 total charge-density along one line
 
 pseudopotential strength for first ion, spin component:           1
 -5.562  -0.000  -0.000  -0.000  -0.000  -6.094  -0.000  -0.000
 -0.000  -5.562   0.000  -0.000   0.000  -0.000  -6.094   0.000
 -0.000   0.000  -5.772   0.000   0.000  -0.000   0.000  -6.297
 -0.000  -0.000   0.000  -5.562  -0.000  -0.000  -0.000   0.000
 -0.000   0.000   0.000  -0.000  -5.772  -0.000   0.000   0.000
 -6.094  -0.000  -0.000  -0.000  -0.000  -6.584  -0.000  -0.000
 -0.000  -6.094   0.000  -0.000   0.000  -0.000  -6.584   0.000
 -0.000   0.000  -6.297   0.000   0.000  -0.000   0.000  -6.780
 -0.000  -0.000   0.000  -6.094  -0.000  -0.000  -0.000   0.000
 -0.000   0.000   0.000  -0.000  -6.297  -0.000   0.000   0.000
 -0.000   0.000   0.000   0.000  -0.000  -0.000   0.000   0.000
 -0.000   0.000   0.000   0.000  -0.000  -0.000   0.000   0.000
  0.000   0.000  -0.000   0.000  -0.000   0.000   0.000  -0.000
  0.000   0.000   0.000   0.000  -0.000   0.000   0.000   0.000
  0.000   0.000  -0.000   0.000  -0.000   0.000   0.000  -0.000
  0.000   0.000  -0.000   0.000  -0.000   0.000   0.000  -0.000
  0.000   0.000   0.000   0.000  -0.000   0.000   0.000   0.000
  0.000   0.000  -0.000   0.000  -0.000   0.000   0.000  -0.000
 pseudopotential strength for first ion, spin component:           2
 -4.131   0.000   0.000   0.000   0.000  -4.707   0.000   0.000
  0.000  -4.131  -0.000  -0.000  -0.000   0.000  -4.707  -0.000
  0.000  -0.000  -3.881  -0.000  -0.000   0.000  -0.000  -4.465
  0.000  -0.000  -0.000  -4.131   0.000   0.000  -0.000  -0.000
  0.000  -0.000  -0.000   0.000  -3.881   0.000  -0.000  -0.000
 -4.707   0.000   0.000   0.000   0.000  -5.239   0.000   0.000
  0.000  -4.707  -0.000  -0.000  -0.000   0.000  -5.239  -0.000
  0.000  -0.000  -4.465  -0.000  -0.000   0.000  -0.000  -5.006
  0.000  -0.000  -0.000  -4.707   0.000   0.000  -0.000  -0.000
  0.000  -0.000  -0.000   0.000  -4.465   0.000  -0.000  -0.000
  0.000  -0.000  -0.000  -0.000   0.000   0.000  -0.000  -0.000
  0.000  -0.000  -0.000  -0.000   0.000   0.000  -0.000  -0.000
  0.000   0.000  -0.000   0.000  -0.000   0.000   0.000  -0.000
  0.000   0.000   0.000   0.000   0.000   0.000   0.000   0.000
  0.000   0.000  -0.000   0.000  -0.000   0.000   0.000  -0.000
  0.000   0.000  -0.000   0.000  -0.000   0.000   0.000  -0.000
  0.000   0.000   0.000   0.000  -0.000   0.000   0.000   0.000
  0.000   0.000  -0.000   0.000  -0.000   0.000   0.000  -0.000
 total augmentation occupancy for first ion, spin component:           1
  2.253   0.000  -0.000   0.000  -0.000  -1.255  -0.000   0.000  -0.000   0.000  -0.000  -0.000   0.000   0.000   0.000   0.000
  0.000   2.253   0.000   0.000  -0.000  -0.000  -1.255  -0.000  -0.000   0.000   0.000  -0.000   0.000  -0.000   0.000   0.000
 -0.000   0.000   3.673   0.000   0.000   0.000  -0.000  -2.397  -0.000  -0.000  -0.000   0.000   0.000  -0.000   0.000   0.000
  0.000   0.000   0.000   2.253   0.000  -0.000  -0.000   0.000  -1.255  -0.000  -0.000   0.000   0.000   0.000   0.000   0.000
 -0.000  -0.000   0.000   0.000   3.673   0.000   0.000  -0.000  -0.000  -2.397  -0.000   0.000  -0.000  -0.000   0.000   0.000
 -1.255  -0.000   0.000  -0.000   0.000   1.652   0.000  -0.000   0.000  -0.000  -0.000  -0.000   0.000   0.000   0.000   0.000
 -0.000  -1.255   0.000  -0.000   0.000   0.000   1.652   0.000   0.000  -0.000  -0.000  -0.000   0.000   0.000   0.000   0.000
  0.000   0.000  -2.397   0.000  -0.000  -0.000   0.000   2.381   0.000  -0.000  -0.000  -0.000   0.000  -0.000  -0.000   0.000
 -0.000  -0.000  -0.000  -1.255  -0.000   0.000   0.000   0.000   1.652   0.000   0.000  -0.000   0.000   0.000   0.000   0.000
  0.000   0.000  -0.000  -0.000  -2.397  -0.000  -0.000  -0.000   0.000   2.381  -0.000  -0.000  -0.000   0.000  -0.000   0.000
  0.000  -0.000  -0.000  -0.000  -0.000  -0.000   0.000  -0.000  -0.000  -0.000   2.434  -0.284   0.000   0.000   0.000   0.000
  0.000   0.000   0.000  -0.000   0.000  -0.000  -0.000  -0.000  -0.000  -0.000  -0.284   0.039   0.000   0.000   0.000   0.000
  0.000   0.000  -0.000   0.000   0.000   0.000   0.000  -0.000   0.000  -0.000   0.000   0.000   0.297   0.000   0.000  -0.026
  0.000  -0.000  -0.000   0.000   0.000   0.000   0.000  -0.000   0.000   0.000   0.000   0.000   0.000   0.297   0.000  -0.000
  0.000   0.000  -0.000   0.000  -0.000   0.000   0.000   0.000   0.000  -0.000   0.000   0.000   0.000   0.000   0.297  -0.000
  0.000   0.000   0.000   0.000   0.000   0.000   0.000   0.000   0.000   0.000   0.000   0.000  -0.026  -0.000  -0.000   0.003
  0.000   0.000  -0.000   0.000   0.000   0.000   0.000  -0.000   0.000   0.000   0.000   0.000  -0.000  -0.026  -0.000   0.000
  0.000   0.000   0.000   0.000   0.000   0.000   0.000   0.000   0.000   0.000   0.000   0.000  -0.000  -0.000  -0.026   0.000
 total augmentation occupancy for first ion, spin component:           2
  1.867   0.000  -0.000   0.000  -0.000  -0.780  -0.000   0.000  -0.000   0.000   0.000   0.000   0.000   0.000   0.000   0.000
  0.000   1.867   0.000   0.000  -0.000  -0.000  -0.780  -0.000  -0.000   0.000   0.000  -0.000   0.000   0.000   0.000   0.000
 -0.000   0.000   3.103   0.000  -0.000   0.000  -0.000  -1.384  -0.000  -0.000   0.000  -0.000   0.000   0.000   0.000   0.000
  0.000   0.000   0.000   1.867   0.000  -0.000  -0.000   0.000  -0.780  -0.000  -0.000   0.000   0.000   0.000   0.000   0.000
 -0.000  -0.000   0.000   0.000   3.103   0.000   0.000  -0.000  -0.000  -1.384  -0.000  -0.000   0.000  -0.000   0.000   0.000
 -0.780  -0.000   0.000  -0.000   0.000   0.088   0.000  -0.000   0.000  -0.000  -0.000   0.000   0.000   0.000   0.000   0.000
 -0.000  -0.780  -0.000  -0.000   0.000   0.000   0.088   0.000   0.000  -0.000   0.000   0.000   0.000   0.000   0.000   0.000
  0.000   0.000  -1.384   0.000   0.000  -0.000  -0.000   0.379  -0.000   0.000   0.000   0.000  -0.000   0.000   0.000   0.000
 -0.000  -0.000  -0.000  -0.780  -0.000   0.000   0.000  -0.000   0.088   0.000   0.000  -0.000   0.000   0.000   0.000   0.000
  0.000   0.000   0.000  -0.000  -1.384  -0.000  -0.000   0.000   0.000   0.379   0.000   0.000  -0.000   0.000  -0.000   0.000
  0.000   0.000   0.000  -0.000   0.000  -0.000  -0.000  -0.000   0.000  -0.000  -0.330   0.099   0.000   0.000   0.000   0.000
  0.000  -0.000  -0.000   0.000   0.000   0.000  -0.000   0.000   0.000   0.000   0.099  -0.017   0.000   0.000   0.000   0.000
  0.000   0.000  -0.000   0.000  -0.000   0.000   0.000  -0.000   0.000   0.000   0.000   0.000  -0.037  -0.000  -0.000   0.006
  0.000   0.000   0.000   0.000   0.000   0.000   0.000   0.000   0.000  -0.000   0.000   0.000  -0.000  -0.037  -0.000   0.000
  0.000   0.000   0.000   0.000   0.000   0.000   0.000   0.000   0.000   0.000   0.000   0.000  -0.000  -0.000  -0.037   0.000
  0.000   0.000   0.000   0.000  -0.000   0.000   0.000   0.000   0.000   0.000   0.000   0.000   0.006   0.000   0.000  -0.001
  0.000   0.000   0.000   0.000   0.000   0.000   0.000   0.000   0.000   0.000   0.000   0.000   0.000   0.006   0.000  -0.000
  0.000   0.000   0.000   0.000   0.000   0.000   0.000   0.000   0.000   0.000   0.000   0.000   0.000   0.000   0.006  -0.000


------------------------ aborting loop because EDIFF is reached ----------------------------------------





 total charge

# of ion       s       p       d       tot
------------------------------------------
    1        0.489   0.546   6.239   7.274
    2        0.489   0.546   6.239   7.274
--------------------------------------------------
tot          0.979   1.092  12.478  14.548



 magnetization (x)

# of ion       s       p       d       tot
------------------------------------------
    1       -0.014  -0.056   2.244   2.174
    2       -0.014  -0.056   2.244   2.174
--------------------------------------------------
tot         -0.027  -0.112   4.487   4.348
 
    CHARGE:  cpu time    0.3429: real time    0.3443
    FORLOC:  cpu time    0.0000: real time    0.0008
    FORNL :  cpu time    0.5849: real time    0.5853
    STRESS:  cpu time    2.1367: real time    2.1384
    FORCOR:  cpu time    0.0340: real time    0.0336
    FORHAR:  cpu time    0.0030: real time    0.0028
    MIXING:  cpu time    0.0010: real time    0.0010
    OFIELD:  cpu time    0.0000: real time    0.0002

  FORCE on cell =-STRESS in cart. coord.  units (eV):
  Direction    XX          YY          ZZ          XY          YZ          ZX
  --------------------------------------------------------------------------------------
  Alpha Z   122.24072   122.24072   122.24072
  Ewald    -395.32575  -395.32575  -395.32575    -0.00000     0.00000     0.00000
  Hartree    63.13160    63.13160    63.13160    -0.00000    -0.00000    -0.00000
  E(xc)     -79.46037   -79.46037   -79.46037     0.00000     0.00000    -0.00000
  Local     118.18827   118.18827   118.18827     0.00000    -0.00000    -0.00000
  n-local   -54.79823   -51.64715   -48.96436     2.49689    -0.90010     0.69942
  augment    77.41175    77.41175    77.41175     0.00000     0.00000     0.00000
  Kinetic   148.08137   145.22881   143.54694     2.84957    -0.54382     0.11271
  Fock        0.00000     0.00000     0.00000     0.00000     0.00000     0.00000
  -------------------------------------------------------------------------------------
  Total       0.00201     0.00201     0.00201    -0.00000     0.00000     0.00000
  in kB       0.14234     0.14234     0.14234    -0.00000     0.00000     0.00000
  external pressure =        0.14 kB  Pullay stress =        0.00 kB


 VOLUME and BASIS-vectors are now :
 -----------------------------------------------------------------------------
  energy-cutoff  :      350.00
  volume of cell :       22.62
      direct lattice vectors                 reciprocal lattice vectors
     2.827935974 -0.000000000  0.000000000     0.353614795 -0.000000000 -0.000000000
     0.000000000  2.827935974  0.000000000     0.000000000  0.353614795  0.000000000
     0.000000000 -0.000000000  2.827935974    -0.000000000 -0.000000000  0.353614795

  length of vectors
     2.827935974  2.827935974  2.827935974     0.353614795  0.353614795  0.353614795


 FORCES acting on ions
    electron-ion (+dipol)            ewald-force                    non-local-force                 convergence-correction
 -----------------------------------------------------------------------------------------------
   -.578E-14 -.120E-13 -.230E-13   0.696E-15 -.152E-15 -.786E-15   0.292E-26 -.424E-29 0.000E+00   0.184E-14 0.144E-13 -.416E-14
   0.146E-12 -.548E-12 0.400E-13   -.589E-15 0.116E-14 0.180E-14   0.306E-25 0.422E-28 -.129E-25   -.147E-15 0.147E-13 0.277E-15
 -----------------------------------------------------------------------------------------------
   0.140E-12 -.560E-12 0.170E-13   0.107E-15 0.101E-14 0.101E-14   0.336E-25 0.380E-28 -.129E-25   0.169E-14 0.291E-13 -.388E-14
 
 
 POSITION                                       TOTAL-FORCE (eV/Angst)
 -----------------------------------------------------------------------------------
      0.00000     -0.00000     -0.00000        -0.000000     -0.000000     -0.000000
      1.41397      1.41397      1.41397         0.000000      0.000000      0.000000
 -----------------------------------------------------------------------------------
    total drift:                                0.000000     -0.000000      0.000000


--------------------------------------------------------------------------------------------------------



  FREE ENERGIE OF THE ION-ELECTRON SYSTEM (eV)
  ---------------------------------------------------
  free  energy   TOTEN  =       -16.49667698 eV

  energy  without entropy=      -16.49530801  energy(sigma->0) =      -16.49622066
 
 d Force = 0.0000000E+00[ 0.000E+00, 0.000E+00]  d Energy = 0.1413137E-01-0.141E-01
 d Force = 0.0000000E+00[ 0.000E+00, 0.000E+00]  d Ewald  =-0.1262679E+02 0.126E+02


--------------------------------------------------------------------------------------------------------


    POTLOK:  cpu time    1.5778: real time    1.5853


--------------------------------------------------------------------------------------------------------




--------------------------------------------------------------------------------------------------------


  
 reached required accuracy - stopping structural energy minimisation
 writing wavefunctions
     LOOP+:  cpu time   83.1894: real time   85.7663
    4ORBIT:  cpu time    0.0000: real time    0.0000



 total charge

# of ion       s       p       d       tot
------------------------------------------
    1        0.489   0.546   6.239   7.274
    2        0.489   0.546   6.239   7.274
--------------------------------------------------
tot          0.979   1.092  12.478  14.548



 magnetization (x)

# of ion       s       p       d       tot
------------------------------------------
    1       -0.014  -0.056   2.244   2.174
    2       -0.014  -0.056   2.244   2.174
--------------------------------------------------
tot         -0.027  -0.112   4.487   4.348
 

 total amount of memory used by VASP MPI-rank0    59080. kBytes
=======================================================================

   base      :      30000. kBytes
   nonl-proj :      11670. kBytes
   fftplans  :       1775. kBytes
   grid      :       1353. kBytes
   one-center:         62. kBytes
   wavefun   :      14220. kBytes
 
  
  
 General timing and accounting informations for this job:
 ========================================================
  
                  Total CPU time used (sec):      296.871
                            User time (sec):      291.590
                          System time (sec):        5.281
                         Elapsed time (sec):      311.659
  
                   Maximum memory used (kb):       91348.
                   Average memory used (kb):          N/A
  
                          Minor page faults:        11837
                          Major page faults:            1
                 Voluntary context switches:       399665
