PROCAR lm decomposed
# of k-points:  220         # of bands:   20         # of ions:    2

 k-point     1 :    0.00000000 0.00000000 0.00000000     weight = 0.00014579

band     1 # energy   -2.58811740 # occ.  1.00000000
 
ion      s     py     pz     px    dxy    dyz    dz2    dxz  x2-y2    tot
    1  0.368  0.000  0.000  0.000  0.000  0.000  0.000  0.000  0.000  0.368
    2  0.368  0.000  0.000  0.000  0.000  0.000  0.000  0.000  0.000  0.368
tot    0.735  0.000  0.000  0.000  0.000  0.000  0.000  0.000  0.000  0.735
 
band     2 # energy    1.00297055 # occ.  1.00000000
 
ion      s     py     pz     px    dxy    dyz    dz2    dxz  x2-y2    tot
    1  0.000  0.000  0.000  0.000  0.000  0.000  0.137  0.000  0.301  0.438
    2  0.000  0.000  0.000  0.000  0.000  0.000  0.137  0.000  0.301  0.438
tot    0.000  0.000  0.000  0.000  0.000  0.000  0.274  0.000  0.603  0.877
 
band     3 # energy    1.00297071 # occ.  1.00000000
 
ion      s     py     pz     px    dxy    dyz    dz2    dxz  x2-y2    tot
    1  0.000  0.000  0.000  0.000  0.000  0.000  0.301  0.000  0.137  0.438
    2  0.000  0.000  0.000  0.000  0.000  0.000  0.301  0.000  0.137  0.438
tot    0.000  0.000  0.000  0.000  0.000  0.000  0.603  0.000  0.274  0.877
 
band     4 # energy    3.56786748 # occ.  1.00000000
 
ion      s     py     pz     px    dxy    dyz    dz2    dxz  x2-y2    tot
    1  0.000  0.000  0.000  0.000  0.489  0.000  0.000  0.000  0.000  0.489
    2  0.000  0.000  0.000  0.000  0.489  0.000  0.000  0.000  0.000  0.489
tot    0.000  0.000  0.000  0.000  0.979  0.000  0.000  0.000  0.000  0.979
 
band     5 # energy    3.56786836 # occ.  1.00000000
 
ion      s     py     pz     px    dxy    dyz    dz2    dxz  x2-y2    tot
    1  0.000  0.000  0.000  0.000  0.000  0.001  0.000  0.489  0.000  0.489
    2  0.000  0.000  0.000  0.000  0.000  0.001  0.000  0.489  0.000  0.489
tot    0.000  0.000  0.000  0.000  0.000  0.001  0.000  0.977  0.000  0.979
 
band     6 # energy    3.56786838 # occ.  1.00000000
 
ion      s     py     pz     px    dxy    dyz    dz2    dxz  x2-y2    tot
    1  0.000  0.000  0.000  0.000  0.000  0.489  0.000  0.001  0.000  0.489
    2  0.000  0.000  0.000  0.000  0.000  0.489  0.000  0.001  0.000  0.489
tot    0.000  0.000  0.000  0.000  0.000  0.977  0.000  0.001  0.000  0.979
 
band     7 # energy    4.78650924 # occ.  1.00000000
 
ion      s     py     pz     px    dxy    dyz    dz2    dxz  x2-y2    tot
    1  0.000  0.000  0.000  0.000  0.000  0.000  0.482  0.000  0.003  0.485
    2  0.000  0.000  0.000  0.000  0.000  0.000  0.482  0.000  0.003  0.485
tot    0.000  0.000  0.000  0.000  0.000  0.000  0.964  0.000  0.006  0.970
 
band     8 # energy    4.78651022 # occ.  1.00000000
 
ion      s     py     pz     px    dxy    dyz    dz2    dxz  x2-y2    tot
    1  0.000  0.000  0.000  0.000  0.000  0.000  0.003  0.000  0.482  0.485
    2  0.000  0.000  0.000  0.000  0.000  0.000  0.003  0.000  0.482  0.485
tot    0.000  0.000  0.000  0.000  0.000  0.000  0.006  0.000  0.964  0.970
 
band     9 # energy    6.00422015 # occ.  0.06973950
 
ion      s     py     pz     px    dxy    dyz    dz2    dxz  x2-y2    tot
    1  0.000  0.000  0.000  0.000  0.494  0.000  0.000  0.000  0.000  0.494
    2  0.000  0.000  0.000  0.000  0.494  0.000  0.000  0.000  0.000  0.494
tot    0.000  0.000  0.000  0.000  0.988  0.000  0.000  0.000  0.000  0.988
 
band    10 # energy    6.00422178 # occ.  0.06973603
 
ion      s     py     pz     px    dxy    dyz    dz2    dxz  x2-y2    tot
    1  0.000  0.000  0.000  0.000  0.000  0.000  0.000  0.494  0.000  0.494
    2  0.000  0.000  0.000  0.000  0.000  0.000  0.000  0.494  0.000  0.494
tot    0.000  0.000  0.000  0.000  0.000  0.000  0.000  0.988  0.000  0.988
 
band    11 # energy    6.00422180 # occ.  0.06973599
 
ion      s     py     pz     px    dxy    dyz    dz2    dxz  x2-y2    tot
    1  0.000  0.000  0.000  0.000  0.000  0.494  0.000  0.000  0.000  0.494
    2  0.000  0.000  0.000  0.000  0.000  0.494  0.000  0.000  0.000  0.494
tot    0.000  0.000  0.000  0.000  0.000  0.988  0.000  0.000  0.000  0.988
 
band    12 # energy   15.84105822 # occ.  0.00000000
 
ion      s     py     pz     px    dxy    dyz    dz2    dxz  x2-y2    tot
    1  0.000  0.006  0.000  0.370  0.000  0.000  0.000  0.000  0.000  0.377
    2  0.000  0.006  0.000  0.370  0.000  0.000  0.000  0.000  0.000  0.377
tot    0.000  0.013  0.000  0.741  0.000  0.000  0.000  0.000  0.000  0.754
 
band    13 # energy   15.84105832 # occ.  0.00000000
 
ion      s     py     pz     px    dxy    dyz    dz2    dxz  x2-y2    tot
    1  0.000  0.370  0.000  0.006  0.000  0.000  0.000  0.000  0.000  0.377
    2  0.000  0.370  0.000  0.006  0.000  0.000  0.000  0.000  0.000  0.377
tot    0.000  0.741  0.000  0.013  0.000  0.000  0.000  0.000  0.000  0.754
 
band    14 # energy   15.84105841 # occ.  0.00000000
 
ion      s     py     pz     px    dxy    dyz    dz2    dxz  x2-y2    tot
    1  0.000  0.000  0.377  0.000  0.000  0.000  0.000  0.000  0.000  0.377
    2  0.000  0.000  0.377  0.000  0.000  0.000  0.000  0.000  0.000  0.377
tot    0.000  0.000  0.753  0.000  0.000  0.000  0.000  0.000  0.000  0.754
 
band    15 # energy   21.57230197 # occ.  0.00000000
 
ion      s     py     pz     px    dxy    dyz    dz2    dxz  x2-y2    tot
    1  0.000  0.000  0.000  0.000  0.000  0.000  0.477  0.000  0.000  0.477
    2  0.000  0.000  0.000  0.000  0.000  0.000  0.477  0.000  0.000  0.477
tot    0.000  0.000  0.000  0.000  0.000  0.000  0.953  0.000  0.000  0.953
 
band    16 # energy   21.57230371 # occ.  0.00000000
 
ion      s     py     pz     px    dxy    dyz    dz2    dxz  x2-y2    tot
    1  0.000  0.000  0.000  0.000  0.000  0.000  0.000  0.000  0.477  0.477
    2  0.000  0.000  0.000  0.000  0.000  0.000  0.000  0.000  0.477  0.477
tot    0.000  0.000  0.000  0.000  0.000  0.000  0.000  0.000  0.953  0.953
 
band    17 # energy   26.73914106 # occ.  0.00000000
 
ion      s     py     pz     px    dxy    dyz    dz2    dxz  x2-y2    tot
    1  0.391  0.000  0.000  0.000  0.000  0.000  0.000  0.000  0.000  0.391
    2  0.391  0.000  0.000  0.000  0.000  0.000  0.000  0.000  0.000  0.391
tot    0.782  0.000  0.000  0.000  0.000  0.000  0.000  0.000  0.000  0.782
 
band    18 # energy   30.94070218 # occ.  0.00000000
 
ion      s     py     pz     px    dxy    dyz    dz2    dxz  x2-y2    tot
    1  0.000  0.000  0.000  0.000  0.000  0.000  0.000  0.000  0.000  0.000
    2  0.000  0.000  0.000  0.000  0.000  0.000  0.000  0.000  0.000  0.000
tot    0.000  0.000  0.000  0.000  0.000  0.000  0.000  0.000  0.000  0.000
 
band    19 # energy   30.94070218 # occ.  0.00000000
 
ion      s     py     pz     px    dxy    dyz    dz2    dxz  x2-y2    tot
    1  0.000  0.000  0.000  0.000  0.000  0.000  0.000  0.000  0.000  0.000
    2  0.000  0.000  0.000  0.000  0.000  0.000  0.000  0.000  0.000  0.000
tot    0.000  0.000  0.000  0.000  0.000  0.000  0.000  0.000  0.000  0.000
 
band    20 # energy   30.94070222 # occ.  0.00000000
 
ion      s     py     pz     px    dxy    dyz    dz2    dxz  x2-y2    tot
    1  0.000  0.000  0.000  0.000  0.000  0.000  0.000  0.000  0.000  0.000
    2  0.000  0.000  0.000  0.000  0.000  0.000  0.000  0.000  0.000  0.000
tot    0.000  0.000  0.000  0.000  0.000  0.000  0.000  0.000  0.000  0.000
 

 k-point     2 :    0.05263158 0.00000000 0.00000000     weight = 0.00087476

band     1 # energy   -2.53026253 # occ.  1.00000000
 
ion      s     py     pz     px    dxy    dyz    dz2    dxz  x2-y2    tot
    1  0.366  0.000  0.000  0.002  0.000  0.000  0.000  0.000  0.000  0.368
    2  0.366  0.000  0.000  0.002  0.000  0.000  0.000  0.000  0.000  0.368
tot    0.731  0.000  0.000  0.004  0.000  0.000  0.000  0.000  0.000  0.736
 
band     2 # energy    1.02786012 # occ.  1.00000000
 
ion      s     py     pz     px    dxy    dyz    dz2    dxz  x2-y2    tot
    1  0.000  0.000  0.000  0.000  0.000  0.000  0.329  0.000  0.110  0.438
    2  0.000  0.000  0.000  0.000  0.000  0.000  0.329  0.000  0.110  0.438
tot    0.000  0.000  0.000  0.000  0.000  0.000  0.658  0.000  0.219  0.877
 
band     3 # energy    1.02905853 # occ.  1.00000000
 
ion      s     py     pz     px    dxy    dyz    dz2    dxz  x2-y2    tot
    1  0.000  0.000  0.000  0.002  0.000  0.000  0.109  0.000  0.327  0.438
    2  0.000  0.000  0.000  0.002  0.000  0.000  0.109  0.000  0.327  0.438
tot    0.000  0.000  0.000  0.003  0.000  0.000  0.218  0.000  0.655  0.876
 
band     4 # energy    3.56730742 # occ.  1.00000000
 
ion      s     py     pz     px    dxy    dyz    dz2    dxz  x2-y2    tot
    1  0.000  0.000  0.000  0.000  0.489  0.000  0.000  0.000  0.000  0.489
    2  0.000  0.000  0.000  0.000  0.489  0.000  0.000  0.000  0.000  0.489
tot    0.000  0.000  0.000  0.000  0.978  0.000  0.000  0.000  0.000  0.978
 
band     5 # energy    3.56730830 # occ.  1.00000000
 
ion      s     py     pz     px    dxy    dyz    dz2    dxz  x2-y2    tot
    1  0.000  0.000  0.000  0.000  0.000  0.000  0.000  0.489  0.000  0.489
    2  0.000  0.000  0.000  0.000  0.000  0.000  0.000  0.489  0.000  0.489
tot    0.000  0.000  0.000  0.000  0.000  0.000  0.000  0.978  0.000  0.978
 
band     6 # energy    3.58375790 # occ.  1.00000000
 
ion      s     py     pz     px    dxy    dyz    dz2    dxz  x2-y2    tot
    1  0.000  0.000  0.000  0.000  0.000  0.489  0.000  0.000  0.000  0.489
    2  0.000  0.000  0.000  0.000  0.000  0.489  0.000  0.000  0.000  0.489
tot    0.000  0.000  0.000  0.000  0.000  0.978  0.000  0.000  0.000  0.978
 
band     7 # energy    4.76058205 # occ.  1.00000000
 
ion      s     py     pz     px    dxy    dyz    dz2    dxz  x2-y2    tot
    1  0.000  0.000  0.000  0.000  0.000  0.000  0.363  0.000  0.121  0.485
    2  0.000  0.000  0.000  0.000  0.000  0.000  0.363  0.000  0.121  0.485
tot    0.000  0.000  0.000  0.000  0.000  0.000  0.727  0.000  0.242  0.969
 
band     8 # energy    4.79677688 # occ.  1.00000000
 
ion      s     py     pz     px    dxy    dyz    dz2    dxz  x2-y2    tot
    1  0.000  0.000  0.000  0.000  0.000  0.000  0.121  0.000  0.364  0.485
    2  0.000  0.000  0.000  0.000  0.000  0.000  0.121  0.000  0.364  0.485
tot    0.000  0.000  0.000  0.000  0.000  0.000  0.243  0.000  0.728  0.971
 
band     9 # energy    5.95497657 # occ.  0.20454693
 
ion      s     py     pz     px    dxy    dyz    dz2    dxz  x2-y2    tot
    1  0.000  0.001  0.000  0.000  0.492  0.000  0.000  0.000  0.000  0.493
    2  0.000  0.001  0.000  0.000  0.492  0.000  0.000  0.000  0.000  0.493
tot    0.000  0.003  0.000  0.000  0.983  0.000  0.000  0.000  0.000  0.986
 
band    10 # energy    5.95497817 # occ.  0.20454159
 
ion      s     py     pz     px    dxy    dyz    dz2    dxz  x2-y2    tot
    1  0.000  0.000  0.001  0.000  0.000  0.000  0.000  0.492  0.000  0.493
    2  0.000  0.000  0.001  0.000  0.000  0.000  0.000  0.492  0.000  0.493
tot    0.000  0.000  0.003  0.000  0.000  0.000  0.000  0.983  0.000  0.986
 
band    11 # energy    5.98717102 # occ.  0.10964385
 
ion      s     py     pz     px    dxy    dyz    dz2    dxz  x2-y2    tot
    1  0.000  0.000  0.000  0.000  0.000  0.494  0.000  0.000  0.000  0.494
    2  0.000  0.000  0.000  0.000  0.000  0.494  0.000  0.000  0.000  0.494
tot    0.000  0.000  0.000  0.000  0.000  0.987  0.000  0.000  0.000  0.987
 
band    12 # energy   15.40629010 # occ.  0.00000000
 
ion      s     py     pz     px    dxy    dyz    dz2    dxz  x2-y2    tot
    1  0.011  0.000  0.000  0.352  0.000  0.000  0.005  0.000  0.016  0.383
    2  0.011  0.000  0.000  0.352  0.000  0.000  0.005  0.000  0.016  0.383
tot    0.021  0.000  0.000  0.704  0.000  0.000  0.010  0.000  0.031  0.767
 
band    13 # energy   15.95129001 # occ.  0.00000000
 
ion      s     py     pz     px    dxy    dyz    dz2    dxz  x2-y2    tot
    1  0.000  0.374  0.000  0.000  0.004  0.000  0.000  0.000  0.000  0.379
    2  0.000  0.374  0.000  0.000  0.004  0.000  0.000  0.000  0.000  0.379
tot    0.000  0.748  0.000  0.000  0.009  0.000  0.000  0.000  0.000  0.757
 
band    14 # energy   15.95129013 # occ.  0.00000000
 
ion      s     py     pz     px    dxy    dyz    dz2    dxz  x2-y2    tot
    1  0.000  0.000  0.374  0.000  0.000  0.000  0.000  0.004  0.000  0.379
    2  0.000  0.000  0.374  0.000  0.000  0.000  0.000  0.004  0.000  0.379
tot    0.000  0.000  0.748  0.000  0.000  0.000  0.000  0.009  0.000  0.757
 
band    15 # energy   21.58919914 # occ.  0.00000000
 
ion      s     py     pz     px    dxy    dyz    dz2    dxz  x2-y2    tot
    1  0.000  0.000  0.000  0.000  0.000  0.000  0.356  0.000  0.119  0.475
    2  0.000  0.000  0.000  0.000  0.000  0.000  0.356  0.000  0.119  0.475
tot    0.000  0.000  0.000  0.000  0.000  0.000  0.713  0.000  0.238  0.951
 
band    16 # energy   21.90778473 # occ.  0.00000000
 
ion      s     py     pz     px    dxy    dyz    dz2    dxz  x2-y2    tot
    1  0.002  0.000  0.000  0.011  0.000  0.000  0.113  0.000  0.340  0.467
    2  0.002  0.000  0.000  0.011  0.000  0.000  0.113  0.000  0.340  0.467
tot    0.004  0.000  0.000  0.022  0.000  0.000  0.227  0.000  0.681  0.934
 
band    17 # energy   26.92344865 # occ.  0.00000000
 
ion      s     py     pz     px    dxy    dyz    dz2    dxz  x2-y2    tot
    1  0.378  0.000  0.000  0.013  0.000  0.000  0.000  0.000  0.001  0.391
    2  0.378  0.000  0.000  0.013  0.000  0.000  0.000  0.000  0.001  0.391
tot    0.755  0.000  0.000  0.025  0.000  0.000  0.000  0.000  0.001  0.783
 
band    18 # energy   30.52519931 # occ.  0.00000000
 
ion      s     py     pz     px    dxy    dyz    dz2    dxz  x2-y2    tot
    1  0.000  0.000  0.000  0.000  0.000  0.000  0.032  0.000  0.011  0.043
    2  0.000  0.000  0.000  0.000  0.000  0.000  0.032  0.000  0.011  0.043
tot    0.000  0.000  0.000  0.000  0.000  0.000  0.064  0.000  0.021  0.086
 
band    19 # energy   30.89347259 # occ.  0.00000000
 
ion      s     py     pz     px    dxy    dyz    dz2    dxz  x2-y2    tot
    1  0.000  0.000  0.000  0.000  0.023  0.000  0.000  0.000  0.000  0.023
    2  0.000  0.000  0.000  0.000  0.023  0.000  0.000  0.000  0.000  0.023
tot    0.000  0.001  0.000  0.000  0.045  0.000  0.000  0.000  0.000  0.046
 
band    20 # energy   30.89347264 # occ.  0.00000000
 
ion      s     py     pz     px    dxy    dyz    dz2    dxz  x2-y2    tot
    1  0.000  0.000  0.000  0.000  0.000  0.000  0.000  0.023  0.000  0.023
    2  0.000  0.000  0.000  0.000  0.000  0.000  0.000  0.023  0.000  0.023
tot    0.000  0.000  0.001  0.000  0.000  0.000  0.000  0.045  0.000  0.046
 

 k-point     3 :    0.10526316 0.00000000 0.00000000     weight = 0.00087476

band     1 # energy   -2.35806125 # occ.  1.00000000
 
ion      s     py     pz     px    dxy    dyz    dz2    dxz  x2-y2    tot
    1  0.360  0.000  0.000  0.008  0.000  0.000  0.000  0.000  0.000  0.368
    2  0.360  0.000  0.000  0.008  0.000  0.000  0.000  0.000  0.000  0.368
tot    0.719  0.000  0.000  0.016  0.000  0.000  0.000  0.000  0.000  0.736
 
band     2 # energy    1.10154431 # occ.  1.00000000
 
ion      s     py     pz     px    dxy    dyz    dz2    dxz  x2-y2    tot
    1  0.000  0.000  0.000  0.000  0.000  0.000  0.329  0.000  0.110  0.439
    2  0.000  0.000  0.000  0.000  0.000  0.000  0.329  0.000  0.110  0.439
tot    0.000  0.000  0.000  0.000  0.000  0.000  0.658  0.000  0.219  0.877
 
band     3 # energy    1.10394302 # occ.  1.00000000
 
ion      s     py     pz     px    dxy    dyz    dz2    dxz  x2-y2    tot
    1  0.000  0.000  0.000  0.006  0.000  0.000  0.108  0.000  0.324  0.438
    2  0.000  0.000  0.000  0.006  0.000  0.000  0.108  0.000  0.324  0.438
tot    0.000  0.000  0.000  0.012  0.000  0.000  0.216  0.000  0.647  0.876
 
band     4 # energy    3.56671445 # occ.  1.00000000
 
ion      s     py     pz     px    dxy    dyz    dz2    dxz  x2-y2    tot
    1  0.000  0.001  0.000  0.000  0.488  0.000  0.000  0.000  0.000  0.488
    2  0.000  0.001  0.000  0.000  0.488  0.000  0.000  0.000  0.000  0.488
tot    0.000  0.002  0.000  0.000  0.975  0.000  0.000  0.000  0.000  0.977
 
band     5 # energy    3.56671533 # occ.  1.00000000
 
ion      s     py     pz     px    dxy    dyz    dz2    dxz  x2-y2    tot
    1  0.000  0.000  0.001  0.000  0.000  0.000  0.000  0.488  0.000  0.488
    2  0.000  0.000  0.001  0.000  0.000  0.000  0.000  0.488  0.000  0.488
tot    0.000  0.000  0.002  0.000  0.000  0.000  0.000  0.975  0.000  0.977
 
band     6 # energy    3.63105589 # occ.  1.00000000
 
ion      s     py     pz     px    dxy    dyz    dz2    dxz  x2-y2    tot
    1  0.000  0.000  0.000  0.000  0.000  0.489  0.000  0.000  0.000  0.489
    2  0.000  0.000  0.000  0.000  0.000  0.489  0.000  0.000  0.000  0.489
tot    0.000  0.000  0.000  0.000  0.000  0.978  0.000  0.000  0.000  0.978
 
band     7 # energy    4.68342938 # occ.  1.00000000
 
ion      s     py     pz     px    dxy    dyz    dz2    dxz  x2-y2    tot
    1  0.000  0.000  0.000  0.000  0.000  0.000  0.362  0.000  0.121  0.483
    2  0.000  0.000  0.000  0.000  0.000  0.000  0.362  0.000  0.121  0.483
tot    0.000  0.000  0.000  0.000  0.000  0.000  0.725  0.000  0.242  0.966
 
band     8 # energy    4.82711927 # occ.  1.00000000
 
ion      s     py     pz     px    dxy    dyz    dz2    dxz  x2-y2    tot
    1  0.000  0.000  0.000  0.000  0.000  0.000  0.121  0.000  0.364  0.486
    2  0.000  0.000  0.000  0.000  0.000  0.000  0.121  0.000  0.364  0.486
tot    0.000  0.000  0.000  0.000  0.000  0.000  0.243  0.000  0.729  0.972
 
band     9 # energy    5.81440138 # occ.  0.76005030
 
ion      s     py     pz     px    dxy    dyz    dz2    dxz  x2-y2    tot
    1  0.000  0.005  0.000  0.000  0.486  0.000  0.000  0.000  0.000  0.491
    2  0.000  0.005  0.000  0.000  0.486  0.000  0.000  0.000  0.000  0.491
tot    0.000  0.010  0.000  0.000  0.972  0.000  0.000  0.000  0.000  0.982
 
band    10 # energy    5.81440292 # occ.  0.76004483
 
ion      s     py     pz     px    dxy    dyz    dz2    dxz  x2-y2    tot
    1  0.000  0.000  0.005  0.000  0.000  0.000  0.000  0.486  0.000  0.491
    2  0.000  0.000  0.005  0.000  0.000  0.000  0.000  0.486  0.000  0.491
tot    0.000  0.000  0.010  0.000  0.000  0.000  0.000  0.972  0.000  0.982
 
band    11 # energy    5.93577858 # occ.  0.27210731
 
ion      s     py     pz     px    dxy    dyz    dz2    dxz  x2-y2    tot
    1  0.000  0.000  0.000  0.000  0.000  0.493  0.000  0.000  0.000  0.493
    2  0.000  0.000  0.000  0.000  0.000  0.493  0.000  0.000  0.000  0.493
tot    0.000  0.000  0.000  0.000  0.000  0.986  0.000  0.000  0.000  0.986
 
band    12 # energy   14.36642334 # occ.  0.00000000
 
ion      s     py     pz     px    dxy    dyz    dz2    dxz  x2-y2    tot
    1  0.033  0.000  0.000  0.309  0.000  0.000  0.013  0.000  0.040  0.395
    2  0.033  0.000  0.000  0.309  0.000  0.000  0.013  0.000  0.040  0.395
tot    0.066  0.000  0.000  0.618  0.000  0.000  0.026  0.000  0.079  0.789
 
band    13 # energy   16.27356460 # occ.  0.00000000
 
ion      s     py     pz     px    dxy    dyz    dz2    dxz  x2-y2    tot
    1  0.000  0.367  0.000  0.000  0.017  0.000  0.000  0.000  0.000  0.384
    2  0.000  0.367  0.000  0.000  0.017  0.000  0.000  0.000  0.000  0.384
tot    0.000  0.734  0.000  0.000  0.034  0.000  0.000  0.000  0.000  0.767
 
band    14 # energy   16.27356478 # occ.  0.00000000
 
ion      s     py     pz     px    dxy    dyz    dz2    dxz  x2-y2    tot
    1  0.000  0.000  0.367  0.000  0.000  0.000  0.000  0.017  0.000  0.384
    2  0.000  0.000  0.367  0.000  0.000  0.000  0.000  0.017  0.000  0.384
tot    0.000  0.000  0.734  0.000  0.000  0.000  0.000  0.034  0.000  0.767
 
band    15 # energy   21.63928960 # occ.  0.00000000
 
ion      s     py     pz     px    dxy    dyz    dz2    dxz  x2-y2    tot
    1  0.000  0.000  0.000  0.000  0.000  0.000  0.354  0.000  0.118  0.472
    2  0.000  0.000  0.000  0.000  0.000  0.000  0.354  0.000  0.118  0.472
tot    0.000  0.000  0.000  0.000  0.000  0.000  0.707  0.000  0.236  0.943
 
band    16 # energy   22.60181270 # occ.  0.00000000
 
ion      s     py     pz     px    dxy    dyz    dz2    dxz  x2-y2    tot
    1  0.023  0.000  0.000  0.016  0.000  0.000  0.102  0.000  0.305  0.445
    2  0.023  0.000  0.000  0.016  0.000  0.000  0.102  0.000  0.305  0.445
tot    0.046  0.000  0.000  0.032  0.000  0.000  0.203  0.000  0.609  0.890
 
band    17 # energy   27.52608620 # occ.  0.00000000
 
ion      s     py     pz     px    dxy    dyz    dz2    dxz  x2-y2    tot
    1  0.333  0.000  0.000  0.048  0.000  0.000  0.003  0.000  0.010  0.394
    2  0.333  0.000  0.000  0.048  0.000  0.000  0.003  0.000  0.010  0.394
tot    0.666  0.000  0.000  0.096  0.000  0.000  0.007  0.000  0.020  0.789
 
band    18 # energy   29.60189401 # occ.  0.00000000
 
ion      s     py     pz     px    dxy    dyz    dz2    dxz  x2-y2    tot
    1  0.000  0.000  0.000  0.000  0.000  0.000  0.082  0.000  0.027  0.110
    2  0.000  0.000  0.000  0.000  0.000  0.000  0.082  0.000  0.027  0.110
tot    0.000  0.000  0.000  0.000  0.000  0.000  0.165  0.000  0.055  0.220
 
band    19 # energy   30.70409414 # occ.  0.00000000
 
ion      s     py     pz     px    dxy    dyz    dz2    dxz  x2-y2    tot
    1  0.000  0.006  0.000  0.000  0.091  0.000  0.000  0.000  0.000  0.097
    2  0.000  0.006  0.000  0.000  0.091  0.000  0.000  0.000  0.000  0.097
tot    0.000  0.012  0.000  0.000  0.182  0.000  0.000  0.000  0.000  0.194
 
band    20 # energy   30.70409433 # occ.  0.00000000
 
ion      s     py     pz     px    dxy    dyz    dz2    dxz  x2-y2    tot
    1  0.000  0.000  0.006  0.000  0.000  0.000  0.000  0.091  0.000  0.097
    2  0.000  0.000  0.006  0.000  0.000  0.000  0.000  0.091  0.000  0.097
tot    0.000  0.000  0.012  0.000  0.000  0.000  0.000  0.182  0.000  0.194
 

 k-point     4 :    0.15789474 0.00000000 0.00000000     weight = 0.00087476

band     1 # energy   -2.07591185 # occ.  1.00000000
 
ion      s     py     pz     px    dxy    dyz    dz2    dxz  x2-y2    tot
    1  0.349  0.000  0.000  0.018  0.000  0.000  0.000  0.000  0.001  0.368
    2  0.349  0.000  0.000  0.018  0.000  0.000  0.000  0.000  0.001  0.368
tot    0.698  0.000  0.000  0.036  0.000  0.000  0.000  0.000  0.001  0.736
 
band     2 # energy    1.21884655 # occ.  1.00000000
 
ion      s     py     pz     px    dxy    dyz    dz2    dxz  x2-y2    tot
    1  0.001  0.000  0.000  0.014  0.000  0.000  0.106  0.000  0.317  0.437
    2  0.001  0.000  0.000  0.014  0.000  0.000  0.106  0.000  0.317  0.437
tot    0.002  0.000  0.000  0.027  0.000  0.000  0.211  0.000  0.634  0.874
 
band     3 # energy    1.22253802 # occ.  1.00000000
 
ion      s     py     pz     px    dxy    dyz    dz2    dxz  x2-y2    tot
    1  0.000  0.000  0.000  0.000  0.000  0.000  0.329  0.000  0.110  0.439
    2  0.000  0.000  0.000  0.000  0.000  0.000  0.329  0.000  0.110  0.439
tot    0.000  0.000  0.000  0.000  0.000  0.000  0.659  0.000  0.220  0.879
 
band     4 # energy    3.56897084 # occ.  1.00000000
 
ion      s     py     pz     px    dxy    dyz    dz2    dxz  x2-y2    tot
    1  0.000  0.002  0.000  0.000  0.486  0.000  0.000  0.000  0.000  0.487
    2  0.000  0.002  0.000  0.000  0.486  0.000  0.000  0.000  0.000  0.487
tot    0.000  0.004  0.000  0.000  0.971  0.000  0.000  0.000  0.000  0.975
 
band     5 # energy    3.56897171 # occ.  1.00000000
 
ion      s     py     pz     px    dxy    dyz    dz2    dxz  x2-y2    tot
    1  0.000  0.000  0.002  0.000  0.000  0.000  0.000  0.486  0.000  0.487
    2  0.000  0.000  0.002  0.000  0.000  0.000  0.000  0.486  0.000  0.487
tot    0.000  0.000  0.004  0.000  0.000  0.000  0.000  0.971  0.000  0.975
 
band     6 # energy    3.70865225 # occ.  1.00000000
 
ion      s     py     pz     px    dxy    dyz    dz2    dxz  x2-y2    tot
    1  0.000  0.000  0.000  0.000  0.000  0.489  0.000  0.000  0.000  0.489
    2  0.000  0.000  0.000  0.000  0.000  0.489  0.000  0.000  0.000  0.489
tot    0.000  0.000  0.000  0.000  0.000  0.977  0.000  0.000  0.000  0.977
 
band     7 # energy    4.55686881 # occ.  1.00000000
 
ion      s     py     pz     px    dxy    dyz    dz2    dxz  x2-y2    tot
    1  0.000  0.000  0.000  0.000  0.000  0.000  0.360  0.000  0.120  0.480
    2  0.000  0.000  0.000  0.000  0.000  0.000  0.360  0.000  0.120  0.480
tot    0.000  0.000  0.000  0.000  0.000  0.000  0.721  0.000  0.240  0.961
 
band     8 # energy    4.87650768 # occ.  1.00000000
 
ion      s     py     pz     px    dxy    dyz    dz2    dxz  x2-y2    tot
    1  0.001  0.000  0.000  0.000  0.000  0.000  0.122  0.000  0.365  0.487
    2  0.001  0.000  0.000  0.000  0.000  0.000  0.122  0.000  0.365  0.487
tot    0.001  0.000  0.000  0.000  0.000  0.000  0.243  0.000  0.729  0.974
 
band     9 # energy    5.60327855 # occ.  1.03243530
 
ion      s     py     pz     px    dxy    dyz    dz2    dxz  x2-y2    tot
    1  0.000  0.009  0.000  0.000  0.479  0.000  0.000  0.000  0.000  0.488
    2  0.000  0.009  0.000  0.000  0.479  0.000  0.000  0.000  0.000  0.488
tot    0.000  0.019  0.000  0.000  0.957  0.000  0.000  0.000  0.000  0.976
 
band    10 # energy    5.60328002 # occ.  1.03243555
 
ion      s     py     pz     px    dxy    dyz    dz2    dxz  x2-y2    tot
    1  0.000  0.000  0.009  0.000  0.000  0.000  0.000  0.479  0.000  0.488
    2  0.000  0.000  0.009  0.000  0.000  0.000  0.000  0.479  0.000  0.488
tot    0.000  0.000  0.019  0.000  0.000  0.000  0.000  0.957  0.000  0.976
 
band    11 # energy    5.85183237 # occ.  0.61596050
 
ion      s     py     pz     px    dxy    dyz    dz2    dxz  x2-y2    tot
    1  0.000  0.000  0.000  0.000  0.000  0.492  0.000  0.000  0.000  0.492
    2  0.000  0.000  0.000  0.000  0.000  0.492  0.000  0.000  0.000  0.492
tot    0.000  0.000  0.000  0.000  0.000  0.985  0.000  0.000  0.000  0.985
 
band    12 # energy   13.08126514 # occ.  0.00000000
 
ion      s     py     pz     px    dxy    dyz    dz2    dxz  x2-y2    tot
    1  0.057  0.000  0.000  0.270  0.000  0.000  0.019  0.000  0.058  0.403
    2  0.057  0.000  0.000  0.270  0.000  0.000  0.019  0.000  0.058  0.403
tot    0.113  0.000  0.000  0.539  0.000  0.000  0.039  0.000  0.116  0.807
 
band    13 # energy   16.78621484 # occ.  0.00000000
 
ion      s     py     pz     px    dxy    dyz    dz2    dxz  x2-y2    tot
    1  0.000  0.356  0.000  0.000  0.035  0.000  0.000  0.000  0.000  0.391
    2  0.000  0.356  0.000  0.000  0.035  0.000  0.000  0.000  0.000  0.391
tot    0.000  0.712  0.000  0.000  0.070  0.000  0.000  0.000  0.000  0.783
 
band    14 # energy   16.78621512 # occ.  0.00000000
 
ion      s     py     pz     px    dxy    dyz    dz2    dxz  x2-y2    tot
    1  0.000  0.000  0.356  0.000  0.000  0.000  0.000  0.035  0.000  0.391
    2  0.000  0.000  0.356  0.000  0.000  0.000  0.000  0.035  0.000  0.391
tot    0.000  0.000  0.712  0.000  0.000  0.000  0.000  0.070  0.000  0.783
 
band    15 # energy   21.72492162 # occ.  0.00000000
 
ion      s     py     pz     px    dxy    dyz    dz2    dxz  x2-y2    tot
    1  0.000  0.000  0.000  0.000  0.000  0.000  0.349  0.000  0.116  0.466
    2  0.000  0.000  0.000  0.000  0.000  0.000  0.349  0.000  0.116  0.466
tot    0.000  0.000  0.000  0.000  0.000  0.000  0.698  0.000  0.233  0.931
 
band    16 # energy   23.23394231 # occ.  0.00000000
 
ion      s     py     pz     px    dxy    dyz    dz2    dxz  x2-y2    tot
    1  0.068  0.000  0.000  0.006  0.000  0.000  0.086  0.000  0.257  0.417
    2  0.068  0.000  0.000  0.006  0.000  0.000  0.086  0.000  0.257  0.417
tot    0.136  0.000  0.000  0.012  0.000  0.000  0.172  0.000  0.515  0.834
 
band    17 # energy   28.54779372 # occ.  0.00000000
 
ion      s     py     pz     px    dxy    dyz    dz2    dxz  x2-y2    tot
    1  0.000  0.000  0.000  0.000  0.000  0.000  0.123  0.000  0.041  0.164
    2  0.000  0.000  0.000  0.000  0.000  0.000  0.123  0.000  0.041  0.164
tot    0.000  0.000  0.000  0.000  0.000  0.000  0.246  0.000  0.082  0.327
 
band    18 # energy   28.61955876 # occ.  0.00000000
 
ion      s     py     pz     px    dxy    dyz    dz2    dxz  x2-y2    tot
    1  0.261  0.000  0.000  0.092  0.000  0.000  0.012  0.000  0.037  0.402
    2  0.261  0.000  0.000  0.092  0.000  0.000  0.012  0.000  0.037  0.402
tot    0.522  0.000  0.000  0.184  0.000  0.000  0.024  0.000  0.073  0.804
 
band    19 # energy   30.25884360 # occ.  0.00000000
 
ion      s     py     pz     px    dxy    dyz    dz2    dxz  x2-y2    tot
    1  0.000  0.029  0.000  0.000  0.188  0.000  0.000  0.000  0.000  0.217
    2  0.000  0.029  0.000  0.000  0.188  0.000  0.000  0.000  0.000  0.217
tot    0.000  0.057  0.000  0.000  0.377  0.000  0.000  0.000  0.000  0.434
 
band    20 # energy   30.25884402 # occ.  0.00000000
 
ion      s     py     pz     px    dxy    dyz    dz2    dxz  x2-y2    tot
    1  0.000  0.000  0.029  0.000  0.000  0.000  0.000  0.188  0.000  0.217
    2  0.000  0.000  0.029  0.000  0.000  0.000  0.000  0.188  0.000  0.217
tot    0.000  0.000  0.057  0.000  0.000  0.000  0.000  0.377  0.000  0.434
 

 k-point     5 :    0.21052632-0.00000000 0.00000000     weight = 0.00087476

band     1 # energy   -1.69182901 # occ.  1.00000000
 
ion      s     py     pz     px    dxy    dyz    dz2    dxz  x2-y2    tot
    1  0.334  0.000  0.000  0.032  0.000  0.000  0.001  0.000  0.002  0.369
    2  0.334  0.000  0.000  0.032  0.000  0.000  0.001  0.000  0.002  0.369
tot    0.669  0.000  0.000  0.063  0.000  0.000  0.001  0.000  0.004  0.737
 
band     2 # energy    1.35850454 # occ.  1.00000000
 
ion      s     py     pz     px    dxy    dyz    dz2    dxz  x2-y2    tot
    1  0.003  0.000  0.000  0.024  0.000  0.000  0.102  0.000  0.306  0.436
    2  0.003  0.000  0.000  0.024  0.000  0.000  0.102  0.000  0.306  0.436
tot    0.007  0.000  0.000  0.048  0.000  0.000  0.204  0.000  0.613  0.872
 
band     3 # energy    1.38809656 # occ.  1.00000000
 