<?xml version="1.0" encoding="ISO-8859-1"?>
<modeling>
 <generator>
  <i name="program" type="string">vasp </i>
  <i name="version" type="string">6.2.0  </i>
  <i name="subversion" type="string">18Jan21 (build Aug 12 2022 13:00:08) complex                          parallel </i>
  <i name="platform" type="string">LinuxIFC </i>
  <i name="date" type="string">2024 11 04 </i>
  <i name="time" type="string">04:22:18 </i>
 </generator>
 <incar>
  <i type="int" name="ISTART">     0</i>
  <i type="string" name="PREC">Accurate      (Accurate strictly avoids</i>
  <i type="logical" name="ADDGRID"> T  </i>
  <i type="int" name="ISPIN">     2</i>
  <i type="int" name="NELM">    90</i>
  <i type="int" name="NELMIN">     6</i>
  <i type="int" name="IBRION">     2</i>
  <i name="EDIFF">      0.00000100</i>
  <i name="EDIFFG">     -0.00200000</i>
  <i type="int" name="NSW">   100</i>
  <i type="int" name="ISIF">     3</i>
  <i type="int" name="ISYM">     2</i>
  <i name="ENCUT">    350.00000000</i>
  <v name="MAGMOM">      5.00000000      5.00000000</v>
  <i type="logical" name="LREAL"> F  </i>
  <i type="int" name="ISMEAR">     1</i>
  <i name="SIGMA">      0.20000000</i>
  <i name="KSPACING">      0.12000000</i>
  <i type="int" name="LMAXMIX">     4</i>
  <i type="int" name="LORBIT">    11</i>
  <i type="logical" name="LASPH"> T  </i>
  <i type="logical" name="GGA_COMPAT"> F  </i>
  <i type="int" name="VOSKOWN">     1</i>
 </incar>
 <primitive_cell>
  <structure name="primitive_cell" >
   <crystal>
    <varray name="basis" >
     <v>       1.43151775       1.43151775      -1.43151775 </v>
     <v>      -1.43151775       1.43151775       1.43151775 </v>
     <v>       1.43151775      -1.43151775       1.43151775 </v>
    </varray>
    <i name="volume">     11.73411129 </i>
    <varray name="rec_basis" >
     <v>       0.34927964       0.34927964       0.00000000 </v>
     <v>       0.00000000       0.34927964       0.34927964 </v>
     <v>       0.34927964      -0.00000000       0.34927964 </v>
    </varray>
   </crystal>
   <varray name="positions" >
    <v>       0.00000000       0.00000000       0.00000000 </v>
   </varray>
  </structure>
  <varray name="primitive_index" >
   <v type="int" >        1 </v>
  </varray>
 </primitive_cell>
 <kpoints>
  <generation param="Gamma">
   <v type="int" name="divisions">      19       19       19 </v>
   <v name="usershift">      0.00000000       0.00000000       0.00000000 </v>
   <v name="genvec1">      0.05263158       0.00000000       0.00000000 </v>
   <v name="genvec2">      0.00000000       0.05263158       0.00000000 </v>
   <v name="genvec3">     -0.00000000       0.00000000       0.05263158 </v>
   <v name="shift">      0.00000000       0.00000000       0.00000000 </v>
  </generation>
  <varray name="kpointlist" >
   <v>       0.00000000       0.00000000       0.00000000 </v>
   <v>       0.05263158       0.00000000       0.00000000 </v>
   <v>       0.10526316       0.00000000       0.00000000 </v>
   <v>       0.15789474       0.00000000       0.00000000 </v>
   <v>       0.21052632      -0.00000000       0.00000000 </v>
   <v>       0.26315789       0.00000000       0.00000000 </v>
   <v>       0.31578947       0.00000000       0.00000000 </v>
   <v>       0.36842105       0.00000000       0.00000000 </v>
   <v>       0.42105263      -0.00000000       0.00000000 </v>
   <v>       0.47368421       0.00000000       0.00000000 </v>
   <v>       0.05263158       0.05263158       0.00000000 </v>
   <v>       0.10526316       0.05263158       0.00000000 </v>
   <v>       0.15789474       0.05263158       0.00000000 </v>
   <v>       0.21052632       0.05263158       0.00000000 </v>
   <v>       0.26315789       0.05263158       0.00000000 </v>
   <v>       0.31578947       0.05263158       0.00000000 </v>
   <v>       0.36842105       0.05263158       0.00000000 </v>
   <v>       0.42105263       0.05263158       0.00000000 </v>
   <v>       0.47368421       0.05263158       0.00000000 </v>
   <v>       0.10526316       0.10526316       0.00000000 </v>
   <v>       0.15789474       0.10526316       0.00000000 </v>
   <v>       0.21052632       0.10526316       0.00000000 </v>
   <v>       0.26315789       0.10526316       0.00000000 </v>
   <v>       0.31578947       0.10526316       0.00000000 </v>
   <v>       0.36842105       0.10526316       0.00000000 </v>
   <v>       0.42105263       0.10526316       0.00000000 </v>
   <v>       0.47368421       0.10526316       0.00000000 </v>
   <v>       0.15789474       0.15789474       0.00000000 </v>
   <v>       0.21052632       0.15789474       0.00000000 </v>
   <v>       0.26315789       0.15789474       0.00000000 </v>
   <v>       0.31578947       0.15789474       0.00000000 </v>
   <v>       0.36842105       0.15789474       0.00000000 </v>
   <v>       0.42105263       0.15789474       0.00000000 </v>
   <v>       0.47368421       0.15789474       0.00000000 </v>
   <v>       0.21052632       0.21052632       0.00000000 </v>
   <v>       0.26315789       0.21052632       0.00000000 </v>
   <v>       0.31578947       0.21052632       0.00000000 </v>
   <v>       0.36842105       0.21052632       0.00000000 </v>
   <v>       0.42105263       0.21052632       0.00000000 </v>
   <v>       0.47368421       0.21052632       0.00000000 </v>
   <v>       0.26315789       0.26315789       0.00000000 </v>
   <v>       0.31578947       0.26315789       0.00000000 </v>
   <v>       0.36842105       0.26315789       0.00000000 </v>
   <v>       0.42105263       0.26315789       0.00000000 </v>
   <v>       0.47368421       0.26315789       0.00000000 </v>
   <v>       0.31578947       0.31578947       0.00000000 </v>
   <v>       0.36842105       0.31578947       0.00000000 </v>
   <v>       0.42105263       0.31578947       0.00000000 </v>
   <v>       0.47368421       0.31578947       0.00000000 </v>
   <v>       0.36842105       0.36842105       0.00000000 </v>
   <v>       0.42105263       0.36842105       0.00000000 </v>
   <v>       0.47368421       0.36842105       0.00000000 </v>
   <v>       0.42105263       0.42105263       0.00000000 </v>
   <v>       0.47368421       0.42105263       0.00000000 </v>
   <v>       0.47368421       0.47368421       0.00000000 </v>
   <v>       0.05263158       0.05263158       0.05263158 </v>
   <v>       0.10526316       0.05263158       0.05263158 </v>
   <v>       0.15789474       0.05263158       0.05263158 </v>
   <v>       0.21052632       0.05263158       0.05263158 </v>
   <v>       0.26315789       0.05263158       0.05263158 </v>
   <v>       0.31578947       0.05263158       0.05263158 </v>
   <v>       0.36842105       0.05263158       0.05263158 </v>
   <v>       0.42105263       0.05263158       0.05263158 </v>
   <v>       0.47368421       0.05263158       0.05263158 </v>
   <v>       0.10526316       0.10526316       0.05263158 </v>
   <v>       0.15789474       0.10526316       0.05263158 </v>
   <v>       0.21052632       0.10526316       0.05263158 </v>
   <v>       0.26315789       0.10526316       0.05263158 </v>
   <v>       0.31578947       0.10526316       0.05263158 </v>
   <v>       0.36842105       0.10526316       0.05263158 </v>
   <v>       0.42105263       0.10526316       0.05263158 </v>
   <v>       0.47368421       0.10526316       0.05263158 </v>
   <v>       0.15789474       0.15789474       0.05263158 </v>
   <v>       0.21052632       0.15789474       0.05263158 </v>
   <v>       0.26315789       0.15789474       0.05263158 </v>
   <v>       0.31578947       0.15789474       0.05263158 </v>
   <v>       0.36842105       0.15789474       0.05263158 </v>
   <v>       0.42105263       0.15789474       0.05263158 </v>
   <v>       0.47368421       0.15789474       0.05263158 </v>
   <v>       0.21052632       0.21052632       0.05263158 </v>
   <v>       0.26315789       0.21052632       0.05263158 </v>
   <v>       0.31578947       0.21052632       0.05263158 </v>
   <v>       0.36842105       0.21052632       0.05263158 </v>
   <v>       0.42105263       0.21052632       0.05263158 </v>
   <v>       0.47368421       0.21052632       0.05263158 </v>
   <v>       0.26315789       0.26315789       0.05263158 </v>
   <v>       0.31578947       0.26315789       0.05263158 </v>
   <v>       0.36842105       0.26315789       0.05263158 </v>
   <v>       0.42105263       0.26315789       0.05263158 </v>
   <v>       0.47368421       0.26315789       0.05263158 </v>
   <v>       0.31578947       0.31578947       0.05263158 </v>
   <v>       0.36842105       0.31578947       0.05263158 </v>
   <v>       0.42105263       0.31578947       0.05263158 </v>
   <v>       0.47368421       0.31578947       0.05263158 </v>
   <v>       0.36842105       0.36842105       0.05263158 </v>
   <v>       0.42105263       0.36842105       0.05263158 </v>
   <v>       0.47368421       0.36842105       0.05263158 </v>
   <v>       0.42105263       0.42105263       0.05263158 </v>
   <v>       0.47368421       0.42105263       0.05263158 </v>
   <v>       0.47368421       0.47368421       0.05263158 </v>
   <v>       0.10526316       0.10526316       0.10526316 </v>
   <v>       0.15789474       0.10526316       0.10526316 </v>
   <v>       0.21052632       0.10526316       0.10526316 </v>
   <v>       0.26315789       0.10526316       0.10526316 </v>
   <v>       0.31578947       0.10526316       0.10526316 </v>
   <v>       0.36842105       0.10526316       0.10526316 </v>
   <v>       0.42105263       0.10526316       0.10526316 </v>
   <v>       0.47368421       0.10526316       0.10526316 </v>
   <v>       0.15789474       0.15789474       0.10526316 </v>
   <v>       0.21052632       0.15789474       0.10526316 </v>
   <v>       0.26315789       0.15789474       0.10526316 </v>
   <v>       0.31578947       0.15789474       0.10526316 </v>
   <v>       0.36842105       0.15789474       0.10526316 </v>
   <v>       0.42105263       0.15789474       0.10526316 </v>
   <v>       0.47368421       0.15789474       0.10526316 </v>
   <v>       0.21052632       0.21052632       0.10526316 </v>
   <v>       0.26315789       0.21052632       0.10526316 </v>
   <v>       0.31578947       0.21052632       0.10526316 </v>
   <v>       0.36842105       0.21052632       0.10526316 </v>
   <v>       0.42105263       0.21052632       0.10526316 </v>
   <v>       0.47368421       0.21052632       0.10526316 </v>
   <v>       0.26315789       0.26315789       0.10526316 </v>
   <v>       0.31578947       0.26315789       0.10526316 </v>
   <v>       0.36842105       0.26315789       0.10526316 </v>
   <v>       0.42105263       0.26315789       0.10526316 </v>
   <v>       0.47368421       0.26315789       0.10526316 </v>
   <v>       0.31578947       0.31578947       0.10526316 </v>
   <v>       0.36842105       0.31578947       0.10526316 </v>
   <v>       0.42105263       0.31578947       0.10526316 </v>
   <v>       0.47368421       0.31578947       0.10526316 </v>
   <v>       0.36842105       0.36842105       0.10526316 </v>
   <v>       0.42105263       0.36842105       0.10526316 </v>
   <v>       0.47368421       0.36842105       0.10526316 </v>
   <v>       0.42105263       0.42105263       0.10526316 </v>
   <v>       0.47368421       0.42105263       0.10526316 </v>
   <v>       0.47368421       0.47368421       0.10526316 </v>
   <v>       0.15789474       0.15789474       0.15789474 </v>
   <v>       0.21052632       0.15789474       0.15789474 </v>
   <v>       0.26315789       0.15789474       0.15789474 </v>
   <v>       0.31578947       0.15789474       0.15789474 </v>
   <v>       0.36842105       0.15789474       0.15789474 </v>
   <v>       0.42105263       0.15789474       0.15789474 </v>
   <v>       0.47368421       0.15789474       0.15789474 </v>
   <v>       0.21052632       0.21052632       0.15789474 </v>
   <v>       0.26315789       0.21052632       0.15789474 </v>
   <v>       0.31578947       0.21052632       0.15789474 </v>
   <v>       0.36842105       0.21052632       0.15789474 </v>
   <v>       0.42105263       0.21052632       0.15789474 </v>
   <v>       0.47368421       0.21052632       0.15789474 </v>
   <v>       0.26315789       0.26315789       0.15789474 </v>
   <v>       0.31578947       0.26315789       0.15789474 </v>
   <v>       0.36842105       0.26315789       0.15789474 </v>
   <v>       0.42105263       0.26315789       0.15789474 </v>
   <v>       0.47368421       0.26315789       0.15789474 </v>
   <v>       0.31578947       0.31578947       0.15789474 </v>
   <v>       0.36842105       0.31578947       0.15789474 </v>
   <v>       0.42105263       0.31578947       0.15789474 </v>
   <v>       0.47368421       0.31578947       0.15789474 </v>
   <v>       0.36842105       0.36842105       0.15789474 </v>
   <v>       0.42105263       0.36842105       0.15789474 </v>
   <v>       0.47368421       0.36842105       0.15789474 </v>
   <v>       0.42105263       0.42105263       0.15789474 </v>
   <v>       0.47368421       0.42105263       0.15789474 </v>
   <v>       0.47368421       0.47368421       0.15789474 </v>
   <v>       0.21052632       0.21052632       0.21052632 </v>
   <v>       0.26315789       0.21052632       0.21052632 </v>
   <v>       0.31578947       0.21052632       0.21052632 </v>
   <v>       0.36842105       0.21052632       0.21052632 </v>
   <v>       0.42105263       0.21052632       0.21052632 </v>
   <v>       0.47368421       0.21052632       0.21052632 </v>
   <v>       0.26315789       0.26315789       0.21052632 </v>
   <v>       0.31578947       0.26315789       0.21052632 </v>
   <v>       0.36842105       0.26315789       0.21052632 </v>
   <v>       0.42105263       0.26315789       0.21052632 </v>
   <v>       0.47368421       0.26315789       0.21052632 </v>
   <v>       0.31578947       0.31578947       0.21052632 </v>
   <v>       0.36842105       0.31578947       0.21052632 </v>
   <v>       0.42105263       0.31578947       0.21052632 </v>
   <v>       0.47368421       0.31578947       0.21052632 </v>
   <v>       0.36842105       0.36842105       0.21052632 </v>
   <v>       0.42105263       0.36842105       0.21052632 </v>
   <v>       0.47368421       0.36842105       0.21052632 </v>
   <v>       0.42105263       0.42105263       0.21052632 </v>
   <v>       0.47368421       0.42105263       0.21052632 </v>
   <v>       0.47368421       0.47368421       0.21052632 </v>
   <v>       0.26315789       0.26315789       0.26315789 </v>
   <v>       0.31578947       0.26315789       0.26315789 </v>
   <v>       0.36842105       0.26315789       0.26315789 </v>
   <v>       0.42105263       0.26315789       0.26315789 </v>
   <v>       0.47368421       0.26315789       0.26315789 </v>
   <v>       0.31578947       0.31578947       0.26315789 </v>
   <v>       0.36842105       0.31578947       0.26315789 </v>
   <v>       0.42105263       0.31578947       0.26315789 </v>
   <v>       0.47368421       0.31578947       0.26315789 </v>
   <v>       0.36842105       0.36842105       0.26315789 </v>
   <v>       0.42105263       0.36842105       0.26315789 </v>
   <v>       0.47368421       0.36842105       0.26315789 </v>
   <v>       0.42105263       0.42105263       0.26315789 </v>
   <v>       0.47368421       0.42105263       0.26315789 </v>
   <v>       0.47368421       0.47368421       0.26315789 </v>
   <v>       0.31578947       0.31578947       0.31578947 </v>
   <v>       0.36842105       0.31578947       0.31578947 </v>
   <v>       0.42105263       0.31578947       0.31578947 </v>
   <v>       0.47368421       0.31578947       0.31578947 </v>
   <v>       0.36842105       0.36842105       0.31578947 </v>
   <v>       0.42105263       0.36842105       0.31578947 </v>
   <v>       0.47368421       0.36842105       0.31578947 </v>
   <v>       0.42105263       0.42105263       0.31578947 </v>
   <v>       0.47368421       0.42105263       0.31578947 </v>
   <v>       0.47368421       0.47368421       0.31578947 </v>
   <v>       0.36842105       0.36842105       0.36842105 </v>
   <v>       0.42105263       0.36842105       0.36842105 </v>
   <v>       0.47368421       0.36842105       0.36842105 </v>
   <v>       0.42105263       0.42105263       0.36842105 </v>
   <v>       0.47368421       0.42105263       0.36842105 </v>
   <v>       0.47368421       0.47368421       0.36842105 </v>
   <v>       0.42105263       0.42105263       0.42105263 </v>
   <v>       0.47368421       0.42105263       0.42105263 </v>
   <v>       0.47368421       0.47368421       0.42105263 </v>
   <v>       0.47368421       0.47368421       0.47368421 </v>
  </varray>
  <varray name="weights" >
   <v>       0.00014579 </v>
   <v>       0.00087476 </v>
   <v>       0.00087476 </v>
   <v>       0.00087476 </v>
   <v>       0.00087476 </v>
   <v>       0.00087476 </v>
   <v>       0.00087476 </v>
   <v>       0.00087476 </v>
   <v>       0.00087476 </v>
   <v>       0.00087476 </v>
   <v>       0.00174953 </v>
   <v>       0.00349905 </v>
   <v>       0.00349905 </v>
   <v>       0.00349905 </v>
   <v>       0.00349905 </v>
   <v>       0.00349905 </v>
   <v>       0.00349905 </v>
   <v>       0.00349905 </v>
   <v>       0.00349905 </v>
   <v>       0.00174953 </v>
   <v>       0.00349905 </v>
   <v>       0.00349905 </v>
   <v>       0.00349905 </v>
   <v>       0.00349905 </v>
   <v>       0.00349905 </v>
   <v>       0.00349905 </v>
   <v>       0.00349905 </v>
   <v>       0.00174953 </v>
   <v>       0.00349905 </v>
   <v>       0.00349905 </v>
   <v>       0.00349905 </v>
   <v>       0.00349905 </v>
   <v>       0.00349905 </v>
   <v>       0.00349905 </v>
   <v>       0.00174953 </v>
   <v>       0.00349905 </v>
   <v>       0.00349905 </v>
   <v>       0.00349905 </v>
   <v>       0.00349905 </v>
   <v>       0.00349905 </v>
   <v>       0.00174953 </v>
   <v>       0.00349905 </v>
   <v>       0.00349905 </v>
   <v>       0.00349905 </v>
   <v>       0.00349905 </v>
   <v>       0.00174953 </v>
   <v>       0.00349905 </v>
   <v>       0.00349905 </v>
   <v>       0.00349905 </v>
   <v>       0.00174953 </v>
   <v>       0.00349905 </v>
   <v>       0.00349905 </v>
   <v>       0.00174953 </v>
   <v>       0.00349905 </v>
   <v>       0.00174953 </v>
   <v>       0.00116635 </v>
   <v>       0.00349905 </v>
   <v>       0.00349905 </v>
   <v>       0.00349905 </v>
   <v>       0.00349905 </v>
   <v>       0.00349905 </v>
   <v>       0.00349905 </v>
   <v>       0.00349905 </v>
   <v>       0.00349905 </v>
   <v>       0.00349905 </v>
   <v>       0.00699810 </v>
   <v>       0.00699810 </v>
   <v>       0.00699810 </v>
   <v>       0.00699810 </v>
   <v>       0.00699810 </v>
   <v>       0.00699810 </v>
   <v>       0.00699810 </v>
   <v>       0.00349905 </v>
   <v>       0.00699810 </v>
   <v>       0.00699810 </v>
   <v>       0.00699810 </v>
   <v>       0.00699810 </v>
   <v>       0.00699810 </v>
   <v>       0.00699810 </v>
   <v>       0.00349905 </v>
   <v>       0.00699810 </v>
   <v>       0.00699810 </v>
   <v>       0.00699810 </v>
   <v>       0.00699810 </v>
   <v>       0.00699810 </v>
   <v>       0.00349905 </v>
   <v>       0.00699810 </v>
   <v>       0.00699810 </v>
   <v>       0.00699810 </v>
   <v>       0.00699810 </v>
   <v>       0.00349905 </v>
   <v>       0.00699810 </v>
   <v>       0.00699810 </v>
   <v>       0.00699810 </v>
   <v>       0.00349905 </v>
   <v>       0.00699810 </v>
   <v>       0.00699810 </v>
   <v>       0.00349905 </v>
   <v>       0.00699810 </v>
   <v>       0.00349905 </v>
   <v>       0.00116635 </v>
   <v>       0.00349905 </v>
   <v>       0.00349905 </v>
   <v>       0.00349905 </v>
   <v>       0.00349905 </v>
   <v>       0.00349905 </v>
   <v>       0.00349905 </v>
   <v>       0.00349905 </v>
   <v>       0.00349905 </v>
   <v>       0.00699810 </v>
   <v>       0.00699810 </v>
   <v>       0.00699810 </v>
   <v>       0.00699810 </v>
   <v>       0.00699810 </v>
   <v>       0.00699810 </v>
   <v>       0.00349905 </v>
   <v>       0.00699810 </v>
   <v>       0.00699810 </v>
   <v>       0.00699810 </v>
   <v>       0.00699810 </v>
   <v>       0.00699810 </v>
   <v>       0.00349905 </v>
   <v>       0.00699810 </v>
   <v>       0.00699810 </v>
   <v>       0.00699810 </v>
   <v>       0.00699810 </v>
   <v>       0.00349905 </v>
   <v>       0.00699810 </v>
   <v>       0.00699810 </v>
   <v>       0.00699810 </v>
   <v>       0.00349905 </v>
   <v>       0.00699810 </v>
   <v>       0.00699810 </v>
   <v>       0.00349905 </v>
   <v>       0.00699810 </v>
   <v>       0.00349905 </v>
   <v>       0.00116635 </v>
   <v>       0.00349905 </v>
   <v>       0.00349905 </v>
   <v>       0.00349905 </v>
   <v>       0.00349905 </v>
   <v>       0.00349905 </v>
   <v>       0.00349905 </v>
   <v>       0.00349905 </v>
   <v>       0.00699810 </v>
   <v>       0.00699810 </v>
   <v>       0.00699810 </v>
   <v>       0.00699810 </v>
   <v>       0.00699810 </v>
   <v>       0.00349905 </v>
   <v>       0.00699810 </v>
   <v>       0.00699810 </v>
   <v>       0.00699810 </v>
   <v>       0.00699810 </v>
   <v>       0.00349905 </v>
   <v>       0.00699810 </v>
   <v>       0.00699810 </v>
   <v>       0.00699810 </v>
   <v>       0.00349905 </v>
   <v>       0.00699810 </v>
   <v>       0.00699810 </v>
   <v>       0.00349905 </v>
   <v>       0.00699810 </v>
   <v>       0.00349905 </v>
   <v>       0.00116635 </v>
   <v>       0.00349905 </v>
   <v>       0.00349905 </v>
   <v>       0.00349905 </v>
   <v>       0.00349905 </v>
   <v>       0.00349905 </v>
   <v>       0.00349905 </v>
   <v>       0.00699810 </v>
   <v>       0.00699810 </v>
   <v>       0.00699810 </v>
   <v>       0.00699810 </v>
   <v>       0.00349905 </v>
   <v>       0.00699810 </v>
   <v>       0.00699810 </v>
   <v>       0.00699810 </v>
   <v>       0.00349905 </v>
   <v>       0.00699810 </v>
   <v>       0.00699810 </v>
   <v>       0.00349905 </v>
   <v>       0.00699810 </v>
   <v>       0.00349905 </v>
   <v>       0.00116635 </v>
   <v>       0.00349905 </v>
   <v>       0.00349905 </v>
   <v>       0.00349905 </v>
   <v>       0.00349905 </v>
   <v>       0.00349905 </v>
   <v>       0.00699810 </v>
   <v>       0.00699810 </v>
   <v>       0.00699810 </v>
   <v>       0.00349905 </v>
   <v>       0.00699810 </v>
   <v>       0.00699810 </v>
   <v>       0.00349905 </v>
   <v>       0.00699810 </v>
   <v>       0.00349905 </v>
   <v>       0.00116635 </v>
   <v>       0.00349905 </v>
   <v>       0.00349905 </v>
   <v>       0.00349905 </v>
   <v>       0.00349905 </v>
   <v>       0.00699810 </v>
   <v>       0.00699810 </v>
   <v>       0.00349905 </v>
   <v>       0.00699810 </v>
   <v>       0.00349905 </v>
   <v>       0.00116635 </v>
   <v>       0.00349905 </v>
   <v>       0.00349905 </v>
   <v>       0.00349905 </v>
   <v>       0.00699810 </v>
   <v>       0.00349905 </v>
   <v>       0.00116635 </v>
   <v>       0.00349905 </v>
   <v>       0.00349905 </v>
   <v>       0.00116635 </v>
  </varray>
 </kpoints>
 <parameters>
  <separator name="general" >
   <i type="string" name="SYSTEM">unknown system</i>
   <i type="logical" name="LCOMPAT"> F  </i>
  </separator>
  <separator name="electronic" >
   <i type="string" name="PREC">accura</i>
   <i name="ENMAX">    350.00000000</i>
   <i name="ENAUG">    511.36800000</i>
   <i name="EDIFF">      0.00000100</i>
   <i type="int" name="IALGO">    38</i>
   <i type="int" name="IWAVPR">    11</i>
   <i type="int" name="NBANDS">    20</i>
   <i type="int" name="NBANDSLOW">    -1</i>
   <i type="int" name="NBANDSHIGH">    -1</i>
   <i name="NELECT">     16.00000000</i>
   <i type="int" name="TURBO">     0</i>
   <i type="int" name="IRESTART">     0</i>
   <i type="int" name="NREBOOT">     0</i>
   <i type="int" name="NMIN">     0</i>
   <i name="EREF">      0.00000000</i>
   <separator name="electronic smearing" >
    <i type="int" name="ISMEAR">     1</i>
    <i name="SIGMA">      0.20000000</i>
    <i name="KSPACING">      0.12000000</i>
    <i type="logical" name="KGAMMA"> T  </i>
    <i type="logical" name="KBLOWUP"> T  </i>
   </separator>
   <separator name="electronic projectors" >
    <i type="logical" name="LREAL"> F  </i>
    <v name="ROPT">      0.00000000</v>
    <i type="int" name="LMAXPAW">  -100</i>
    <i type="int" name="LMAXMIX">     4</i>
    <i type="logical" name="NLSPLINE"> F  </i>
   </separator>
   <separator name="electronic startup" >
    <i type="int" name="ISTART">     0</i>
    <i type="int" name="ICHARG">     2</i>
    <i type="int" name="INIWAV">     1</i>
   </separator>
   <separator name="electronic spin" >
    <i type="int" name="ISPIN">     2</i>
    <i type="logical" name="LNONCOLLINEAR"> F  </i>
    <v name="MAGMOM">      5.00000000      5.00000000</v>
    <i name="NUPDOWN">     -1.00000000</i>
    <i type="logical" name="LSORBIT"> F  </i>
    <v name="SAXIS">      0.00000000      0.00000000      1.00000000</v>
    <i type="logical" name="LSPIRAL"> F  </i>
    <v name="QSPIRAL">      0.00000000      0.00000000      0.00000000</v>
    <i type="logical" name="LZEROZ"> F  </i>
   </separator>
   <separator name="electronic exchange-correlation" >
    <i type="logical" name="LASPH"> T  </i>
    <i type="logical" name="LMETAGGA"> F  </i>
   </separator>
   <separator name="electronic convergence" >
    <i type="int" name="NELM">    90</i>
    <i type="int" name="NELMDL">    -5</i>
    <i type="int" name="NELMIN">     6</i>
    <i name="ENINI">    350.00000000</i>
    <separator name="electronic convergence detail" >
     <i type="logical" name="LDIAG"> T  </i>
     <i type="logical" name="LSUBROT"> F  </i>
     <i name="WEIMIN">      0.00100000</i>
     <i name="EBREAK">      0.00000001</i>
     <i name="DEPER">      0.30000000</i>
     <i type="int" name="NRMM">     4</i>
     <i name="TIME">      0.40000000</i>
    </separator>
   </separator>
   <separator name="electronic mixer" >
    <i name="AMIX">      0.40000000</i>
    <i name="BMIX">      1.00000000</i>
    <i name="AMIN">      0.10000000</i>
    <i name="AMIX_MAG">      1.60000000</i>
    <i name="BMIX_MAG">      1.00000000</i>
    <separator name="electronic mixer details" >
     <i type="int" name="IMIX">     4</i>
     <i type="logical" name="MIXFIRST"> F  </i>
     <i type="int" name="MAXMIX">   -45</i>
     <i name="WC">    100.00000000</i>
     <i type="int" name="INIMIX">     1</i>
     <i type="int" name="MIXPRE">     1</i>
     <i type="int" name="MREMOVE">     5</i>
    </separator>
   </separator>
   <separator name="electronic dipolcorrection" >
    <i type="logical" name="LDIPOL"> F  </i>
    <i type="logical" name="LMONO"> F  </i>
    <i type="int" name="IDIPOL">     0</i>
    <i name="EPSILON">      1.00000000</i>
    <v name="DIPOL">   -100.00000000   -100.00000000   -100.00000000</v>
    <i name="EFIELD">      0.00000000</i>
   </separator>
  </separator>
  <separator name="grids" >
   <i type="int" name="NGX">    18</i>
   <i type="int" name="NGY">    18</i>
   <i type="int" name="NGZ">    18</i>
   <i type="int" name="NGXF">    36</i>
   <i type="int" name="NGYF">    36</i>
   <i type="int" name="NGZF">    36</i>
   <i type="logical" name="ADDGRID"> T  </i>
  </separator>
  <separator name="ionic" >
   <i type="int" name="NSW">   100</i>
   <i type="int" name="IBRION">     2</i>
   <i type="int" name="MDALGO">     0</i>
   <i type="int" name="ISIF">     3</i>
   <i name="PSTRESS">      0.00000000</i>
   <i name="EDIFFG">     -0.00200000</i>
   <i type="int" name="NFREE">     1</i>
   <i name="POTIM">      0.50000000</i>
   <i name="SMASS">     -3.00000000</i>
   <i name="SCALEE">      1.00000000</i>
  </separator>
  <separator name="ionic md" >
   <i name="TEBEG">      0.00010000</i>
   <i name="TEEND">      0.00010000</i>
   <i type="int" name="NBLOCK">     1</i>
   <i type="int" name="KBLOCK">   100</i>
   <i type="int" name="NPACO">   256</i>
   <i name="APACO">     16.00000000</i>
  </separator>
  <separator name="symmetry" >
   <i type="int" name="ISYM">     2</i>
   <i name="SYMPREC">      0.00001000</i>
  </separator>
  <separator name="dos" >
   <i type="int" name="LORBIT">    11</i>
   <v name="RWIGS">     -1.00000000</v>
   <i type="int" name="NEDOS">   301</i>
   <i name="EMIN">     10.00000000</i>
   <i name="EMAX">    -10.00000000</i>
   <i name="EFERMI">      0.00000000</i>
  </separator>
  <separator name="writing" >
   <i type="int" name="NWRITE">     2</i>
   <i type="logical" name="LWAVE"> T  </i>
   <i type="logical" name="LDOWNSAMPLE"> F  </i>
   <i type="logical" name="LCHARG"> T  </i>
   <i type="logical" name="LPARD"> F  </i>
   <i type="logical" name="LVTOT"> F  </i>
   <i type="logical" name="LVHAR"> F  </i>
   <i type="logical" name="LELF"> F  </i>
   <i type="logical" name="LOPTICS"> F  </i>
   <v name="STM">      0.00000000      0.00000000      0.00000000      0.00000000      0.00000000      0.00000000      0.00000000</v>
  </separator>
  <separator name="performance" >
   <i type="int" name="NPAR">     4</i>
   <i type="int" name="NSIM">     4</i>
   <i type="int" name="NBLK">    -1</i>
   <i type="logical" name="LPLANE"> T  </i>
   <i type="logical" name="LSCALAPACK"> T  </i>
   <i type="logical" name="LSCAAWARE"> F  </i>
   <i type="logical" name="LSCALU"> F  </i>
   <i type="logical" name="LASYNC"> F  </i>
   <i type="logical" name="LORBITALREAL"> F  </i>
  </separator>
  <separator name="miscellaneous" >
   <i type="int" name="IDIOT">     3</i>
   <i type="int" name="PHON_NSTRUCT">    -1</i>
   <i type="logical" name="LMUSIC"> F  </i>
   <v name="POMASS">     55.84700000</v>
   <v name="DARWINR">      0.00000000</v>
   <v name="DARWINV">      1.00000000</v>
   <i type="logical" name="LCORR"> T  </i>
  </separator>
  <i type="logical" name="GGA_COMPAT"> F  </i>
  <i type="logical" name="LBERRY"> F  </i>
  <i type="int" name="ICORELEVEL">     0</i>
  <i type="logical" name="LDAU"> F  </i>
  <i type="int" name="I_CONSTRAINED_M">     0</i>
  <separator name="electronic exchange-correlation" >
   <i type="string" name="GGA">--</i>
   <i type="int" name="VOSKOWN">     1</i>
   <i type="logical" name="LHFCALC"> F  </i>
   <i type="string" name="PRECFOCK"></i>
   <i type="logical" name="LSYMGRAD"> F  </i>
   <i type="logical" name="LHFONE"> F  </i>
   <i type="logical" name="LRHFCALC"> F  </i>
   <i type="logical" name="LTHOMAS"> F  </i>
   <i type="logical" name="LMODELHF"> F  </i>
   <i type="logical" name="LFOCKACE"> F  </i>
   <i name="ENCUT4O">     -1.00000000</i>
   <i type="int" name="EXXOEP">     0</i>
   <i type="int" name="FOURORBIT">     0</i>
   <i name="AEXX">      0.00000000</i>
   <i name="HFALPHA">      0.00000000</i>
   <i name="MCALPHA">      0.00000000</i>
   <i name="ALDAX">      1.00000000</i>
   <i name="AGGAX">      1.00000000</i>
   <i name="ALDAC">      1.00000000</i>
   <i name="AGGAC">      1.00000000</i>
   <i type="int" name="NKREDX">     1</i>
   <i type="int" name="NKREDY">     1</i>
   <i type="int" name="NKREDZ">     1</i>
   <i type="logical" name="SHIFTRED"> F  </i>
   <i type="logical" name="ODDONLY"> F  </i>
   <i type="logical" name="EVENONLY"> F  </i>
   <i type="int" name="LMAXFOCK">     0</i>
   <i type="int" name="NMAXFOCKAE">     0</i>
   <i type="logical" name="LFOCKAEDFT"> F  </i>
   <i name="HFSCREEN">      0.00000000</i>
   <i name="HFSCREENC">      0.00000000</i>
   <i type="int" name="NBANDSGWLOW">     0</i>
  </separator>
  <separator name="vdW DFT" >
   <i type="logical" name="LUSE_VDW"> F  </i>
   <i name="Zab_VDW">     -0.84910000</i>
   <i name="PARAM1">      0.12340000</i>
   <i name="PARAM2">      1.00000000</i>
   <i name="PARAM3">      0.00000000</i>
  </separator>
  <separator name="model GW" >
   <i type="int" name="MODEL_GW">     0</i>
   <i name="MODEL_EPS0">      7.04046678</i>
   <i name="MODEL_ALPHA">      1.00000000</i>
  </separator>
  <separator name="linear response parameters" >
   <i type="logical" name="LEPSILON"> F  </i>
   <i type="logical" name="LRPA"> F  </i>
   <i type="logical" name="LNABLA"> F  </i>
   <i type="logical" name="LVEL"> F  </i>
   <i type="int" name="KINTER">     0</i>
   <i name="CSHIFT">      0.10000000</i>
   <i name="OMEGAMAX">     -1.00000000</i>
   <i name="DEG_THRESHOLD">      0.00200000</i>
   <i name="RTIME">     -0.10000000</i>
   <i name="WPLASMAI">      0.00000000</i>
   <v name="DFIELD">      0.00000000      0.00000000      0.00000000</v>
   <v name="WPLASMA">      0.00000000      0.00000000      0.00000000      0.00000000      0.00000000      0.00000000      0.00000000      0.00000000      0.00000000</v>
  </separator>
  <separator name="orbital magnetization" >
   <i type="logical" name="NUCIND"> F  </i>
   <v name="MAGPOS">      0.00000000      0.00000000      0.00000000</v>
   <i type="logical" name="LNICSALL"> T  </i>
   <i type="logical" name="ORBITALMAG"> F  </i>
   <i type="logical" name="LMAGBLOCH"> F  </i>
   <i type="logical" name="LCHIMAG"> F  </i>
   <i type="logical" name="LGAUGE"> T  </i>
   <i type="int" name="MAGATOM">     0</i>
   <v name="MAGDIPOL">      0.00000000      0.00000000      0.00000000</v>
   <v name="AVECCONST">      0.00000000      0.00000000      0.00000000</v>
  </separator>
  <separator name="response functions" >
   <i type="logical" name="LFINITE_TEMPERATURE"> F  </i>
   <i type="logical" name="LADDER"> F  </i>
   <i type="logical" name="LRPAFORCE"> F  </i>
   <i type="logical" name="LFXC"> F  </i>
   <i type="logical" name="LHARTREE"> T  </i>
   <i type="int" name="IBSE">     0</i>
   <v type="int" name="KPOINT">    -1     0     0     0</v>
   <i type="logical" name="LTCTC"> F  </i>
   <i type="logical" name="LTCTE"> F  </i>
   <i type="logical" name="LTETE"> F  </i>
   <i type="logical" name="LTRIPLET"> F  </i>
   <i type="logical" name="LFXCEPS"> F  </i>
   <i type="logical" name="LFXHEG"> F  </i>
   <i type="int" name="NATURALO">     2</i>
   <i type="logical" name="LHOLEGF"> F  </i>
   <i type="logical" name="L2ORDER"> F  </i>
   <i type="logical" name="LDMP1"> F  </i>
   <i type="logical" name="LMP2LT"> F  </i>
   <i type="logical" name="LSMP2LT"> F  </i>
   <i type="logical" name="LGWLF"> F  </i>
   <i name="ENCUTGW">     -2.00000000</i>
   <i name="ENCUTGWSOFT">     -2.00000000</i>
   <i name="ENCUTLF">     -1.00000000</i>
   <i type="logical" name="LESF_SPLINES"> F  </i>
   <i type="int" name="LMAXMP2">    -1</i>
   <i name="SCISSOR">      0.00000000</i>
   <i type="int" name="NOMEGA">     0</i>
   <i type="int" name="NOMEGAR">     0</i>
   <i type="int" name="NBANDSGW">    -1</i>
   <i type="int" name="NBANDSO">    -1</i>
   <i type="int" name="NBANDSV">    -1</i>
   <i type="int" name="NELM">    90</i>
   <i type="int" name="NELMHF">     1</i>
   <i type="int" name="DIM">     3</i>
   <i type="int" name="IESPILON">     4</i>
   <i type="int" name="ANTIRES">     0</i>
   <i name="OMEGAMAX">    -30.00000000</i>
   <i name="OMEGAMIN">    -30.00000000</i>
   <i name="OMEGATL">   -200.00000000</i>
   <i type="int" name="OMEGAGRID">     0</i>
   <i name="CSHIFT">     -0.10000000</i>
   <i type="logical" name="LSELFENERGY"> F  </i>
   <i type="logical" name="LSPECTRAL"> F  </i>
   <i type="logical" name="LSPECTRALGW"> F  </i>
   <i type="logical" name="LSINGLES"> F  </i>
   <i type="logical" name="LFERMIGW"> F  </i>
   <i type="logical" name="ODDONLYGW"> F  </i>
   <i type="logical" name="EVENONLYGW"> F  </i>
   <i type="int" name="NKREDLFX">     1</i>
   <i type="int" name="NKREDLFY">     1</i>
   <i type="int" name="NKREDLFZ">     1</i>
   <i type="int" name="MAXMEM">  2800</i>
   <i type="int" name="TELESCOPE">     0</i>
   <i type="int" name="NTAUPAR">    -1</i>
   <i type="int" name="NOMEGAPAR">    -1</i>
   <i name="DAMP_NEWTON">      0.80000001</i>
   <i name="LAMBDA">      1.00000000</i>
  </separator>
  <separator name="External order field" >
   <i name="OFIELD_KAPPA">      0.00000000</i>
   <v name="OFIELD_K">      0.00000000      0.00000000      0.00000000</v>
   <i name="OFIELD_Q6_NEAR">      0.00000000</i>
   <i name="OFIELD_Q6_FAR">      0.00000000</i>
   <i name="OFIELD_A">      0.00000000</i>
  </separator>
 </parameters>
 <atominfo>
  <atoms>       2 </atoms>
  <types>       1 </types>
  <array name="atoms" >
   <dimension dim="1">ion</dimension>
   <field type="string">element</field>
   <field type="int">atomtype</field>
   <set>
    <rc><c>Fe</c><c>   1</c></rc>
    <rc><c>Fe</c><c>   1</c></rc>
   </set>
  </array>
  <array name="atomtypes" >
   <dimension dim="1">type</dimension>
   <field type="int">atomspertype</field>
   <field type="string">element</field>
   <field>mass</field>
   <field>valence</field>
   <field type="string">pseudopotential</field>
   <set>
    <rc><c>   2</c><c>Fe</c><c>     55.84700000</c><c>      8.00000000</c><c>  PAW_PBE Fe 06Sep2000                  </c></rc>
   </set>
  </array>
 </atominfo>
 <structure name="initialpos" >
  <crystal>
   <varray name="basis" >
    <v>       2.86303550       0.00000000       0.00000000 </v>
    <v>       0.00000000       2.86303550       0.00000000 </v>
    <v>       0.00000000       0.00000000       2.86303550 </v>
   </varray>
   <i name="volume">     23.46822259 </i>
   <varray name="rec_basis" >
    <v>       0.34927964      -0.00000000       0.00000000 </v>
    <v>       0.00000000       0.34927964       0.00000000 </v>
    <v>      -0.00000000      -0.00000000       0.34927964 </v>
   </varray>
  </crystal>
  <varray name="positions" >
   <v>       0.00000000       0.00000000       0.00000000 </v>
   <v>       0.50000000       0.50000000       0.50000000 </v>
  </varray>
 </structure>
 <calculation>
  <scstep>
   <time name="dav">    6.98    6.99</time>
   <time name="total">    8.59    8.60</time>
   <energy>
    <i name="alphaZ">    117.79976220 </i>
    <i name="ewald">  -1171.43779597 </i>
    <i name="hartreedc">   -228.04061711 </i>
    <i name="XCdc">     14.27160946 </i>
    <i name="pawpsdc">   1103.49540010 </i>
    <i name="pawaedc">  -1119.11610375 </i>
    <i name="eentropy">     -0.00061916 </i>
    <i name="bandstr">    159.09947690 </i>
    <i name="atom">   1188.58965621 </i>
    <i name="e_fr_energy">     64.66076887 </i>
    <i name="e_wo_entrp">     64.66138804 </i>
    <i name="e_0_energy">     64.66097526 </i>
   </energy>
  </scstep>
  <scstep>
   <time name="dav">    6.51    6.54</time>
   <time name="total">    6.53    6.56</time>
   <energy>
    <i name="e_fr_energy">    -13.31463100 </i>
    <i name="e_wo_entrp">    -13.31550178 </i>
    <i name="e_0_energy">    -13.31492126 </i>
   </energy>
  </scstep>
  <scstep>
   <time name="dav">    7.10    7.12</time>
   <time name="total">    7.12    7.14</time>
   <energy>
    <i name="e_fr_energy">    -16.06533262 </i>
    <i name="e_wo_entrp">    -16.06614555 </i>
    <i name="e_0_energy">    -16.06560359 </i>
   </energy>
  </scstep>
  <scstep>
   <time name="dav">    6.83    6.85</time>
   <time name="total">    6.84    6.87</time>
   <energy>
    <i name="e_fr_energy">    -16.08613722 </i>
    <i name="e_wo_entrp">    -16.08694015 </i>
    <i name="e_0_energy">    -16.08640486 </i>
   </energy>
  </scstep>
  <scstep>
   <time name="dav">    7.05    7.07</time>
   <time name="total">    7.46    7.48</time>
   <energy>
    <i name="e_fr_energy">    -16.08638910 </i>
    <i name="e_wo_entrp">    -16.08719195 </i>
    <i name="e_0_energy">    -16.08665671 </i>
   </energy>
  </scstep>
  <scstep>
   <time name="dav">    6.90    6.91</time>
   <time name="total">    8.84    8.87</time>
   <energy>
    <i name="e_fr_energy">    -16.56762986 </i>
    <i name="e_wo_entrp">    -16.56762004 </i>
    <i name="e_0_energy">    -16.56762659 </i>
   </energy>
  </scstep>
  <scstep>
   <time name="dav">    7.25    7.26</time>
   <time name="total">    9.20    9.22</time>
   <energy>
    <i name="e_fr_energy">    -16.50686986 </i>
    <i name="e_wo_entrp">    -16.50604217 </i>
    <i name="e_0_energy">    -16.50659396 </i>
   </energy>
  </scstep>
  <scstep>
   <time name="dav">    7.76    7.77</time>
   <time name="total">    9.70    9.73</time>
   <energy>
    <i name="e_fr_energy">    -16.49034001 </i>
    <i name="e_wo_entrp">    -16.48942773 </i>
    <i name="e_0_energy">    -16.49003592 </i>
   </energy>
  </scstep>
  <scstep>
   <time name="dav">    8.78    8.85</time>
   <time name="total">   10.73   10.81</time>
   <energy>
    <i name="e_fr_energy">    -16.47908809 </i>
    <i name="e_wo_entrp">    -16.47802050 </i>
    <i name="e_0_energy">    -16.47873223 </i>
   </energy>
  </scstep>
  <scstep>
   <time name="dav">    7.38    7.40</time>
   <time name="total">    9.33    9.36</time>
   <energy>
    <i name="e_fr_energy">    -16.47869939 </i>
    <i name="e_wo_entrp">    -16.47777149 </i>
    <i name="e_0_energy">    -16.47839009 </i>
   </energy>
  </scstep>
  <scstep>
   <time name="dav">    7.46    7.47</time>
   <time name="total">    9.42    9.45</time>
   <energy>
    <i name="e_fr_energy">    -16.47873343 </i>
    <i name="e_wo_entrp">    -16.47780154 </i>
    <i name="e_0_energy">    -16.47842280 </i>
   </energy>
  </scstep>
  <scstep>
   <time name="dav">    6.59    6.63</time>
   <time name="total">    8.53    8.58</time>
   <energy>
    <i name="e_fr_energy">    -16.47872183 </i>
    <i name="e_wo_entrp">    -16.47779269 </i>
    <i name="e_0_energy">    -16.47841212 </i>
   </energy>
  </scstep>
  <scstep>
   <time name="dav">    5.75    5.76</time>
   <time name="total">    7.43    7.45</time>
   <energy>
    <i name="alphaZ">    117.79976220 </i>
    <i name="ewald">  -1171.43779597 </i>
    <i name="hartreedc">   -195.13587109 </i>
    <i name="XCdc">      8.53423499 </i>
    <i name="pawpsdc">   1412.22094958 </i>
    <i name="pawaedc">  -1430.20082823 </i>
    <i name="eentropy">     -0.00093101 </i>
    <i name="bandstr">     53.15210068 </i>
    <i name="atom">   1188.58965621 </i>
    <i name="e_fr_energy">    -16.47872263 </i>
    <i name="e_wo_entrp">    -16.47779163 </i>
    <i name="e_0_energy">    -16.47841230 </i>
   </energy>
  </scstep>
  <structure>
   <crystal>
    <varray name="basis" >
     <v>       2.86303550       0.00000000       0.00000000 </v>
     <v>       0.00000000       2.86303550       0.00000000 </v>
     <v>       0.00000000       0.00000000       2.86303550 </v>
    </varray>
    <i name="volume">     23.46822259 </i>
    <varray name="rec_basis" >
     <v>       0.34927964      -0.00000000       0.00000000 </v>
     <v>       0.00000000       0.34927964       0.00000000 </v>
     <v>      -0.00000000      -0.00000000       0.34927964 </v>
    </varray>
   </crystal>
   <varray name="positions" >
    <v>       0.00000000       0.00000000       0.00000000 </v>
    <v>       0.50000000       0.50000000       0.50000000 </v>
   </varray>
  </structure>
  <varray name="forces" >
   <v>       0.00000000      -0.00000000      -0.00000000 </v>
   <v>      -0.00000000       0.00000000       0.00000000 </v>
  </varray>
  <varray name="stress" >
   <v>     -64.14819761      -0.00000000      -0.00000000 </v>
   <v>       0.00000000     -64.14819761      -0.00000000 </v>
   <v>       0.00000000      -0.00000000     -64.14819761 </v>
  </varray>
  <energy>
   <i name="e_fr_energy">    -16.47872263 </i>
   <i name="e_wo_entrp">    -16.47779163 </i>
   <i name="e_0_energy">    -16.47841230 </i>
  </energy>
  <time name="totalsc">  116.98  118.63</time>
 </calculation>
 <calculation>
  <scstep>
   <time name="dav">    6.86    6.87</time>
   <time name="total">    8.81    8.82</time>
   <energy>
    <i name="alphaZ">    126.18682895 </i>
    <i name="ewald">  -1198.60413034 </i>
    <i name="hartreedc">   -199.66528050 </i>
    <i name="XCdc">      9.87611241 </i>
    <i name="pawpsdc">   1412.21418013 </i>
    <i name="pawaedc">  -1430.19283399 </i>
    <i name="eentropy">     -0.00067344 </i>
    <i name="bandstr">     74.36381268 </i>
    <i name="atom">   1188.58965621 </i>
    <i name="e_fr_energy">    -17.23232789 </i>
    <i name="e_wo_entrp">    -17.23165445 </i>
    <i name="e_0_energy">    -17.23210341 </i>
   </energy>
  </scstep>
  <scstep>
   <time name="dav">    6.81    6.82</time>
   <time name="total">    8.76    8.78</time>
   <energy>
    <i name="e_fr_energy">    -16.53122450 </i>
    <i name="e_wo_entrp">    -16.53066523 </i>
    <i name="e_0_energy">    -16.53103807 </i>
   </energy>
  </scstep>
  <scstep>
   <time name="dav">    7.24    7.25</time>
   <time name="total">    9.19    9.21</time>
   <energy>
    <i name="e_fr_energy">    -16.49569786 </i>
    <i name="e_wo_entrp">    -16.49447071 </i>
    <i name="e_0_energy">    -16.49528881 </i>
   </energy>
  </scstep>
  <scstep>
   <time name="dav">    7.59    7.60</time>
   <time name="total">    9.54    9.56</time>
   <energy>
    <i name="e_fr_energy">    -16.48831121 </i>
    <i name="e_wo_entrp">    -16.48704801 </i>
    <i name="e_0_energy">    -16.48789014 </i>
   </energy>
  </scstep>
  <scstep>
   <time name="dav">    7.54    7.55</time>
   <time name="total">    9.49    9.51</time>
   <energy>
    <i name="e_fr_energy">    -16.48242851 </i>
    <i name="e_wo_entrp">    -16.48127053 </i>
    <i name="e_0_energy">    -16.48204251 </i>
   </energy>
  </scstep>
  <scstep>
   <time name="dav">    6.97    6.98</time>
   <time name="total">    8.92    8.95</time>
   <energy>
    <i name="e_fr_energy">    -16.48254192 </i>
    <i name="e_wo_entrp">    -16.48138561 </i>
    <i name="e_0_energy">    -16.48215649 </i>
   </energy>
  </scstep>
  <scstep>
   <time name="dav">    6.65    6.66</time>
   <time name="total">    8.60    8.62</time>
   <energy>
    <i name="e_fr_energy">    -16.48254989 </i>
    <i name="e_wo_entrp">    -16.48139717 </i>
    <i name="e_0_energy">    -16.48216565 </i>
   </energy>
  </scstep>
  <scstep>
   <time name="dav">    6.26    6.27</time>
   <time name="total">    8.21    8.23</time>
   <energy>
    <i name="e_fr_energy">    -16.48254680 </i>
    <i name="e_wo_entrp">    -16.48139414 </i>
    <i name="e_0_energy">    -16.48216258 </i>
   </energy>
  </scstep>
  <scstep>
   <time name="dav">    4.43    4.44</time>
   <time name="total">    6.40    6.42</time>
   <energy>
    <i name="e_fr_energy">    -16.48254572 </i>
    <i name="e_wo_entrp">    -16.48139162 </i>
    <i name="e_0_energy">    -16.48216102 </i>
   </energy>
  </scstep>
  <scstep>
   <time name="dav">    4.42    4.43</time>
   <time name="total">    6.02    6.04</time>
   <energy>
    <i name="alphaZ">    126.18682895 </i>
    <i name="ewald">  -1198.60413034 </i>
    <i name="hartreedc">   -184.54852539 </i>
    <i name="XCdc">      8.69873471 </i>
    <i name="pawpsdc">   1474.97315964 </i>
    <i name="pawaedc">  -1493.36982984 </i>
    <i name="eentropy">     -0.00115445 </i>
    <i name="bandstr">     61.59271490 </i>
    <i name="atom">   1188.58965621 </i>
    <i name="e_fr_energy">    -16.48254561 </i>
    <i name="e_wo_entrp">    -16.48139116 </i>
    <i name="e_0_energy">    -16.48216079 </i>
   </energy>
  </scstep>
  <structure>
   <crystal>
    <varray name="basis" >
     <v>       2.79814487      -0.00000000       0.00000000 </v>
     <v>       0.00000000       2.79814487       0.00000000 </v>
     <v>       0.00000000      -0.00000000       2.79814487 </v>
    </varray>
    <i name="volume">     21.90839617 </i>
    <varray name="rec_basis" >
     <v>       0.35737964      -0.00000000      -0.00000000 </v>
     <v>       0.00000000       0.35737964       0.00000000 </v>
     <v>      -0.00000000      -0.00000000       0.35737964 </v>
    </varray>
   </crystal>
   <varray name="positions" >
    <v>       0.00000000      -0.00000000      -0.00000000 </v>
    <v>       0.50000000       0.50000000       0.50000000 </v>
   </varray>
  </structure>
  <varray name="forces" >
   <v>      -0.00000000       0.00000000       0.00000000 </v>
   <v>       0.00000000      -0.00000000      -0.00000000 </v>
  </varray>
  <varray name="stress" >
   <v>      66.24073856       0.00000000       0.00000000 </v>
   <v>       0.00000000      66.24073856       0.00000000 </v>
   <v>       0.00000000       0.00000000      66.24073856 </v>
  </varray>
  <energy>
   <i name="e_fr_energy">    -16.48254561 </i>
   <i name="e_wo_entrp">    -16.48139116 </i>
   <i name="e_0_energy">    -16.48216079 </i>
  </energy>
  <time name="totalsc">   90.82   91.71</time>
 </calculation>
 <calculation>
  <scstep>
   <time name="dav">    6.85    6.85</time>
   <time name="total">    8.79    8.80</time>
   <energy>
    <i name="alphaZ">    122.24071870 </i>
    <i name="ewald">  -1185.97734364 </i>
    <i name="hartreedc">   -182.60500755 </i>
    <i name="XCdc">      8.09495580 </i>
    <i name="pawpsdc">   1474.97820058 </i>
    <i name="pawaedc">  -1493.37434001 </i>
    <i name="eentropy">     -0.00198228 </i>
    <i name="bandstr">     51.39579997 </i>
    <i name="atom">   1188.58965621 </i>
    <i name="e_fr_energy">    -16.65934223 </i>
    <i name="e_wo_entrp">    -16.65735994 </i>
    <i name="e_0_energy">    -16.65868147 </i>
   </energy>
  </scstep>
  <scstep>
   <time name="dav">    6.86    6.86</time>
   <time name="total">    8.80    8.82</time>
   <energy>
    <i name="e_fr_energy">    -16.51410655 </i>
    <i name="e_wo_entrp">    -16.51253297 </i>
    <i name="e_0_energy">    -16.51358202 </i>
   </energy>
  </scstep>
  <scstep>
   <time name="dav">    7.26    7.26</time>
   <time name="total">    9.19    9.22</time>
   <energy>
    <i name="e_fr_energy">    -16.49978991 </i>
    <i name="e_wo_entrp">    -16.49848632 </i>
    <i name="e_0_energy">    -16.49935538 </i>
   </energy>
  </scstep>
  <scstep>
   <time name="dav">    8.04    8.04</time>
   <time name="total">    9.98   10.01</time>
   <energy>
    <i name="e_fr_energy">    -16.49802755 </i>
    <i name="e_wo_entrp">    -16.49673203 </i>
    <i name="e_0_energy">    -16.49759571 </i>
   </energy>
  </scstep>
  <scstep>
   <time name="dav">    7.12    7.13</time>
   <time name="total">    9.07    9.09</time>
   <energy>
    <i name="e_fr_energy">    -16.49664552 </i>
    <i name="e_wo_entrp">    -16.49527976 </i>
    <i name="e_0_energy">    -16.49619027 </i>
   </energy>
  </scstep>
  <scstep>
   <time name="dav">    6.75    6.76</time>
   <time name="total">    8.70    8.72</time>
   <energy>
    <i name="e_fr_energy">    -16.49666848 </i>
    <i name="e_wo_entrp">    -16.49529902 </i>
    <i name="e_0_energy">    -16.49621200 </i>
   </energy>
  </scstep>
  <scstep>
   <time name="dav">    6.62    6.63</time>
   <time name="total">    8.56    8.59</time>
   <energy>
    <i name="e_fr_energy">    -16.49667375 </i>
    <i name="e_wo_entrp">    -16.49530448 </i>
    <i name="e_0_energy">    -16.49621733 </i>
   </energy>
  </scstep>
  <scstep>
   <time name="dav">    4.82    4.83</time>
   <time name="total">    6.76    6.78</time>
   <energy>
    <i name="e_fr_energy">    -16.49667690 </i>
    <i name="e_wo_entrp">    -16.49530818 </i>
    <i name="e_0_energy">    -16.49622066 </i>
   </energy>
  </scstep>
  <scstep>
   <time name="dav">    4.36    4.36</time>
   <time name="total">    5.96    5.98</time>
   <energy>
    <i name="alphaZ">    122.24071870 </i>
    <i name="ewald">  -1185.97734364 </i>
    <i name="hartreedc">   -189.39842289 </i>
    <i name="XCdc">      8.61836152 </i>
    <i name="pawpsdc">   1444.58775237 </i>
    <i name="pawaedc">  -1462.77737064 </i>
    <i name="eentropy">     -0.00136897 </i>
    <i name="bandstr">     57.62134035 </i>
    <i name="atom">   1188.58965621 </i>
    <i name="e_fr_energy">    -16.49667698 </i>
    <i name="e_wo_entrp">    -16.49530801 </i>
    <i name="e_0_energy">    -16.49622066 </i>
   </energy>
  </scstep>
  <structure>
   <crystal>
    <varray name="basis" >
     <v>       2.82793597      -0.00000000       0.00000000 </v>
     <v>       0.00000000       2.82793597       0.00000000 </v>
     <v>       0.00000000      -0.00000000       2.82793597 </v>
    </varray>
    <i name="volume">     22.61563143 </i>
    <varray name="rec_basis" >
     <v>       0.35361480      -0.00000000      -0.00000000 </v>
     <v>       0.00000000       0.35361480       0.00000000 </v>
     <v>      -0.00000000      -0.00000000       0.35361480 </v>
    </varray>
   </crystal>
   <varray name="positions" >
    <v>       0.00000000      -0.00000000      -0.00000000 </v>
    <v>       0.50000000       0.50000000       0.50000000 </v>
   </varray>
  </structure>
  <varray name="forces" >
   <v>      -0.00000000      -0.00000000      -0.00000000 </v>
   <v>       0.00000000       0.00000000       0.00000000 </v>
  </varray>
  <varray name="stress" >
   <v>       0.14234095      -0.00000000       0.00000000 </v>
   <v>      -0.00000000       0.14234095       0.00000000 </v>
   <v>      -0.00000000       0.00000000       0.14234095 </v>
  </varray>
  <energy>
   <i name="e_fr_energy">    -16.49667698 </i>
   <i name="e_wo_entrp">    -16.49530801 </i>
   <i name="e_0_energy">    -16.49622066 </i>
  </energy>
  <time name="totalsc">   83.19   85.77</time>
  <eigenvalues>
   <array>
    <dimension dim="1">band</dimension>
    <dimension dim="2">kpoint</dimension>
    <dimension dim="3">spin</dimension>
    <field>eigene</field>
    <field>occ</field>
    <set>
     <set comment="spin 1">
      <set comment="kpoint 1">
       <r>   -2.5881    1.0000 </r>
       <r>    1.0030    1.0000 </r>
       <r>    1.0030    1.0000 </r>
       <r>    3.5679    1.0000 </r>
       <r>    3.5679    1.0000 </r>
       <r>    3.5679    1.0000 </r>
       <r>    4.7865    1.0000 </r>
       <r>    4.7865    1.0000 </r>
       <r>    6.0042    0.0697 </r>
       <r>    6.0042    0.0697 </r>
       <r>    6.0042    0.0697 </r>
       <r>   15.8411    0.0000 </r>
       <r>   15.8411    0.0000 </r>
       <r>   15.8411    0.0000 </r>
       <r>   21.5723    0.0000 </r>
       <r>   21.5723    0.0000 </r>
       <r>   26.7391    0.0000 </r>
       <r>   30.9407    0.0000 </r>
       <r>   30.9407    0.0000 </r>
       <r>   30.9407    0.0000 </r>
      </set>
      <set comment="kpoint 2">
       <r>   -2.5303    1.0000 </r>
       <r>    1.0279    1.0000 </r>
       <r>    1.0291    1.0000 </r>
       <r>    3.5673    1.0000 </r>
       <r>    3.5673    1.0000 </r>
       <r>    3.5838    1.0000 </r>
       <r>    4.7606    1.0000 </r>
       <r>    4.7968    1.0000 </r>
       <r>    5.9550    0.2045 </r>
       <r>    5.9550    0.2045 </r>
       <r>    5.9872    0.1096 </r>
       <r>   15.4063    0.0000 </r>
       <r>   15.9513    0.0000 </r>
       <r>   15.9513    0.0000 </r>
       <r>   21.5892    0.0000 </r>
       <r>   21.9078    0.0000 </r>
       <r>   26.9234    0.0000 </r>
       <r>   30.5252    0.0000 </r>
       <r>   30.8935    0.0000 </r>
       <r>   30.8935    0.0000 </r>
      </set>
      <set comment="kpoint 3">
       <r>   -2.3581    1.0000 </r>
       <r>    1.1015    1.0000 </r>
       <r>    1.1039    1.0000 </r>
       <r>    3.5667    1.0000 </r>
       <r>    3.5667    1.0000 </r>
       <r>    3.6311    1.0000 </r>
       <r>    4.6834    1.0000 </r>
       <r>    4.8271    1.0000 </r>
       <r>    5.8144    0.7601 </r>
       <r>    5.8144    0.7600 </r>
       <r>    5.9358    0.2721 </r>
       <r>   14.3664    0.0000 </r>
       <r>   16.2736    0.0000 </r>
       <r>   16.2736    0.0000 </r>
       <r>   21.6393    0.0000 </r>
       <r>   22.6018    0.0000 </r>
       <r>   27.5261    0.0000 </r>
       <r>   29.6019    0.0000 </r>
       <r>   30.7041    0.0000 </r>
       <r>   30.7041    0.0000 </r>
      </set>
      <set comment="kpoint 4">
       <r>   -2.0759    1.0000 </r>
       <r>    1.2188    1.0000 </r>
       <r>    1.2225    1.0000 </r>
       <r>    3.5690    1.0000 </r>
       <r>    3.5690    1.0000 </r>
       <r>    3.7087    1.0000 </r>
       <r>    4.5569    1.0000 </r>
       <r>    4.8765    1.0000 </r>
       <r>    5.6033    1.0324 </r>
       <r>    5.6033    1.0324 </r>
       <r>    5.8518    0.6160 </r>
       <r>   13.0813    0.0000 </r>
       <r>   16.7862    0.0000 </r>
       <r>   16.7862    0.0000 </r>
       <r>   21.7249    0.0000 </r>
       <r>   23.2339    0.0000 </r>
       <r>   28.5478    0.0000 </r>
       <r>   28.6196    0.0000 </r>
       <r>   30.2588    0.0000 </r>
       <r>   30.2588    0.0000 </r>
      </set>
      <set comment="kpoint 5">
       <r>   -1.6918    1.0000 </r>
       <r>    1.3585    1.0000 </r>
       <r>    1.3881    1.0000 </r>
       <r>    3.5790    1.0000 </r>
       <r>    3.5790    1.0000 </r>
       <r>    3.8147    1.0000 </r>
       <r>    4.3841    1.0000 </r>
       <r>    4.9438    1.0000 </r>
       <r>    5.3475    1.0005 </r>
       <r>    5.3475    1.0005 </r>
       <r>    5.7379    0.9628 </r>
       <r>   11.7362    0.0000 </r>
       <r>   17.4615    0.0000 </r>
       <r>   17.4615    0.0000 </r>
       <r>   21.8491    0.0000 </r>
       <r>   23.6800    0.0000 </r>
       <r>   27.5163    0.0000 </r>
       <r>   29.4938    0.0000 </r>
       <r>   29.4938    0.0000 </r>
       <r>   30.1612    0.0000 </r>
      </set>
      <set comment="kpoint 6">
       <r>   -1.2186    1.0000 </r>
       <r>    1.5005    1.0000 </r>
       <r>    1.5944    1.0000 </r>
       <r>    3.6018    1.0000 </r>
       <r>    3.6018    1.0000 </r>
       <r>    3.9466    1.0000 </r>
       <r>    4.1693    1.0000 </r>
       <r>    5.0299    1.0000 </r>
       <r>    5.0717    1.0000 </r>
       <r>    5.0717    1.0000 </r>
       <r>    5.5973    1.0313 </r>
       <r>   10.4192   -0.0000 </r>
       <r>   18.2717    0.0000 </r>
       <r>   18.2717    0.0000 </r>
       <r>   22.0161    0.0000 </r>
       <r>   24.0056    0.0000 </r>
       <r>   26.5603    0.0000 </r>
       <r>   28.4738    0.0000 </r>
       <r>   28.4738    0.0000 </r>
       <r>   30.2911    0.0000 </r>
      </set>
      <set comment="kpoint 7">
       <r>   -0.6756    1.0000 </r>
       <r>    1.6149    1.0000 </r>
       <r>    1.8364    1.0000 </r>
       <r>    3.6438    1.0000 </r>
       <r>    3.6438    1.0000 </r>
       <r>    3.9188    1.0000 </r>
       <r>    4.1012    1.0000 </r>
       <r>    4.7965    1.0000 </r>
       <r>    4.7965    1.0000 </r>
       <r>    5.1408    1.0000 </r>
       <r>    5.4342    1.0036 </r>
       <r>    9.1832   -0.0000 </r>
       <r>   19.1929    0.0000 </r>
       <r>   19.1929    0.0000 </r>
       <r>   22.2313    0.0000 </r>
       <r>   24.3006    0.0000 </r>
       <r>   25.7003    0.0000 </r>
       <r>   27.3125    0.0000 </r>
       <r>   27.3125    0.0000 </r>
       <r>   29.0844    0.0000 </r>
      </set>
      <set comment="kpoint 8">
       <r>   -0.0928    1.0000 </r>
       <r>    1.6625    1.0000 </r>
       <r>    2.1082    1.0000 </r>
       <r>    3.6393    1.0000 </r>
       <r>    3.7106    1.0000 </r>
       <r>    3.7106    1.0000 </r>
       <r>    4.2745    1.0000 </r>
       <r>    4.5373    1.0000 </r>
       <r>    4.5373    1.0000 </r>
       <r>    5.2536    1.0000 </r>
       <r>    5.2924    1.0001 </r>
       <r>    8.0720   -0.0000 </r>
       <r>   20.2050    0.0000 </r>
       <r>   20.2051    0.0000 </r>
       <r>   22.5012    0.0000 </r>
       <r>   24.6317    0.0000 </r>
       <r>   24.9410    0.0000 </r>
       <r>   26.0902    0.0000 </r>
       <r>   26.0902    0.0000 </r>
       <r>   27.9952    0.0000 </r>
      </set>
      <set comment="kpoint 9">
       <r>    0.4848    1.0000 </r>
       <r>    1.5975    1.0000 </r>
       <r>    2.4027    1.0000 </r>
       <r>    3.3391    1.0000 </r>
       <r>    3.8072    1.0000 </r>
       <r>    3.8072    1.0000 </r>
       <r>    4.3039    1.0000 </r>
       <r>    4.3039    1.0000 </r>
       <r>    4.4622    1.0000 </r>
       <r>    5.0605    1.0000 </r>
       <r>    5.5163    1.0138 </r>
       <r>    7.1286   -0.0000 </r>
       <r>   21.2913    0.0000 </r>
       <r>   21.2913    0.0000 </r>
       <r>   22.8332    0.0000 </r>
       <r>   24.2807    0.0000 </r>
       <r>   24.8534    0.0000 </r>
       <r>   24.8534    0.0000 </r>
       <r>   25.0449    0.0000 </r>
       <r>   27.0420    0.0000 </r>
      </set>
      <set comment="kpoint 10">
       <r>    0.9965    1.0000 </r>
       <r>    1.3791    1.0000 </r>
       <r>    2.7119    1.0000 </r>
       <r>    3.0272    1.0000 </r>
       <r>    3.9375    1.0000 </r>
       <r>    3.9375    1.0000 </r>
       <r>    4.1032    1.0000 </r>
       <r>    4.1032    1.0000 </r>
       <r>    4.6595    1.0000 </r>
       <r>    4.8608    1.0000 </r>
       <r>    5.8631    0.5692 </r>
       <r>    6.3894   -0.0009 </r>
       <r>   22.4378    0.0000 </r>
       <r>   22.4378    0.0000 </r>
       <r>   23.2353    0.0000 </r>
       <r>   23.6299    0.0000 </r>
       <r>   23.6299    0.0000 </r>
       <r>   23.7156    0.0000 </r>
       <r>   25.5722    0.0000 </r>
       <r>   26.2344    0.0000 </r>
      </set>
      <set comment="kpoint 11">
       <r>   -2.4726    1.0000 </r>
       <r>    1.0525    1.0000 </r>
       <r>    1.0548    1.0000 </r>
       <r>    3.5361    1.0000 </r>
       <r>    3.5658    1.0000 </r>
       <r>    3.6302    1.0000 </r>
       <r>    4.7544    1.0000 </r>
       <r>    4.7890    1.0000 </r>
       <r>    5.8658    0.5580 </r>
       <r>    5.9053    0.3918 </r>
       <r>    6.0118    0.0544 </r>
       <r>   15.4156    0.0000 </r>
       <r>   15.6092    0.0000 </r>
       <r>   16.0593    0.0000 </r>
       <r>   21.7626    0.0000 </r>
       <r>   22.1032    0.0000 </r>
       <r>   27.0979    0.0000 </r>
       <r>   30.1631    0.0000 </r>
       <r>   30.7755    0.0000 </r>
       <r>   30.8583    0.0000 </r>
      </set>
      <set comment="kpoint 12">
       <r>   -2.3013    1.0000 </r>
       <r>    1.1245    1.0000 </r>
       <r>    1.1306    1.0000 </r>
       <r>    3.5103    1.0000 </r>
       <r>    3.5622    1.0000 </r>
       <r>    3.7024    1.0000 </r>
       <r>    4.6884    1.0000 </r>
       <r>    4.8133    1.0000 </r>
       <r>    5.6983    1.0125 </r>
       <r>    5.7651    0.9072 </r>
       <r>    5.9934    0.0942 </r>
       <r>   14.4431    0.0000 </r>
       <r>   15.8440    0.0000 </r>
       <r>   16.3757    0.0000 </r>
       <r>   21.8737    0.0000 </r>
       <r>   22.7833    0.0000 </r>
       <r>   27.6726    0.0000 </r>
       <r>   29.2489    0.0000 </r>
       <r>   30.5278    0.0000 </r>
       <r>   30.7023    0.0000 </r>
      </set>
      <set comment="kpoint 13">
       <r>   -2.0207    1.0000 </r>
       <r>    1.2400    1.0000 </r>
       <r>    1.2494    1.0000 </r>
       <r>    3.4959    1.0000 </r>
       <r>    3.5597    1.0000 </r>
       <r>    3.7961    1.0000 </r>
       <r>    4.5700    1.0000 </r>
       <r>    4.8632    1.0000 </r>
       <r>    5.4758    1.0075 </r>
       <r>    5.5550    1.0220 </r>
       <r>    5.9291    0.2971 </r>
       <r>   13.1567    0.0000 </r>
       <r>   16.3278    0.0000 </r>
       <r>   16.8801    0.0000 </r>
       <r>   21.9810    0.0000 </r>
       <r>   23.4570    0.0000 </r>
       <r>   28.1719    0.0000 </r>
       <r>   28.7296    0.0000 </r>
       <r>   30.0337    0.0000 </r>
       <r>   30.2956    0.0000 </r>
      </set>
      <set comment="kpoint 14">
       <r>   -1.6389    1.0000 </r>
       <r>    1.3820    1.0000 </r>
       <r>    1.4101    1.0000 </r>
       <r>    3.4947    1.0000 </r>
       <r>    3.5616    1.0000 </r>
       <r>    3.9125    1.0000 </r>
       <r>    4.4092    1.0000 </r>
       <r>    4.9316    1.0000 </r>
       <r>    5.2174    1.0000 </r>
       <r>    5.3021    1.0002 </r>
       <r>    5.8274    0.7126 </r>
       <r>   11.8088    0.0000 </r>
       <r>   16.9634    0.0000 </r>
       <r>   17.5463    0.0000 </r>
       <r>   22.1272    0.0000 </r>
       <r>   23.9482    0.0000 </r>
       <r>   27.0956    0.0000 </r>
       <r>   29.2452    0.0000 </r>
       <r>   29.5501    0.0000 </r>
       <r>   30.2410    0.0000 </r>
      </set>
      <set comment="kpoint 15">
       <r>   -1.1691    1.0000 </r>
       <r>    1.5244    1.0000 </r>
       <r>    1.6120    1.0000 </r>
       <r>    3.5098    1.0000 </r>
       <r>    3.5691    1.0000 </r>
       <r>    4.0509    1.0000 </r>
       <r>    4.2159    1.0000 </r>
       <r>    4.9432    1.0000 </r>
       <r>    5.0186    1.0000 </r>
       <r>    5.0321    1.0000 </r>
       <r>    5.6945    1.0155 </r>
       <r>   10.4881   -0.0000 </r>
       <r>   17.7181    0.0000 </r>
       <r>   18.3477    0.0000 </r>
       <r>   22.3227    0.0000 </r>
       <r>   24.3161    0.0000 </r>
       <r>   26.0691    0.0000 </r>
       <r>   28.2605    0.0000 </r>
       <r>   28.5314    0.0000 </r>
       <r>   31.0146    0.0000 </r>
      </set>
      <set comment="kpoint 16">
       <r>   -0.6311    1.0000 </r>
       <r>    1.6377    1.0000 </r>
       <r>    1.8490    1.0000 </r>
       <r>    3.5461    1.0000 </r>
       <r>    3.5693    1.0000 </r>
       <r>    4.0145    1.0000 </r>
       <r>    4.2094    1.0000 </r>
       <r>    4.6716    1.0000 </r>
       <r>    4.7670    1.0000 </r>
       <r>    5.1304    1.0000 </r>
       <r>    5.5367    1.0179 </r>
       <r>    9.2468   -0.0000 </r>
       <r>   18.5628    0.0000 </r>
       <r>   19.2609    0.0000 </r>
       <r>   22.5771    0.0000 </r>
       <r>   24.6552    0.0000 </r>
       <r>   25.1004    0.0000 </r>
       <r>   27.2096    0.0000 </r>
       <r>   27.3659    0.0000 </r>
       <r>   29.8205    0.0000 </r>
      </set>
      <set comment="kpoint 17">
       <r>   -0.0549    1.0000 </r>
       <r>    1.6828    1.0000 </r>
       <r>    2.1146    1.0000 </r>
       <r>    3.4933    1.0000 </r>
       <r>    3.6085    1.0000 </r>
       <r>    3.8857    1.0000 </r>
       <r>    4.3850    1.0000 </r>
       <r>    4.4162    1.0000 </r>
       <r>    4.5235    1.0000 </r>
       <r>    5.2840    1.0001 </r>
       <r>    5.3597    1.0007 </r>
       <r>    8.1272   -0.0000 </r>
       <r>   19.4713    0.0000 </r>
       <r>   20.2661    0.0000 </r>
       <r>   22.9021    0.0000 </r>
       <r>   24.1726    0.0000 </r>
       <r>   25.0365    0.0000 </r>
       <r>   26.1400    0.0000 </r>
       <r>   26.1897    0.0000 </r>
       <r>   28.7083    0.0000 </r>
      </set>
      <set comment="kpoint 18">
       <r>    0.5146    1.0000 </r>
       <r>    1.6151    1.0000 </r>
       <r>    2.4010    1.0000 </r>
       <r>    3.2778    1.0000 </r>
       <r>    3.7013    1.0000 </r>
       <r>    3.9028    1.0000 </r>
       <r>    4.1871    1.0000 </r>
       <r>    4.3127    1.0000 </r>
       <r>    4.5736    1.0000 </r>
       <r>    5.1693    1.0000 </r>
       <r>    5.5135    1.0133 </r>
       <r>    7.1709   -0.0000 </r>
       <r>   20.4181    0.0000 </r>
       <r>   21.3471    0.0000 </r>
       <r>   23.2581    0.0000 </r>
       <r>   23.3134    0.0000 </r>
       <r>   24.9019    0.0000 </r>
       <r>   25.2658    0.0000 </r>
       <r>   25.5081    0.0000 </r>
       <r>   27.7057    0.0000 </r>
      </set>
      <set comment="kpoint 19">
       <r>    1.0185    1.0000 </r>
       <r>    1.3965    1.0000 </r>
       <r>    2.6991    1.0000 </r>
       <r>    2.9974    1.0000 </r>
       <r>    3.8278    1.0000 </r>
       <r>    3.9899    1.0000 </r>
       <r>    3.9996    1.0000 </r>
       <r>    4.1382    1.0000 </r>
       <r>    4.7706    1.0000 </r>
       <r>    4.9709    1.0000 </r>
       <r>    5.8718    0.5327 </r>
       <r>    6.4148   -0.0005 </r>
       <r>   21.3784    0.0000 </r>
       <r>   22.3293    0.0000 </r>
       <r>   22.4890    0.0000 </r>
       <r>   23.6787    0.0000 </r>
       <r>   23.8305    0.0000 </r>
       <r>   24.4764    0.0000 </r>
       <r>   26.1013    0.0000 </r>
       <r>   26.8332    0.0000 </r>
      </set>
      <set comment="kpoint 20">
       <r>   -2.1325    1.0000 </r>
       <r>    1.1905    1.0000 </r>
       <r>    1.2097    1.0000 </r>
       <r>    3.4452    1.0000 </r>
       <r>    3.5507    1.0000 </r>
       <r>    3.8130    1.0000 </r>
       <r>    4.6780    1.0000 </r>
       <r>    4.7973    1.0000 </r>
       <r>    5.4896    1.0094 </r>
       <r>    5.6259    1.0352 </r>
       <r>    6.0329    0.0190 </r>
       <r>   14.4248    0.0000 </r>
       <r>   15.0822    0.0000 </r>
       <r>   16.6758    0.0000 </r>
       <r>   22.1588    0.0000 </r>
       <r>   23.4117    0.0000 </r>
       <r>   28.1619    0.0000 </r>
       <r>   28.3437    0.0000 </r>
       <r>   30.1894    0.0000 </r>
       <r>   30.6483    0.0000 </r>
      </set>
      <set comment="kpoint 21">
       <r>   -1.8567    1.0000 </r>
       <r>    1.2958    1.0000 </r>
       <r>    1.3340    1.0000 </r>
       <r>    3.3945    1.0000 </r>
       <r>    3.5355    1.0000 </r>
       <r>    3.9412    1.0000 </r>
       <r>    4.6000    1.0000 </r>
       <r>    4.8306    1.0000 </r>
       <r>    5.2388    1.0000 </r>
       <r>    5.4204    1.0027 </r>
       <r>    6.0208    0.0379 </r>
       <r>   13.3352    0.0000 </r>
       <r>   15.3170    0.0000 </r>
       <r>   17.1573    0.0000 </r>
       <r>   22.3317    0.0000 </r>
       <r>   24.1828    0.0000 </r>
       <r>   27.2275    0.0000 </r>
       <r>   29.0982    0.0000 </r>
       <r>   29.6668    0.0000 </r>
       <r>   30.3797    0.0000 </r>
      </set>
      <set comment="kpoint 22">
       <r>   -1.4825    1.0000 </r>
       <r>    1.4298    1.0000 </r>
       <r>    1.4947    1.0000 </r>
       <r>    3.3622    1.0000 </r>
       <r>    3.5198    1.0000 </r>
       <r>    4.0861    1.0000 </r>
       <r>    4.4736    1.0000 </r>
       <r>    4.8979    1.0000 </r>
       <r>    4.9651    1.0000 </r>
       <r>    5.1771    1.0000 </r>
       <r>    5.9610    0.1851 </r>
       <r>   12.0000    0.0000 </r>
       <r>   15.8754    0.0000 </r>
       <r>   17.7977    0.0000 </r>
       <r>   22.4989    0.0000 </r>
       <r>   24.8053    0.0000 </r>
       <r>   26.0802    0.0000 </r>
       <r>   28.9143    0.0000 </r>
       <r>   29.7142    0.0000 </r>
       <r>   30.5025    0.0000 </r>
      </set>
      <set comment="kpoint 23">
       <r>   -1.0237    1.0000 </r>
       <r>    1.5701    1.0000 </r>
       <r>    1.6867    1.0000 </r>
       <r>    3.3514    1.0000 </r>
       <r>    3.5011    1.0000 </r>
       <r>    4.2466    1.0000 </r>
       <r>    4.3252    1.0000 </r>
       <r>    4.6856    1.0000 </r>
       <r>    4.9252    1.0000 </r>
       <r>    4.9861    1.0000 </r>
       <r>    5.8605    0.5803 </r>
       <r>   10.6749   -0.0000 </r>
       <r>   16.5554    0.0000 </r>
       <r>   18.5738    0.0000 </r>
       <r>   22.6990    0.0000 </r>
       <r>   24.9587    0.0000 </r>
       <r>   25.2928    0.0000 </r>
       <r>   28.0151    0.0000 </r>
       <r>   28.7028    0.0000 </r>
       <r>   32.2670    0.0000 </r>
      </set>
      <set comment="kpoint 24">
       <r>   -0.5015    1.0000 </r>
       <r>    1.6803    1.0000 </r>
       <r>    1.9084    1.0000 </r>
       <r>    3.3664    1.0000 </r>
       <r>    3.4625    1.0000 </r>
       <r>    4.1864    1.0000 </r>
       <r>    4.4147    1.0000 </r>
       <r>    4.4212    1.0000 </r>
       <r>    4.6897    1.0000 </r>
       <r>    5.0996    1.0000 </r>
       <r>    5.7269    0.9800 </r>
       <r>    9.4212   -0.0000 </r>
       <r>   17.3187    0.0000 </r>
       <r>   19.4636    0.0000 </r>
       <r>   22.9480    0.0000 </r>
       <r>   23.8777    0.0000 </r>
       <r>   25.7402    0.0000 </r>
       <r>   27.0815    0.0000 </r>
       <r>   27.5239    0.0000 </r>
       <r>   31.2402    0.0000 </r>
      </set>
      <set comment="kpoint 25">
       <r>    0.0530    1.0000 </r>
       <r>    1.7193    1.0000 </r>
       <r>    2.1557    1.0000 </r>
       <r>    3.3667    1.0000 </r>
       <r>    3.4110    1.0000 </r>
       <r>    4.1026    1.0000 </r>
       <r>    4.1642    1.0000 </r>
       <r>    4.4907    1.0000 </r>
       <r>    4.6075    1.0000 </r>
       <r>    5.2587    1.0001 </r>
       <r>    5.5673    1.0249 </r>
       <r>    8.2798   -0.0000 </r>
       <r>   18.1431    0.0000 </r>
       <r>   20.4488    0.0000 </r>
       <r>   22.8372    0.0000 </r>
       <r>   23.2593    0.0000 </r>
       <r>   26.1931    0.0000 </r>
       <r>   26.2240    0.0000 </r>
       <r>   26.2875    0.0000 </r>
       <r>   30.1555    0.0000 </r>
      </set>
      <set comment="kpoint 26">
       <r>    0.5957    1.0000 </r>
       <r>    1.6463    1.0000 </r>
       <r>    2.4204    1.0000 </r>
       <r>    3.1906    1.0000 </r>
       <r>    3.4891    1.0000 </r>
       <r>    3.9424    1.0000 </r>
       <r>    4.0984    1.0000 </r>
       <r>    4.3384    1.0000 </r>
       <r>    4.8018    1.0000 </r>
       <r>    5.3888    1.0014 </r>
       <r>    5.5048    1.0118 </r>
       <r>    7.2896   -0.0000 </r>
       <r>   19.0137    0.0000 </r>
       <r>   21.5133    0.0000 </r>
       <r>   21.8328    0.0000 </r>
       <r>   23.6465    0.0000 </r>
       <r>   25.0453    0.0000 </r>
       <r>   25.3940    0.0000 </r>
       <r>   26.7901    0.0000 </r>
       <r>   29.1526    0.0000 </r>
      </set>
      <set comment="kpoint 27">
       <r>    1.0722    1.0000 </r>
       <r>    1.4319    1.0000 </r>
       <r>    2.6917    1.0000 </r>
       <r>    2.9554    1.0000 </r>
       <r>    3.6030    1.0000 </r>
       <r>    3.7544    1.0000 </r>
       <r>    4.1491    1.0000 </r>
       <r>    4.2288    1.0000 </r>
       <r>    5.0002    1.0000 </r>
       <r>    5.1977    1.0000 </r>
       <r>    5.8975    0.4241 </r>
       <r>    6.4880   -0.0001 </r>
       <r>   19.9213    0.0000 </r>
       <r>   20.8613    0.0000 </r>
       <r>   22.6428    0.0000 </r>
       <r>   23.8245    0.0000 </r>
       <r>   24.1236    0.0000 </r>
       <r>   24.7033    0.0000 </r>
       <r>   27.4626    0.0000 </r>
       <r>   28.2510    0.0000 </r>
      </set>
      <set comment="kpoint 28">
       <r>   -1.5895    1.0000 </r>
       <r>    1.3830    1.0000 </r>
       <r>    1.4675    1.0000 </r>
       <r>    3.3066    1.0000 </r>
       <r>    3.5043    1.0000 </r>
       <r>    4.1036    1.0000 </r>
       <r>    4.6084    1.0000 </r>
       <r>    4.8120    1.0000 </r>
       <r>    4.9657    1.0000 </r>
       <r>    5.2248    1.0000 </r>
       <r>    6.0655   -0.0163 </r>
       <r>   13.2249    0.0000 </r>
       <r>   14.5204    0.0000 </r>
       <r>   17.6056    0.0000 </r>
       <r>   22.5437    0.0000 </r>
       <r>   25.1495    0.0000 </r>
       <r>   26.0621    0.0000 </r>
       <r>   29.1920    0.0000 </r>
       <r>   29.8307    0.0000 </r>
       <r>   30.3834    0.0000 </r>
      </set>
      <set comment="kpoint 29">
       <r>   -1.2290    1.0000 </r>
       <r>    1.4920    1.0000 </r>
       <r>    1.6389    1.0000 </r>
       <r>    3.2394    1.0000 </r>
       <r>    3.4730    1.0000 </r>
       <r>    4.2787    1.0000 </r>
       <r>    4.5498    1.0000 </r>
       <r>    4.6788    1.0000 </r>
       <r>    4.8538    1.0000 </r>
       <r>    5.0008    1.0000 </r>
       <r>    6.0587   -0.0107 </r>
       <r>   12.1920    0.0000 </r>
       <r>   14.7220    0.0000 </r>
       <r>   18.2078    0.0000 </r>
       <r>   22.7143    0.0000 </r>
       <r>   24.8575    0.0000 </r>
       <r>   26.0031    0.0000 </r>
       <r>   28.5389    0.0000 </r>
       <r>   29.9609    0.0000 </r>
       <r>   31.0175    0.0000 </r>
      </set>
      <set comment="kpoint 30">
       <r>   -0.7910    1.0000 </r>
       <r>    1.6049    1.0000 </r>
       <r>    1.8377    1.0000 </r>
       <r>    3.1971    1.0000 </r>
       <r>    3.4419    1.0000 </r>
       <r>    4.3946    1.0000 </r>
       <r>    4.4538    1.0000 </r>
       <r>    4.4639    1.0000 </r>
       <r>    4.7810    1.0000 </r>
       <r>    4.9370    1.0000 </r>
       <r>    6.0041    0.0699 </r>
       <r>   10.9128   -0.0000 </r>
       <r>   15.2958    0.0000 </r>
       <r>   18.9451    0.0000 </r>
       <r>   22.8999    0.0000 </r>
       <r>   23.6747    0.0000 </r>
       <r>   26.6751    0.0000 </r>
       <r>   27.7497    0.0000 </r>
       <r>   28.9841    0.0000 </r>
       <r>   32.5642    0.0000 </r>
      </set>
      <set comment="kpoint 31">
       <r>   -0.2990    1.0000 </r>
       <r>    1.6918    1.0000 </r>
       <r>    2.0542    1.0000 </r>
       <r>    3.1843    1.0000 </r>
       <r>    3.3986    1.0000 </r>
       <r>    4.1252    1.0000 </r>
       <r>    4.3646    1.0000 </r>
       <r>    4.5931    1.0000 </r>
       <r>    4.6573    1.0000 </r>
       <r>    5.0502    1.0000 </r>
       <r>    5.9081    0.3804 </r>
       <r>    9.6583   -0.0000 </r>
       <r>   15.9926    0.0000 </r>
       <r>   19.7985    0.0000 </r>
       <r>   22.5346    0.0000 </r>
       <r>   23.1249    0.0000 </r>
       <r>   26.9147    0.0000 </r>
       <r>   27.2517    0.0000 </r>
       <r>   27.7802    0.0000 </r>
       <r>   32.6958    0.0000 </r>
      </set>
      <set comment="kpoint 32">
       <r>    0.2135    1.0000 </r>
       <r>    1.7145    1.0000 </r>
       <r>    2.2841    1.0000 </r>
       <r>    3.2047    1.0000 </r>
       <r>    3.3167    1.0000 </r>
       <r>    3.8810    1.0000 </r>
       <r>    4.3153    1.0000 </r>
       <r>    4.4580    1.0000 </r>
       <r>    4.8560    1.0000 </r>
       <r>    5.2162    1.0000 </r>
       <r>    5.7780    0.8742 </r>
       <r>    8.4943   -0.0000 </r>
       <r>   16.7652    0.0000 </r>
       <r>   20.7513    0.0000 </r>
       <r>   21.4439    0.0000 </r>
       <r>   23.4068    0.0000 </r>
       <r>   26.1085    0.0000 </r>
       <r>   26.5258    0.0000 </r>
       <r>   27.8246    0.0000 </r>
       <r>   31.7442    0.0000 </r>
      </set>
      <set comment="kpoint 33">
       <r>    0.7034    1.0000 </r>
       <r>    1.6381    1.0000 </r>
       <r>    2.5221    1.0000 </r>
       <r>    3.1766    1.0000 </r>
       <r>    3.2616    1.0000 </r>
       <r>    3.6688    1.0000 </r>
       <r>    4.3119    1.0000 </r>
       <r>    4.3806    1.0000 </r>
       <r>    5.0563    1.0000 </r>
       <r>    5.4896    1.0094 </r>
       <r>    5.6213    1.0348 </r>
       <r>    7.4615   -0.0000 </r>
       <r>   17.5973    0.0000 </r>
       <r>   20.4049    0.0000 </r>
       <r>   21.7884    0.0000 </r>
       <r>   23.7609    0.0000 </r>
       <r>   25.2787    0.0000 </r>
       <r>   25.3755    0.0000 </r>
       <r>   28.4484    0.0000 </r>
       <r>   30.8098    0.0000 </r>
      </set>
      <set comment="kpoint 34">
       <r>    1.1248    1.0000 </r>
       <r>    1.4420    1.0000 </r>
       <r>    2.7598    1.0000 </r>
       <r>    2.9843    1.0000 </r>
       <r>    3.3575    1.0000 </r>
       <r>    3.4934    1.0000 </r>
       <r>    4.3278    1.0000 </r>
       <r>    4.3459    1.0000 </r>
       <r>    5.2542    1.0000 </r>
       <r>    5.4445    1.0044 </r>
       <r>    5.9382    0.2633 </r>
       <r>    6.5984   -0.0000 </r>
       <r>   18.4820    0.0000 </r>
       <r>   19.4178    0.0000 </r>
       <r>   22.8965    0.0000 </r>
       <r>   24.0640    0.0000 </r>
       <r>   24.2007    0.0000 </r>
       <r>   24.7376    0.0000 </r>
       <r>   29.1497    0.0000 </r>
       <r>   29.9386    0.0000 </r>
      </set>
      <set comment="kpoint 35">
       <r>   -0.8908    1.0000 </r>
       <r>    1.5634    1.0000 </r>
       <r>    1.8272    1.0000 </r>
       <r>    3.1380    1.0000 </r>
       <r>    3.4372    1.0000 </r>
       <r>    4.3855    1.0000 </r>
       <r>    4.4808    1.0000 </r>
       <r>    4.5947    1.0000 </r>
       <r>    4.8091    1.0000 </r>
       <r>    4.8349    1.0000 </r>
       <r>    6.1063   -0.0340 </r>
       <r>   11.9736    0.0000 </r>
       <r>   14.0582    0.0000 </r>
       <r>   18.7647    0.0000 </r>
       <r>   22.8743    0.0000 </r>
       <r>   23.6046    0.0000 </r>
       <r>   27.1686    0.0000 </r>
[...]
       </set>
       <set comment="band 16">
        <r>  0.0000  0.0852  0.0000  0.0852  0.0000  0.1103  0.0000  0.1103  0.0009 </r>
        <r>  0.0000  0.0852  0.0000  0.0852  0.0000  0.1103  0.0000  0.1103  0.0009 </r>
       </set>
       <set comment="band 17">
        <r>  0.2609  0.0007  0.1083  0.0007  0.0230  0.0004  0.0043  0.0004  0.0000 </r>
        <r>  0.2609  0.0007  0.1083  0.0007  0.0230  0.0004  0.0043  0.0004  0.0000 </r>
       </set>
       <set comment="band 18">
        <r>  0.1768  0.0263  0.0869  0.0263  0.0240  0.0253  0.0025  0.0253  0.0000 </r>
        <r>  0.1768  0.0263  0.0869  0.0263  0.0240  0.0253  0.0025  0.0253  0.0000 </r>
       </set>
       <set comment="band 19">
        <r>  0.0002  0.0002  0.0030  0.0002  0.0035  0.0570  0.0162  0.0570  0.0000 </r>
        <r>  0.0002  0.0002  0.0030  0.0002  0.0035  0.0570  0.0162  0.0570  0.0000 </r>
       </set>
       <set comment="band 20">
        <r>  0.0000  0.0001  0.0000  0.0001  0.0000  0.0605  0.0000  0.0605  0.0007 </r>
        <r>  0.0000  0.0001  0.0000  0.0001  0.0000  0.0605  0.0000  0.0605  0.0007 </r>
       </set>
      </set>
      <set comment="kpoint 217">
       <set comment="band 1">
        <r>  0.0141  0.0107  0.0107  0.0107  0.1374  0.1373  0.0000  0.1373  0.0000 </r>
        <r>  0.0141  0.0107  0.0107  0.0107  0.1374  0.1373  0.0000  0.1373  0.0000 </r>
       </set>
       <set comment="band 2">
        <r>  0.0000  0.0078  0.0351  0.0093  0.2623  0.0702  0.0112  0.0593  0.0000 </r>
        <r>  0.0000  0.0078  0.0351  0.0093  0.2623  0.0702  0.0112  0.0593  0.0000 </r>
       </set>
       <set comment="band 3">
        <r>  0.0000  0.0268  0.0000  0.0254  0.0002  0.1904  0.0000  0.2013  0.0112 </r>
        <r>  0.0000  0.0268  0.0000  0.0254  0.0002  0.1904  0.0000  0.2013  0.0112 </r>
       </set>
       <set comment="band 4">
        <r>  0.0291  0.0396  0.0392  0.0396  0.0916  0.0934  0.0000  0.0935  0.0000 </r>
        <r>  0.0291  0.0396  0.0392  0.0396  0.0916  0.0934  0.0000  0.0935  0.0000 </r>
       </set>
       <set comment="band 5">
        <r>  0.0000  0.0151  0.0641  0.0170  0.2141  0.0567  0.0228  0.0505  0.0000 </r>
        <r>  0.0000  0.0151  0.0641  0.0170  0.2141  0.0567  0.0228  0.0505  0.0000 </r>
       </set>
       <set comment="band 6">
        <r>  0.0000  0.0490  0.0000  0.0471  0.0001  0.1575  0.0000  0.1637  0.0228 </r>
        <r>  0.0000  0.0490  0.0000  0.0471  0.0001  0.1575  0.0000  0.1637  0.0228 </r>
       </set>
       <set comment="band 7">
        <r>  0.0000  0.0000  0.0001  0.0000  0.0215  0.0040  0.4570  0.0070  0.0031 </r>
        <r>  0.0000  0.0000  0.0001  0.0000  0.0215  0.0040  0.4570  0.0070  0.0031 </r>
       </set>
       <set comment="band 8">
        <r>  0.0000  0.0001  0.0000  0.0001  0.0001  0.0177  0.0031  0.0147  0.4570 </r>
        <r>  0.0000  0.0001  0.0000  0.0001  0.0001  0.0177  0.0031  0.0147  0.4570 </r>
       </set>
       <set comment="band 9">
        <r>  0.0000  0.0000  0.0000  0.0000  0.0100  0.0018  0.4745  0.0033  0.0034 </r>
        <r>  0.0000  0.0000  0.0000  0.0000  0.0100  0.0018  0.4745  0.0033  0.0034 </r>
       </set>
       <set comment="band 10">
        <r>  0.0000  0.0000  0.0000  0.0000  0.0001  0.0082  0.0034  0.0068  0.4745 </r>
        <r>  0.0000  0.0000  0.0000  0.0000  0.0001  0.0082  0.0034  0.0068  0.4745 </r>
       </set>
       <set comment="band 11">
        <r>  0.0379  0.0419  0.0419  0.0419  0.0914  0.0914  0.0000  0.0914  0.0000 </r>
        <r>  0.0379  0.0419  0.0419  0.0419  0.0914  0.0914  0.0000  0.0914  0.0000 </r>
       </set>
       <set comment="band 12">
        <r>  0.0000  0.0281  0.1223  0.0332  0.1467  0.0398  0.0155  0.0337  0.0000 </r>
        <r>  0.0000  0.0281  0.1223  0.0332  0.1467  0.0398  0.0155  0.0337  0.0000 </r>
       </set>
       <set comment="band 13">
        <r>  0.0000  0.0943  0.0001  0.0891  0.0001  0.1070  0.0000  0.1131  0.0155 </r>
        <r>  0.0000  0.0943  0.0001  0.0891  0.0001  0.1070  0.0000  0.1131  0.0155 </r>
       </set>
       <set comment="band 14">
        <r>  0.2594  0.0077  0.0077  0.0077  0.0442  0.0442  0.0000  0.0442  0.0000 </r>
        <r>  0.2594  0.0077  0.0077  0.0077  0.0442  0.0442  0.0000  0.0442  0.0000 </r>
       </set>
       <set comment="band 15">
        <r>  0.0000  0.0251  0.1169  0.0337  0.1444  0.0416  0.0093  0.0310  0.0000 </r>
        <r>  0.0000  0.0251  0.1169  0.0337  0.1444  0.0416  0.0093  0.0310  0.0000 </r>
       </set>
       <set comment="band 16">
        <r>  0.0000  0.0920  0.0002  0.0834  0.0003  0.1030  0.0000  0.1137  0.0093 </r>
        <r>  0.0000  0.0920  0.0002  0.0834  0.0003  0.1030  0.0000  0.1137  0.0093 </r>
       </set>
       <set comment="band 17">
        <r>  0.3338  0.0225  0.0225  0.0225  0.0001  0.0001  0.0000  0.0001  0.0000 </r>
        <r>  0.3338  0.0225  0.0225  0.0225  0.0001  0.0001  0.0000  0.0001  0.0000 </r>
       </set>
       <set comment="band 18">
        <r>  0.1241  0.0533  0.0533  0.0533  0.0351  0.0351  0.0000  0.0351  0.0000 </r>
        <r>  0.1241  0.0533  0.0533  0.0533  0.0351  0.0351  0.0000  0.0351  0.0000 </r>
       </set>
       <set comment="band 19">
        <r>  0.0000  0.0083  0.0001  0.0064  0.0004  0.0235  0.0008  0.0302  0.0691 </r>
        <r>  0.0000  0.0083  0.0001  0.0064  0.0004  0.0235  0.0008  0.0302  0.0691 </r>
       </set>
       <set comment="band 20">
        <r>  0.0000  0.0016  0.0098  0.0034  0.0357  0.0126  0.0691  0.0059  0.0008 </r>
        <r>  0.0000  0.0016  0.0098  0.0034  0.0357  0.0126  0.0691  0.0059  0.0008 </r>
       </set>
      </set>
      <set comment="kpoint 218">
       <set comment="band 1">
        <r>  0.0109  0.0189  0.0189  0.0054  0.1511  0.0972  0.0005  0.1510  0.0015 </r>
        <r>  0.0109  0.0189  0.0189  0.0054  0.1511  0.0972  0.0005  0.1510  0.0015 </r>
       </set>
       <set comment="band 2">
        <r>  0.0095  0.0268  0.0268  0.0033  0.1510  0.0782  0.0012  0.1507  0.0037 </r>
        <r>  0.0095  0.0268  0.0268  0.0033  0.1510  0.0782  0.0012  0.1507  0.0037 </r>
       </set>
       <set comment="band 3">
        <r>  0.0000  0.0328  0.0328  0.0000  0.1853  0.0000  0.0106  0.1855  0.0035 </r>
        <r>  0.0000  0.0328  0.0328  0.0000  0.1853  0.0000  0.0106  0.1855  0.0035 </r>
       </set>
       <set comment="band 4">
        <r>  0.0000  0.0401  0.0401  0.0000  0.1736  0.0000  0.0134  0.1737  0.0045 </r>
        <r>  0.0000  0.0401  0.0401  0.0000  0.1736  0.0000  0.0134  0.1737  0.0045 </r>
       </set>
       <set comment="band 5">
        <r>  0.0083  0.0135  0.0135  0.0761  0.0193  0.2874  0.0000  0.0193  0.0001 </r>
        <r>  0.0083  0.0135  0.0135  0.0761  0.0193  0.2874  0.0000  0.0193  0.0001 </r>
       </set>
       <set comment="band 6">
        <r>  0.0016  0.0143  0.0142  0.0741  0.0300  0.2675  0.0018  0.0300  0.0054 </r>
        <r>  0.0016  0.0143  0.0142  0.0741  0.0300  0.2675  0.0018  0.0300  0.0054 </r>
       </set>
       <set comment="band 7">
        <r>  0.0000  0.0001  0.0001  0.0000  0.0126  0.0000  0.3516  0.0125  0.1161 </r>
        <r>  0.0000  0.0001  0.0001  0.0000  0.0126  0.0000  0.3516  0.0125  0.1161 </r>
       </set>
       <set comment="band 8">
        <r>  0.0000  0.0000  0.0000  0.0000  0.0097  0.0000  0.3559  0.0097  0.1176 </r>
        <r>  0.0000  0.0000  0.0000  0.0000  0.0097  0.0000  0.3559  0.0097  0.1176 </r>
       </set>
       <set comment="band 9">
        <r>  0.0000  0.0000  0.0000  0.0000  0.0044  0.0045  0.1192  0.0044  0.3608 </r>
        <r>  0.0000  0.0000  0.0000  0.0000  0.0044  0.0045  0.1192  0.0044  0.3608 </r>
       </set>
       <set comment="band 10">
        <r>  0.0000  0.0000  0.0000  0.0000  0.0034  0.0003  0.1208  0.0034  0.3655 </r>
        <r>  0.0000  0.0000  0.0000  0.0000  0.0034  0.0003  0.1208  0.0034  0.3655 </r>
       </set>
       <set comment="band 11">
        <r>  0.0312  0.0393  0.0393  0.0649  0.0760  0.1025  0.0003  0.0760  0.0009 </r>
        <r>  0.0312  0.0393  0.0393  0.0649  0.0760  0.1025  0.0003  0.0760  0.0009 </r>
       </set>
       <set comment="band 12">
        <r>  0.0149  0.0362  0.0362  0.0942  0.0590  0.1178  0.0015  0.0590  0.0045 </r>
        <r>  0.0149  0.0362  0.0362  0.0942  0.0590  0.1178  0.0015  0.0590  0.0045 </r>
       </set>
       <set comment="band 13">
        <r>  0.0000  0.0916  0.0916  0.0000  0.1093  0.0000  0.0096  0.1093  0.0032 </r>
        <r>  0.0000  0.0916  0.0916  0.0000  0.1093  0.0000  0.0096  0.1093  0.0032 </r>
       </set>
       <set comment="band 14">
        <r>  0.0000  0.0902  0.0902  0.0000  0.1089  0.0000  0.0081  0.1089  0.0027 </r>
        <r>  0.0000  0.0902  0.0902  0.0000  0.1089  0.0000  0.0081  0.1089  0.0027 </r>
       </set>
       <set comment="band 15">
        <r>  0.2085  0.0044  0.0044  0.0502  0.0329  0.0775  0.0000  0.0329  0.0000 </r>
        <r>  0.2085  0.0044  0.0044  0.0502  0.0329  0.0775  0.0000  0.0329  0.0000 </r>
       </set>
       <set comment="band 16">
        <r>  0.1049  0.0082  0.0082  0.1052  0.0332  0.1098  0.0005  0.0332  0.0014 </r>
        <r>  0.1049  0.0082  0.0082  0.1052  0.0332  0.1098  0.0005  0.0332  0.0014 </r>
       </set>
       <set comment="band 17">
        <r>  0.2481  0.0468  0.0468  0.0065  0.0137  0.0216  0.0003  0.0137  0.0009 </r>
        <r>  0.2481  0.0468  0.0468  0.0065  0.0137  0.0216  0.0003  0.0137  0.0009 </r>
       </set>
       <set comment="band 18">
        <r>  0.1648  0.0530  0.0530  0.0328  0.0272  0.0350  0.0001  0.0272  0.0003 </r>
        <r>  0.1648  0.0530  0.0530  0.0328  0.0272  0.0350  0.0001  0.0272  0.0003 </r>
       </set>
       <set comment="band 19">
        <r>  0.0000  0.0046  0.0046  0.0000  0.0286  0.0000  0.0322  0.0286  0.0107 </r>
        <r>  0.0000  0.0046  0.0046  0.0000  0.0286  0.0000  0.0322  0.0286  0.0107 </r>
       </set>
       <set comment="band 20">
        <r>  0.0000  0.0016  0.0016  0.0000  0.0201  0.0000  0.0113  0.0201  0.0037 </r>
        <r>  0.0000  0.0016  0.0016  0.0000  0.0201  0.0000  0.0112  0.0201  0.0038 </r>
       </set>
      </set>
      <set comment="kpoint 219">
       <set comment="band 1">
        <r>  0.0069  0.0097  0.0345  0.0097  0.2056  0.0916  0.0034  0.0916  0.0000 </r>
        <r>  0.0069  0.0097  0.0345  0.0097  0.2056  0.0916  0.0034  0.0916  0.0000 </r>
       </set>
       <set comment="band 2">
        <r>  0.0070  0.0000  0.0709  0.0000  0.3572  0.0007  0.0102  0.0007  0.0000 </r>
        <r>  0.0070  0.0000  0.0709  0.0000  0.3572  0.0007  0.0102  0.0007  0.0000 </r>
       </set>
       <set comment="band 3">
        <r>  0.0000  0.0273  0.0000  0.0273  0.0000  0.1997  0.0000  0.1997  0.0013 </r>
        <r>  0.0000  0.0273  0.0000  0.0273  0.0000  0.1997  0.0000  0.1997  0.0013 </r>
       </set>
       <set comment="band 4">
        <r>  0.0009  0.0177  0.0373  0.0177  0.1515  0.1076  0.0083  0.1076  0.0000 </r>
        <r>  0.0009  0.0177  0.0373  0.0177  0.1515  0.1076  0.0083  0.1076  0.0000 </r>
       </set>
       <set comment="band 5">
        <r>  0.0026  0.0507  0.0009  0.0507  0.0001  0.1670  0.0003  0.1670  0.0000 </r>
        <r>  0.0026  0.0507  0.0009  0.0507  0.0001  0.1670  0.0003  0.1670  0.0000 </r>
       </set>
       <set comment="band 6">
        <r>  0.0000  0.0506  0.0000  0.0506  0.0000  0.1681  0.0000  0.1681  0.0026 </r>
        <r>  0.0000  0.0506  0.0000  0.0506  0.0000  0.1681  0.0000  0.1681  0.0026 </r>
       </set>
       <set comment="band 7">
        <r>  0.0000  0.0000  0.0001  0.0000  0.0153  0.0006  0.4767  0.0006  0.0000 </r>
        <r>  0.0000  0.0000  0.0001  0.0000  0.0153  0.0006  0.4767  0.0006  0.0000 </r>
       </set>
       <set comment="band 8">
        <r>  0.0000  0.0000  0.0000  0.0000  0.0140  0.0003  0.4787  0.0003  0.0000 </r>
        <r>  0.0000  0.0000  0.0000  0.0000  0.0140  0.0003  0.4787  0.0003  0.0000 </r>
       </set>
       <set comment="band 9">
        <r>  0.0000  0.0000  0.0000  0.0000  0.0000  0.0019  0.0000  0.0019  0.4898 </r>
        <r>  0.0000  0.0000  0.0000  0.0000  0.0000  0.0019  0.0000  0.0019  0.4898 </r>
       </set>
       <set comment="band 10">
        <r>  0.0000  0.0000  0.0000  0.0000  0.0000  0.0009  0.0000  0.0009  0.4919 </r>
        <r>  0.0000  0.0000  0.0000  0.0000  0.0000  0.0009  0.0000  0.0009  0.4919 </r>
       </set>
       <set comment="band 11">
        <r>  0.0198  0.0689  0.0234  0.0689  0.0433  0.0995  0.0004  0.0995  0.0000 </r>
        <r>  0.0198  0.0689  0.0234  0.0689  0.0433  0.0995  0.0004  0.0995  0.0000 </r>
       </set>
       <set comment="band 12">
        <r>  0.0000  0.0908  0.0000  0.0908  0.0000  0.1174  0.0000  0.1174  0.0018 </r>
        <r>  0.0000  0.0908  0.0000  0.0908  0.0000  0.1174  0.0000  0.1174  0.0018 </r>
       </set>
       <set comment="band 13">
        <r>  0.0471  0.0074  0.1321  0.0074  0.2035  0.0064  0.0079  0.0064  0.0000 </r>
        <r>  0.0471  0.0074  0.1321  0.0074  0.2035  0.0064  0.0079  0.0064  0.0000 </r>
       </set>
       <set comment="band 14">
        <r>  0.0457  0.0206  0.1088  0.0206  0.1717  0.0200  0.0067  0.0200  0.0000 </r>
        <r>  0.0457  0.0206  0.1088  0.0206  0.1717  0.0200  0.0067  0.0200  0.0000 </r>
       </set>
       <set comment="band 15">
        <r>  0.1128  0.0577  0.0004  0.0577  0.0036  0.0870  0.0002  0.0870  0.0000 </r>
        <r>  0.1128  0.0577  0.0004  0.0577  0.0036  0.0870  0.0002  0.0870  0.0000 </r>
       </set>
       <set comment="band 16">
        <r>  0.0000  0.0882  0.0000  0.0882  0.0000  0.1120  0.0000  0.1120  0.0011 </r>
        <r>  0.0000  0.0882  0.0000  0.0882  0.0000  0.1120  0.0000  0.1120  0.0011 </r>
       </set>
       <set comment="band 17">
        <r>  0.3286  0.0015  0.0548  0.0015  0.0145  0.0001  0.0009  0.0001  0.0000 </r>
        <r>  0.3286  0.0015  0.0548  0.0015  0.0145  0.0001  0.0009  0.0001  0.0000 </r>
       </set>
       <set comment="band 18">
        <r>  0.2357  0.0235  0.0547  0.0235  0.0213  0.0195  0.0006  0.0195  0.0000 </r>
        <r>  0.2357  0.0235  0.0547  0.0235  0.0213  0.0195  0.0006  0.0195  0.0000 </r>
       </set>
       <set comment="band 19">
        <r>  0.0000  0.0007  0.0030  0.0007  0.0086  0.0313  0.0160  0.0313  0.0000 </r>
        <r>  0.0000  0.0007  0.0030  0.0007  0.0086  0.0313  0.0160  0.0313  0.0000 </r>
       </set>
       <set comment="band 20">
        <r>  0.0000  0.0004  0.0000  0.0004  0.0000  0.0315  0.0000  0.0315  0.0009 </r>
        <r>  0.0000  0.0004  0.0000  0.0004  0.0000  0.0315  0.0000  0.0315  0.0009 </r>
       </set>
      </set>
      <set comment="kpoint 220">
       <set comment="band 1">
        <r>  0.0021  0.0203  0.0204  0.0203  0.1299  0.1297  0.0000  0.1297  0.0000 </r>
        <r>  0.0021  0.0203  0.0204  0.0203  0.1299  0.1297  0.0000  0.1297  0.0000 </r>
       </set>
       <set comment="band 2">
        <r>  0.0000  0.0103  0.0458  0.0126  0.2535  0.0697  0.0016  0.0572  0.0000 </r>
        <r>  0.0000  0.0103  0.0458  0.0126  0.2535  0.0697  0.0016  0.0572  0.0000 </r>
       </set>
       <set comment="band 3">
        <r>  0.0000  0.0354  0.0000  0.0332  0.0002  0.1838  0.0000  0.1963  0.0016 </r>
        <r>  0.0000  0.0354  0.0000  0.0332  0.0002  0.1838  0.0000  0.1963  0.0016 </r>
       </set>
       <set comment="band 4">
        <r>  0.0000  0.0127  0.0561  0.0154  0.2392  0.0658  0.0021  0.0542  0.0000 </r>
        <r>  0.0000  0.0127  0.0561  0.0154  0.2392  0.0658  0.0021  0.0542  0.0000 </r>
       </set>
       <set comment="band 5">
        <r>  0.0000  0.0435  0.0000  0.0407  0.0002  0.1738  0.0000  0.1854  0.0021 </r>
        <r>  0.0000  0.0435  0.0000  0.0407  0.0002  0.1738  0.0000  0.1854  0.0021 </r>
       </set>
       <set comment="band 6">
        <r>  0.0028  0.0307  0.0307  0.0307  0.1156  0.1159  0.0000  0.1159  0.0000 </r>
        <r>  0.0028  0.0307  0.0307  0.0307  0.1156  0.1159  0.0000  0.1159  0.0000 </r>
       </set>
       <set comment="band 7">
        <r>  0.0000  0.0000  0.0000  0.0000  0.0019  0.0004  0.4872  0.0006  0.0036 </r>
        <r>  0.0000  0.0000  0.0000  0.0000  0.0019  0.0004  0.4872  0.0006  0.0036 </r>
       </set>
       <set comment="band 8">
        <r>  0.0000  0.0000  0.0000  0.0000  0.0000  0.0016  0.0036  0.0013  0.4872 </r>
        <r>  0.0000  0.0000  0.0000  0.0000  0.0000  0.0016  0.0036  0.0013  0.4872 </r>
       </set>
       <set comment="band 9">
        <r>  0.0000  0.0000  0.0000  0.0000  0.0015  0.0003  0.4878  0.0005  0.0036 </r>
        <r>  0.0000  0.0000  0.0000  0.0000  0.0015  0.0003  0.4878  0.0005  0.0036 </r>
       </set>
       <set comment="band 10">
        <r>  0.0000  0.0000  0.0000  0.0000  0.0000  0.0012  0.0036  0.0010  0.4878 </r>
        <r>  0.0000  0.0000  0.0000  0.0000  0.0000  0.0012  0.0036  0.0010  0.4878 </r>
       </set>
       <set comment="band 11">
        <r>  0.0158  0.0562  0.0562  0.0562  0.0780  0.0780  0.0000  0.0780  0.0000 </r>
        <r>  0.0158  0.0562  0.0562  0.0562  0.0780  0.0780  0.0000  0.0780  0.0000 </r>
       </set>
       <set comment="band 12">
        <r>  0.0000  0.0255  0.1213  0.0356  0.1529  0.0449  0.0015  0.0321  0.0000 </r>
        <r>  0.0000  0.0255  0.1213  0.0356  0.1529  0.0449  0.0015  0.0321  0.0000 </r>
       </set>
       <set comment="band 13">
        <r>  0.0000  0.0961  0.0003  0.0859  0.0004  0.1084  0.0000  0.1212  0.0015 </r>
        <r>  0.0000  0.0961  0.0003  0.0859  0.0004  0.1084  0.0000  0.1212  0.0015 </r>
       </set>
       <set comment="band 14">
        <r>  0.0000  0.0247  0.1200  0.0359  0.1506  0.0450  0.0012  0.0310  0.0000 </r>
        <r>  0.0000  0.0247  0.1200  0.0359  0.1506  0.0450  0.0012  0.0310  0.0000 </r>
       </set>
       <set comment="band 15">
        <r>  0.0000  0.0957  0.0003  0.0845  0.0004  0.1061  0.0000  0.1201  0.0012 </r>
        <r>  0.0000  0.0957  0.0003  0.0845  0.0004  0.1061  0.0000  0.1201  0.0012 </r>
       </set>
       <set comment="band 16">
        <r>  0.0724  0.0451  0.0451  0.0451  0.0673  0.0673  0.0000  0.0673  0.0000 </r>
        <r>  0.0724  0.0451  0.0451  0.0451  0.0673  0.0673  0.0000  0.0673  0.0000 </r>
       </set>
       <set comment="band 17">
        <r>  0.3873  0.0052  0.0052  0.0052  0.0008  0.0008  0.0000  0.0008  0.0000 </r>
        <r>  0.3873  0.0052  0.0052  0.0052  0.0008  0.0008  0.0000  0.0008  0.0000 </r>
       </set>
       <set comment="band 18">
        <r>  0.3312  0.0151  0.0151  0.0151  0.0089  0.0089  0.0000  0.0089  0.0000 </r>
        <r>  0.3312  0.0151  0.0151  0.0151  0.0089  0.0089  0.0000  0.0089  0.0000 </r>
       </set>
       <set comment="band 19">
        <r>  0.0000  0.0000  0.0011  0.0008  0.0079  0.0061  0.0032  0.0001  0.0006 </r>
        <r>  0.0000  0.0000  0.0011  0.0008  0.0079  0.0061  0.0032  0.0001  0.0006 </r>
       </set>
       <set comment="band 20">
        <r>  0.0000  0.0038  0.0006  0.0013  0.0045  0.0096  0.0018  0.0272  0.0094 </r>
        <r>  0.0000  0.0038  0.0006  0.0013  0.0045  0.0096  0.0018  0.0272  0.0094 </r>
       </set>
      </set>
     </set>
    </set>
   </array>
  </projected>
 </calculation>
 <structure name="finalpos" >
  <crystal>
   <varray name="basis" >
    <v>       2.82793597      -0.00000000       0.00000000 </v>
    <v>       0.00000000       2.82793597       0.00000000 </v>
    <v>       0.00000000      -0.00000000       2.82793597 </v>
   </varray>
   <i name="volume">     22.61563143 </i>
   <varray name="rec_basis" >
    <v>       0.35361480      -0.00000000      -0.00000000 </v>
    <v>       0.00000000       0.35361480       0.00000000 </v>
    <v>      -0.00000000      -0.00000000       0.35361480 </v>
   </varray>
  </crystal>
  <varray name="positions" >
   <v>       0.00000000      -0.00000000      -0.00000000 </v>
   <v>       0.50000000       0.50000000       0.50000000 </v>
  </varray>
 </structure>
</modeling>
