 running on    4 total cores
 distrk:  each k-point on    4 cores,    1 groups
 distr:  one band on    1 cores,    4 groups
 vasp.6.2.0 18Jan21 (build Aug 12 2022 13:00:08) complex                        
  
 POSCAR found type information on POSCAR Fe
 POSCAR found :  1 types and       2 ions
 scaLAPACK will be used
 LDA part: xc-table for Pade appr. of Perdew
 -----------------------------------------------------------------------------
|                                                                             |
|           W    W    AA    RRRRR   N    N  II  N    N   GGGG   !!!           |
|           W    W   A  A   R    R  NN   N  II  NN   N  G    G  !!!           |
|           W    W  A    A  R    R  N N  N  II  N N  N  G       !!!           |
|           W WW W  AAAAAA  RRRRR   N  N N  II  N  N N  G  GGG   !            |
|           WW  WW  A    A  R   R   N   NN  II  N   NN  G    G                |
|           W    W  A    A  R    R  N    N  II  N    N   GGGG   !!!           |
|                                                                             |
|     The requested file  could not be found or opened for reading            |
|     k-point information. Automatic k-point generation is used as a          |
|     fallback, which may lead to unwanted results.                           |
|                                                                             |
 -----------------------------------------------------------------------------

 POSCAR, INCAR and KPOINTS ok, starting setup
 FFT: planning ...
 WAVECAR not read
 entering main loop
       N       E                     dE             d eps       ncg     rms          rms(c)
DAV:   1     0.646607688744E+02    0.64661E+02   -0.60690E+03 19588   0.817E+02
DAV:   2    -0.133146309978E+02   -0.77975E+02   -0.69278E+02 17892   0.168E+02
DAV:   3    -0.160653326161E+02   -0.27507E+01   -0.26920E+01 20064   0.403E+01
DAV:   4    -0.160861372203E+02   -0.20805E-01   -0.20799E-01 19116   0.332E+00
DAV:   5    -0.160863890951E+02   -0.25187E-03   -0.25187E-03 19860   0.347E-01    0.196E+01
DAV:   6    -0.165676298605E+02   -0.48124E+00   -0.51575E+00 19496   0.439E+01    0.613E+00
DAV:   7    -0.165068698558E+02    0.60760E-01   -0.37743E-01 20840   0.947E+00    0.437E+00
DAV:   8    -0.164903400132E+02    0.16530E-01   -0.10144E-02 22620   0.105E+00    0.161E+00
DAV:   9    -0.164790880906E+02    0.11252E-01   -0.30739E-03 26152   0.964E-01    0.416E-01
DAV:  10    -0.164786993923E+02    0.38870E-03   -0.15515E-03 20996   0.620E-01    0.630E-02
DAV:  11    -0.164787334345E+02   -0.34042E-04   -0.76577E-05 21128   0.705E-02    0.484E-02
DAV:  12    -0.164787218340E+02    0.11600E-04   -0.23260E-06 18192   0.131E-02    0.204E-02
DAV:  13    -0.164787226334E+02   -0.79943E-06   -0.13249E-06 14700   0.107E-02
   1 F= -.16478723E+02 E0= -.16478412E+02  d E =-.164787E+02  mag=     4.4686
 curvature:   0.00 expect dE= 0.000E+00 dE for cont linesearch  0.000E+00
 trial: gam= 0.00000 g(F)=  0.104E-61 g(S)=  0.639E-01 ort = 0.000E+00 (trialstep = 0.100E+01)
 search vector abs. value=  0.639E-01
 bond charge predicted
       N       E                     dE             d eps       ncg     rms          rms(c)
DAV:   1    -0.172323278864E+02   -0.75361E+00   -0.70560E+00 19392   0.439E+01    0.827E+00
DAV:   2    -0.165312244955E+02    0.70110E+00   -0.13061E+00 19284   0.255E+01    0.670E+00
DAV:   3    -0.164956978600E+02    0.35527E-01   -0.96170E-02 20884   0.562E+00    0.235E+00
DAV:   4    -0.164883112116E+02    0.73866E-02   -0.52570E-03 22140   0.814E-01    0.543E-01
DAV:   5    -0.164824285073E+02    0.58827E-02   -0.40243E-03 21744   0.505E-01    0.910E-02
DAV:   6    -0.164825419228E+02   -0.11342E-03   -0.31335E-04 19792   0.193E-01    0.510E-02
DAV:   7    -0.164825498935E+02   -0.79707E-05   -0.15812E-05 18444   0.446E-02    0.239E-02
DAV:   8    -0.164825467973E+02    0.30962E-05   -0.15107E-06 16796   0.173E-02    0.998E-03
DAV:   9    -0.164825457207E+02    0.10766E-05   -0.36154E-07  9196   0.944E-03    0.299E-03
DAV:  10    -0.164825456105E+02    0.11017E-06   -0.59924E-08  9120   0.234E-03
   2 F= -.16482546E+02 E0= -.16482161E+02  d E =-.382298E-02  mag=     4.2580
 trial-energy change:   -0.003823  1 .order   -0.001150   -0.063890    0.061589
 step:   0.5409(harm=  0.5092)  dis= 0.00000  next Energy=   -16.496425 (dE=-0.177E-01)
 bond charge predicted
       N       E                     dE             d eps       ncg     rms          rms(c)
DAV:   1    -0.166593422268E+02   -0.17680E+00   -0.15288E+00 19260   0.214E+01    0.397E+00
DAV:   2    -0.165141065473E+02    0.14524E+00   -0.40031E-01 19388   0.126E+01    0.364E+00
DAV:   3    -0.164997899068E+02    0.14317E-01   -0.27229E-02 20800   0.321E+00    0.109E+00
DAV:   4    -0.164980275499E+02    0.17624E-02   -0.19186E-03 23612   0.546E-01    0.314E-01
DAV:   5    -0.164966455202E+02    0.13820E-02   -0.10998E-03 20292   0.290E-01    0.549E-02
DAV:   6    -0.164966684819E+02   -0.22962E-04   -0.36497E-05 18984   0.521E-02    0.234E-02
DAV:   7    -0.164966737480E+02   -0.52661E-05   -0.27230E-06 18408   0.168E-02    0.143E-02
DAV:   8    -0.164966769000E+02   -0.31520E-05   -0.52394E-07 10900   0.768E-03    0.332E-03
DAV:   9    -0.164966769793E+02   -0.79276E-07   -0.10382E-07  9004   0.325E-03
   3 F= -.16496677E+02 E0= -.16496221E+02  d E =-.179543E-01  mag=     4.3561
 curvature:  -0.25 expect dE=-0.741E-07 dE for cont linesearch -0.741E-07
 trial: gam= 0.00000 g(F)=  0.759E-62 g(S)=  0.292E-06 ort =-0.137E-03 (trialstep = 0.908E+00)
 search vector abs. value=  0.292E-06
 reached required accuracy - stopping structural energy minimisation
 writing wavefunctions
