   1   1   0   0
  0.1408159E+02  0.2710538E-09  0.2710538E-09  0.2710538E-09  0.5000000E-15
  1.000000000000000E-004
  CAR 
 unknown system                          
     38.34999197     -6.26014237  301     10.22470695      1.00000000
     -6.260  0.0000E+00  0.0000E+00
     -6.111  0.0000E+00  0.0000E+00
     -5.963  0.0000E+00  0.0000E+00
     -5.814  0.0000E+00  0.0000E+00
     -5.665  0.0000E+00  0.0000E+00
     -5.517  0.0000E+00  0.0000E+00
     -5.368  0.0000E+00  0.0000E+00
     -5.219  0.0000E+00  0.0000E+00
     -5.071  0.0000E+00  0.0000E+00
     -4.922  0.0000E+00  0.0000E+00
     -4.773  0.0000E+00  0.0000E+00
     -4.624  0.0000E+00  0.0000E+00
     -4.476  0.2886E-15  0.4291E-16
     -4.327  0.3647E-06  0.5423E-07
     -4.178  0.1210E-03  0.1804E-04
     -4.030  0.4326E-03  0.8237E-04
     -3.881  0.5574E-03  0.1652E-03
     -3.732  0.7169E-03  0.2718E-03
     -3.584  0.7709E-03  0.3865E-03
     -3.435  0.9948E-03  0.5344E-03
     -3.286  0.8656E-03  0.6631E-03
     -3.137  0.1164E-02  0.8362E-03
     -2.989  0.1184E-02  0.1012E-02
     -2.840  0.1177E-02  0.1187E-02
     -2.691  0.9774E-03  0.1333E-02
     -2.543  0.1854E-02  0.1608E-02
     -2.394  0.1163E-02  0.1781E-02
     -2.245  0.1248E-02  0.1967E-02
     -2.097  0.1721E-02  0.2223E-02
     -1.948  0.1710E-02  0.2477E-02
     -1.799  0.1526E-02  0.2704E-02
     -1.650  0.1638E-02  0.2948E-02
     -1.502  0.1689E-02  0.3199E-02
     -1.353  0.1658E-02  0.3445E-02
     -1.204  0.1854E-02  0.3721E-02
     -1.056  0.2524E-02  0.4096E-02
     -0.907  0.1244E-02  0.4281E-02
     -0.758  0.1829E-02  0.4553E-02
     -0.610  0.2025E-02  0.4854E-02
     -0.461  0.2443E-02  0.5218E-02
     -0.312  0.2271E-02  0.5555E-02
     -0.163  0.1623E-02  0.5797E-02
     -0.015  0.2392E-02  0.6152E-02
      0.134  0.2017E-02  0.6452E-02
      0.283  0.2455E-02  0.6817E-02
      0.431  0.2159E-02  0.7138E-02
      0.580  0.2721E-02  0.7543E-02
      0.729  0.1824E-02  0.7814E-02
      0.877  0.3289E-02  0.8303E-02
      1.026  0.1712E-02  0.8558E-02
      1.175  0.2059E-02  0.8864E-02
      1.324  0.2753E-02  0.9273E-02
      1.472  0.3443E-02  0.9785E-02
      1.621  0.2227E-02  0.1012E-01
      1.770  0.3120E-02  0.1058E-01
      1.918  0.1864E-02  0.1086E-01
      2.067  0.2375E-02  0.1121E-01
      2.216  0.3104E-02  0.1167E-01
      2.364  0.3659E-02  0.1222E-01
      2.513  0.1962E-02  0.1251E-01
      2.662  0.3416E-02  0.1302E-01
      2.811  0.2858E-02  0.1344E-01
      2.959  0.3211E-02  0.1392E-01
      3.108  0.2360E-02  0.1427E-01
      3.257  0.3007E-02  0.1472E-01
      3.405  0.2285E-02  0.1506E-01
      3.554  0.2856E-02  0.1548E-01
      3.703  0.3521E-02  0.1600E-01
      3.851  0.3306E-02  0.1650E-01
      4.000  0.3444E-02  0.1701E-01
      4.149  0.2479E-02  0.1738E-01
      4.298  0.3040E-02  0.1783E-01
      4.446  0.3163E-02  0.1830E-01
      4.595  0.3064E-02  0.1876E-01
      4.744  0.3304E-02  0.1925E-01
      4.892  0.4585E-02  0.1993E-01
      5.041  0.3246E-02  0.2041E-01
      5.190  0.2607E-02  0.2080E-01
      5.338  0.3411E-02  0.2131E-01
      5.487  0.3310E-02  0.2180E-01
      5.636  0.3488E-02  0.2232E-01
      5.785  0.3459E-02  0.2283E-01
      5.933  0.3204E-02  0.2331E-01
      6.082  0.3485E-02  0.2383E-01
      6.231  0.2489E-02  0.2420E-01
      6.379  0.4447E-02  0.2486E-01
      6.528  0.3955E-02  0.2545E-01
      6.677  0.4389E-02  0.2610E-01
      6.825  0.3553E-02  0.2663E-01
      6.974  0.3386E-02  0.2713E-01
      7.123  0.4015E-02  0.2773E-01
      7.272  0.1561E-02  0.2796E-01
      7.420  0.3586E-02  0.2849E-01
      7.569  0.4461E-02  0.2916E-01
      7.718  0.4193E-02  0.2978E-01
      7.866  0.3554E-02  0.3031E-01
      8.015  0.5752E-02  0.3116E-01
      8.164  0.3610E-02  0.3170E-01
      8.313  0.2744E-02  0.3211E-01
      8.461  0.2891E-02  0.3254E-01
      8.610  0.3835E-02  0.3311E-01
      8.759  0.4668E-02  0.3380E-01
      8.907  0.3824E-02  0.3437E-01
      9.056  0.5530E-02  0.3519E-01
      9.205  0.4347E-02  0.3584E-01
      9.353  0.2608E-02  0.3623E-01
      9.502  0.3599E-02  0.3676E-01
      9.651  0.3868E-02  0.3734E-01
      9.800  0.5907E-02  0.3822E-01
      9.948  0.3972E-02  0.3881E-01
     10.097  0.4153E-02  0.3942E-01
     10.246  0.4292E-02  0.4006E-01
     10.394  0.2727E-02  0.4047E-01
     10.543  0.4774E-02  0.4118E-01
     10.692  0.4921E-02  0.4191E-01
     10.840  0.4624E-02  0.4260E-01
     10.989  0.5714E-02  0.4345E-01
     11.138  0.3552E-02  0.4397E-01
     11.287  0.4333E-02  0.4462E-01
     11.435  0.4876E-02  0.4534E-01
     11.584  0.3239E-02  0.4583E-01
     11.733  0.5752E-02  0.4668E-01
     11.881  0.2980E-02  0.4712E-01
     12.030  0.6297E-02  0.4806E-01
     12.179  0.4767E-02  0.4877E-01
     12.327  0.5078E-02  0.4952E-01
     12.476  0.4343E-02  0.5017E-01
     12.625  0.4823E-02  0.5089E-01
     12.774  0.4690E-02  0.5158E-01
     12.922  0.5736E-02  0.5244E-01
     13.071  0.5241E-02  0.5322E-01
     13.220  0.5138E-02  0.5398E-01
     13.368  0.5750E-02  0.5484E-01
     13.517  0.3718E-02  0.5539E-01
     13.666  0.6099E-02  0.5630E-01
     13.814  0.6991E-02  0.5734E-01
     13.963  0.5225E-02  0.5811E-01
     14.112  0.5360E-02  0.5891E-01
     14.261  0.4666E-02  0.5960E-01
     14.409  0.5278E-02  0.6039E-01
     14.558  0.4099E-02  0.6100E-01
     14.707  0.6068E-02  0.6190E-01
     14.855  0.7029E-02  0.6295E-01
     15.004  0.3181E-02  0.6342E-01
     15.153  0.4028E-02  0.6402E-01
     15.301  0.5302E-02  0.6481E-01
     15.450  0.4649E-02  0.6550E-01
     15.599  0.3739E-02  0.6605E-01
     15.748  0.5706E-02  0.6690E-01
     15.896  0.3396E-02  0.6741E-01
     16.045  0.5816E-02  0.6827E-01
     16.194  0.5735E-02  0.6912E-01
     16.342  0.4023E-02  0.6972E-01
     16.491  0.3894E-02  0.7030E-01
     16.640  0.4708E-02  0.7100E-01
     16.788  0.5165E-02  0.7177E-01
     16.937  0.5158E-02  0.7254E-01
     17.086  0.4121E-02  0.7315E-01
     17.235  0.3919E-02  0.7373E-01
     17.383  0.6350E-02  0.7468E-01
     17.532  0.4891E-02  0.7540E-01
     17.681  0.5422E-02  0.7621E-01
     17.829  0.3877E-02  0.7679E-01
     17.978  0.5634E-02  0.7762E-01
     18.127  0.4403E-02  0.7828E-01
     18.275  0.6843E-02  0.7930E-01
     18.424  0.5666E-02  0.8014E-01
     18.573  0.3194E-02  0.8061E-01
     18.722  0.6721E-02  0.8161E-01
     18.870  0.6511E-02  0.8258E-01
     19.019  0.3449E-02  0.8309E-01
     19.168  0.4232E-02  0.8372E-01
     19.316  0.5428E-02  0.8453E-01
     19.465  0.6927E-02  0.8556E-01
     19.614  0.7132E-02  0.8662E-01
     19.762  0.4414E-02  0.8728E-01
     19.911  0.5332E-02  0.8807E-01
     20.060  0.5849E-02  0.8894E-01
     20.209  0.2825E-02  0.8936E-01
     20.357  0.5431E-02  0.9017E-01
     20.506  0.7708E-02  0.9131E-01
     20.655  0.6248E-02  0.9224E-01
     20.803  0.5284E-02  0.9303E-01
     20.952  0.4448E-02  0.9369E-01
     21.101  0.8459E-02  0.9495E-01
     21.249  0.6807E-02  0.9596E-01
     21.398  0.5480E-02  0.9678E-01
     21.547  0.7305E-02  0.9786E-01
     21.696  0.2927E-02  0.9830E-01
     21.844  0.5139E-02  0.9906E-01
     21.993  0.6929E-02  0.1001E+00
     22.142  0.5107E-02  0.1009E+00
     22.290  0.6446E-02  0.1018E+00
     22.439  0.5413E-02  0.1026E+00
     22.588  0.7654E-02  0.1038E+00
     22.736  0.4677E-02  0.1044E+00
     22.885  0.5439E-02  0.1053E+00
     23.034  0.6657E-02  0.1062E+00
     23.183  0.2637E-02  0.1066E+00
     23.331  0.4172E-02  0.1073E+00
     23.480  0.8825E-02  0.1086E+00
     23.629  0.8724E-02  0.1099E+00
     23.777  0.8159E-02  0.1111E+00
     23.926  0.6899E-02  0.1121E+00
     24.075  0.4048E-02  0.1127E+00
     24.223  0.6448E-02  0.1137E+00
     24.372  0.5828E-02  0.1145E+00
     24.521  0.6679E-02  0.1155E+00
     24.670  0.6753E-02  0.1165E+00
     24.818  0.6686E-02  0.1175E+00
     24.967  0.7532E-02  0.1186E+00
     25.116  0.6566E-02  0.1196E+00
     25.264  0.6220E-02  0.1205E+00
     25.413  0.3408E-02  0.1211E+00
     25.562  0.7552E-02  0.1222E+00
     25.710  0.6369E-02  0.1231E+00
     25.859  0.4721E-02  0.1238E+00
     26.008  0.7873E-02  0.1250E+00
     26.157  0.9467E-02  0.1264E+00
     26.305  0.6546E-02  0.1274E+00
     26.454  0.6974E-02  0.1284E+00
     26.603  0.4447E-02  0.1291E+00
     26.751  0.5778E-02  0.1299E+00
     26.900  0.5284E-02  0.1307E+00
     27.049  0.8124E-02  0.1319E+00
     27.197  0.7472E-02  0.1330E+00
     27.346  0.4588E-02  0.1337E+00
     27.495  0.4982E-02  0.1345E+00
     27.644  0.4511E-02  0.1351E+00
     27.792  0.6597E-02  0.1361E+00
     27.941  0.8887E-02  0.1374E+00
     28.090  0.4376E-02  0.1381E+00
     28.238  0.4305E-02  0.1387E+00
     28.387  0.5141E-02  0.1395E+00
     28.536  0.6594E-02  0.1405E+00
     28.684  0.5553E-02  0.1413E+00
     28.833  0.6390E-02  0.1422E+00
     28.982  0.3943E-02  0.1428E+00
     29.131  0.3630E-02  0.1434E+00
     29.279  0.2076E-02  0.1437E+00
     29.428  0.6469E-02  0.1446E+00
     29.577  0.7140E-02  0.1457E+00
     29.725  0.6402E-02  0.1467E+00
     29.874  0.6089E-02  0.1476E+00
     30.023  0.3557E-02  0.1481E+00
     30.171  0.3341E-02  0.1486E+00
     30.320  0.6462E-02  0.1496E+00
     30.469  0.4953E-02  0.1503E+00
     30.618  0.5756E-02  0.1511E+00
     30.766  0.4044E-02  0.1517E+00
     30.915  0.3712E-02  0.1523E+00
     31.064  0.2910E-02  0.1527E+00
     31.212  0.3616E-02  0.1533E+00
     31.361  0.3275E-02  0.1538E+00
     31.510  0.3358E-02  0.1543E+00
     31.658  0.1845E-02  0.1545E+00
     31.807  0.1809E-02  0.1548E+00
     31.956  0.2666E-02  0.1552E+00
     32.105  0.2646E-02  0.1556E+00
     32.253  0.1845E-02  0.1559E+00
     32.402  0.2415E-02  0.1562E+00
     32.551  0.3023E-02  0.1567E+00
     32.699  0.4176E-03  0.1567E+00
     32.848  0.2933E-02  0.1572E+00
     32.997  0.8049E-03  0.1573E+00
     33.145  0.2435E-02  0.1577E+00
     33.294  0.1601E-02  0.1579E+00
     33.443  0.1301E-02  0.1581E+00
     33.592  0.8960E-03  0.1582E+00
     33.740  0.6151E-03  0.1583E+00
     33.889  0.1405E-02  0.1585E+00
     34.038  0.2037E-02  0.1588E+00
     34.186  0.1393E-02  0.1590E+00
     34.335  0.1352E-02  0.1592E+00
     34.484  0.4986E-03  0.1593E+00
     34.632  0.5678E-03  0.1594E+00
     34.781  0.8621E-03  0.1595E+00
     34.930  0.5087E-04  0.1595E+00
     35.079  0.8180E-03  0.1596E+00
     35.227  0.1903E-03  0.1597E+00
     35.376  0.4341E-03  0.1597E+00
     35.525  0.1168E-02  0.1599E+00
     35.673  0.2210E-04  0.1599E+00
     35.822  0.7866E-06  0.1599E+00
     35.971  0.2705E-03  0.1600E+00
     36.119  0.2285E-04  0.1600E+00
     36.268  0.1855E-04  0.1600E+00
     36.417  0.2744E-03  0.1600E+00
     36.566  0.1094E-05  0.1600E+00
     36.714  0.8657E-15  0.1600E+00
     36.863  0.0000E+00  0.1600E+00
     37.012  0.0000E+00  0.1600E+00
     37.160  0.0000E+00  0.1600E+00
     37.309  0.0000E+00  0.1600E+00
     37.458  0.0000E+00  0.1600E+00
     37.606  0.0000E+00  0.1600E+00
     37.755  0.0000E+00  0.1600E+00
     37.904  0.0000E+00  0.1600E+00
     38.053  0.0000E+00  0.1600E+00
     38.201  0.0000E+00  0.1600E+00
     38.350  0.0000E+00  0.1600E+00
