    1    1  100    1
  0.1408159E+02  0.2710538E-09  0.2710538E-09  0.2710538E-09  0.5000000E-15
  1.000000000000000E-004
  CAR 
 unknown system                          
      4    280      8
 
  0.3571429E-01  0.3571429E-01  0.3571429E-01  0.7288630E-03
    1       -4.232409   1.000000
    2       20.465633   0.000000
    3       21.118422   0.000000
    4       21.118429   0.000000
    5       22.523340   0.000000
    6       22.523348   0.000000
    7       22.795167   0.000000
    8       27.828650   0.000000
 
  0.1071429E+00  0.3571429E-01  0.3571429E-01  0.2186589E-02
    1       -4.033822   1.000000
    2       18.556877   0.000000
    3       19.543229   0.000000
    4       21.206935   0.000000
    5       22.671739   0.000000
    6       23.422476   0.000000
    7       24.045366   0.000000
    8       27.625075   0.000000
 
  0.1785714E+00  0.3571429E-01  0.3571429E-01  0.2186589E-02
    1       -3.538252   1.000000
    2       15.511461   0.000000
    3       18.780877   0.000000
    4       20.476847   0.000000
    5       23.688485   0.000000
    6       23.714257   0.000000
    7       24.954959   0.000000
    8       26.491718   0.000000
 
  0.2500000E+00  0.3571429E-01  0.3571429E-01  0.2186589E-02
    1       -2.748033   1.000000
    2       12.519258   0.000000
    3       18.253780   0.000000
    4       19.899851   0.000000
    5       23.461676   0.000000
    6       23.629132   0.000000
    7       24.507592   0.000000
    8       27.066546   0.000000
 
  0.3214286E+00  0.3571429E-01  0.3571429E-01  0.2186589E-02
    1       -1.667026   1.000000
    2        9.698905   1.000000
    3       17.968633   0.000000
    4       19.497602   0.000000
    5       22.438440   0.000000
    6       23.349968   0.000000
    7       23.581682   0.000000
    8       28.440155   0.000000
 
  0.3928571E+00  0.3571429E-01  0.3571429E-01  0.2186589E-02
    1       -0.301407   1.000000
    2        7.099371   1.000000
    3       17.918583   0.000000
    4       19.195854   0.000000
    5       21.614283   0.000000
    6       22.284270   0.000000
    7       23.625365   0.000000
    8       27.399604   0.000000
 
  0.4642857E+00  0.3571429E-01  0.3571429E-01  0.2186589E-02
    1        1.333953   1.000000
    2        4.753611   1.000000
    3       18.079172   0.000000
    4       18.873842   0.000000
    5       21.268772   0.000000
    6       21.457040   0.000000
    7       23.751810   0.000000
    8       26.644849   0.000000
 
 -0.4642857E+00  0.3571429E-01  0.3571429E-01  0.2186589E-02
    1        2.489207   1.000000
    2        3.420509   1.000000
    3       18.393109   0.000000
    4       18.518871   0.000000
    5       20.976076   0.000000
    6       21.451582   0.000000
    7       23.828456   0.000000
    8       26.413481   0.000000
 
 -0.3928571E+00  0.3571429E-01  0.3571429E-01  0.2186589E-02
    1        0.761134   1.000000
    2        5.504578   1.000000
    3       18.249535   0.000000
    4       18.736454   0.000000
    5       20.966246   0.000000
    6       22.046907   0.000000
    7       23.764200   0.000000
    8       26.808257   0.000000
 
 -0.3214286E+00  0.3571429E-01  0.3571429E-01  0.2186589E-02
    1       -0.787677   1.000000
    2        7.939382   1.000000
    3       18.158762   0.000000
    4       19.013681   0.000000
    5       21.513019   0.000000
    6       22.944569   0.000000
    7       23.680893   0.000000
    8       27.670613   0.000000
 
 -0.2500000E+00  0.3571429E-01  0.3571429E-01  0.2186589E-02
    1       -2.059345   1.000000
    2       10.616281   0.000000
    3       18.288787   0.000000
    4       19.311484   0.000000
    5       22.457626   0.000000
    6       23.705801   0.000000
    7       24.038916   0.000000
    8       27.935438   0.000000
 
 -0.1785714E+00  0.3571429E-01  0.3571429E-01  0.2186589E-02
    1       -3.043964   1.000000
    2       13.501289   0.000000
    3       18.656909   0.000000
    4       19.750774   0.000000
    5       23.288436   0.000000
    6       23.965774   0.000000
    7       25.031420   0.000000
    8       26.423434   0.000000
 
 -0.1071429E+00  0.3571429E-01  0.3571429E-01  0.2186589E-02
    1       -3.736313   1.000000
    2       16.530933   0.000000
    3       19.268519   0.000000
    4       20.377661   0.000000
    5       23.029279   0.000000
    6       24.070371   0.000000
    7       24.830339   0.000000
    8       26.497130   0.000000
 
 -0.3571429E-01  0.3571429E-01  0.3571429E-01  0.2186589E-02
    1       -4.133074   1.000000
    2       19.515774   0.000000
    3       20.112509   0.000000
    4       21.121788   0.000000
    5       22.005107   0.000000
    6       23.592056   0.000000
    7       23.644670   0.000000
    8       27.851458   0.000000
 
  0.1071429E+00  0.1071429E+00  0.3571429E-01  0.2186589E-02
    1       -3.934592   1.000000
    2       18.541626   0.000000
    3       19.118290   0.000000
    4       20.678206   0.000000
    5       21.253405   0.000000
    6       24.737540   0.000000
    7       24.874820   0.000000
    8       26.259993   0.000000
 
  0.1785714E+00  0.1071429E+00  0.3571429E-01  0.4373178E-02
    1       -3.538185   1.000000
    2       16.637792   0.000000
    3       17.727264   0.000000
    4       20.457006   0.000000
    5       21.407660   0.000000
    6       24.654544   0.000000
    7       25.548140   0.000000
    8       25.983118   0.000000
 
  0.2500000E+00  0.1071429E+00  0.3571429E-01  0.4373178E-02
    1       -2.846460   1.000000
    2       13.661606   0.000000
    3       17.115930   0.000000
    4       19.758899   0.000000
    5       21.789204   0.000000
    6       24.206194   0.000000
    7       25.819071   0.000000
    8       26.099069   0.000000
 
  0.3214286E+00  0.1071429E+00  0.3571429E-01  0.4373178E-02
    1       -1.862728   1.000000
    2       10.792221   0.000000
    3       16.757082   0.000000
    4       19.081399   0.000000
    5       21.030056   0.000000
    6       24.699854   0.000000
    7       25.251160   0.000000
    8       26.661432   0.000000
 
  0.3928571E+00  0.1071429E+00  0.3571429E-01  0.4373178E-02
    1       -0.592192   1.000000
    2        8.122581   1.000000
    3       16.646322   0.000000
    4       18.314939   0.000000
    5       20.512542   0.000000
    6       23.862226   0.000000
    7       25.183038   0.000000
    8       28.393938   0.000000
 
  0.4642857E+00  0.1071429E+00  0.3571429E-01  0.4373178E-02
    1        0.955359   1.000000
    2        5.691834   1.000000
    3       16.749413   0.000000
    4       17.554667   0.000000
    5       20.467310   0.000000
    6       22.942505   0.000000
    7       25.234934   0.000000
    8       28.449842   0.000000
 
 -0.4642857E+00  0.1071429E+00  0.3571429E-01  0.4373178E-02
    1        2.683931   1.000000
    2        3.608019   1.000000
    3       16.670890   0.000000
    4       17.342591   0.000000
    5       20.773009   0.000000
    6       22.271749   0.000000
    7       25.211818   0.000000
    8       28.194927   0.000000
 
 -0.3928571E+00  0.1071429E+00  0.3571429E-01  0.4373178E-02
    1        1.527798   1.000000
    2        4.941735   1.000000
    3       16.264672   0.000000
    4       17.885983   0.000000
    5       21.251629   0.000000
    6       22.011688   0.000000
    7       25.082663   0.000000
    8       28.450172   0.000000
 
 -0.3214286E+00  0.1071429E+00  0.3571429E-01  0.4373178E-02
    1       -0.106390   1.000000
    2        7.283698   1.000000
    3       16.040716   0.000000
    4       18.659372   0.000000
    5       21.498677   0.000000
    6       22.566785   0.000000
    7       24.935353   0.000000
    8       29.008784   0.000000
 
 -0.2500000E+00  0.1071429E+00  0.3571429E-01  0.4373178E-02
    1       -1.470811   1.000000
    2        9.876568   1.000000
    3       16.059427   0.000000
    4       19.516959   0.000000
    5       21.848623   0.000000
    6       23.608235   0.000000
    7       24.860028   0.000000
    8       27.530917   0.000000
 
 -0.1785714E+00  0.1071429E+00  0.3571429E-01  0.4373178E-02
    1       -2.550838   1.000000
    2       12.682843   0.000000
    3       16.333681   0.000000
    4       20.327095   0.000000
    5       22.498765   0.000000
    6       24.505147   0.000000
    7       25.051178   0.000000
    8       25.814980   0.000000
 
 -0.1071429E+00  0.1071429E+00  0.3571429E-01  0.4373178E-02
    1       -3.340332   1.000000
    2       15.628983   0.000000
    3       16.877710   0.000000
    4       21.050058   0.000000
    5       22.492868   0.000000
    6       24.812902   0.000000
    7       25.043899   0.000000
    8       25.675055   0.000000
 
 -0.3571429E-01  0.1071429E+00  0.3571429E-01  0.4373178E-02
    1       -3.835428   1.000000
    2       17.574608   0.000000
    3       18.628720   0.000000
    4       21.021934   0.000000
    5       22.193423   0.000000
    6       24.303122   0.000000
    7       24.910303   0.000000
    8       26.343470   0.000000
 
  0.1785714E+00  0.1785714E+00  0.3571429E-01  0.2186589E-02
    1       -3.241299   1.000000
    2       16.756840   0.000000
    3       17.336773   0.000000
    4       19.145790   0.000000
    5       19.636217   0.000000
    6       22.745696   0.000000
    7       27.302355   0.000000
    8       27.399422   0.000000
 
  0.2500000E+00  0.1785714E+00  0.3571429E-01  0.4373178E-02
    1       -2.648970   1.000000
    2       14.970535   0.000000
    3       16.109376   0.000000
    4       18.653143   0.000000
    5       19.568136   0.000000
    6       21.734425   0.000000
    7       27.929947   0.000000
    8       28.268029   0.000000
 
  0.3214286E+00  0.1785714E+00  0.3571429E-01  0.4373178E-02
    1       -1.763985   1.000000
    2       12.125920   0.000000
    3       15.653257   0.000000
    4       17.513840   0.000000
    5       19.457462   0.000000
    6       22.743861   0.000000
    7       27.233648   0.000000
    8       28.474480   0.000000
 
  0.3928571E+00  0.1785714E+00  0.3571429E-01  0.4373178E-02
    1       -0.590815   1.000000
    2        9.408675   1.000000
    3       15.432083   0.000000
    4       16.353438   0.000000
    5       19.215648   0.000000
    6       24.570984   0.000000
    7       26.226283   0.000000
    8       28.567502   0.000000
 
  0.4642857E+00  0.1785714E+00  0.3571429E-01  0.4373178E-02
    1        0.863143   1.000000
    2        6.906544   1.000000
    3       15.075453   0.000000
    4       15.718770   0.000000
    5       19.261399   0.000000
    6       25.044854   0.000000
    7       26.504307   0.000000
    8       28.999003   0.000000
 
 -0.4642857E+00  0.1785714E+00  0.3571429E-01  0.4373178E-02
    1        2.570732   1.000000
    2        4.670037   1.000000
    3       14.302733   0.000000
    4       15.970122   0.000000
    5       19.596295   0.000000
    6       24.310368   0.000000
    7       27.085460   0.000000
    8       30.441711   0.000000
 
 -0.3928571E+00  0.1785714E+00  0.3571429E-01  0.4373178E-02
    1        2.570921   1.000000
    2        4.669017   1.000000
    3       13.708637   0.000000
    4       16.543312   0.000000
    5       20.205810   0.000000
    6       23.773380   0.000000
    7       26.973439   0.000000
    8       31.253421   0.000000
 
 -0.3214286E+00  0.1785714E+00  0.3571429E-01  0.4373178E-02
    1        0.862882   1.000000
    2        6.902704   1.000000
    3       13.367118   0.000000
    4       17.364477   0.000000
    5       21.066992   0.000000
    6       23.496257   0.000000
    7       26.692137   0.000000
    8       29.488097   0.000000
 
 -0.2500000E+00  0.1785714E+00  0.3571429E-01  0.4373178E-02
    1       -0.591176   1.000000
    2        9.395836   1.000000
    3       13.296342   0.000000
    4       18.400960   0.000000
    5       22.130482   0.000000
    6       23.509750   0.000000
    7       26.220587   0.000000
    8       27.402716   0.000000
 
 -0.1785714E+00  0.1785714E+00  0.3571429E-01  0.4373178E-02
    1       -1.764351   1.000000
    2       12.059111   0.000000
    3       13.542740   0.000000
    4       19.581259   0.000000
    5       23.238960   0.000000
    6       23.752775   0.000000
    7       24.977831   0.000000
    8       26.404946   0.000000
 
 -0.1071429E+00  0.1785714E+00  0.3571429E-01  0.4373178E-02
    1       -2.649273   1.000000
    2       13.775743   0.000000
    3       15.161743   0.000000
    4       20.619850   0.000000
    5       22.907224   0.000000
    6       24.218138   0.000000
    7       25.189653   0.000000
    8       25.605341   0.000000
 
 -0.3571429E-01  0.1785714E+00  0.3571429E-01  0.4373178E-02
    1       -3.241497   1.000000
    2       14.550459   0.000000
    3       17.941726   0.000000
    4       20.340626   0.000000
    5       22.946050   0.000000
    6       24.403500   0.000000
    7       25.395979   0.000000
    8       25.678155   0.000000
 
  0.2500000E+00  0.2500000E+00  0.3571429E-01  0.2186589E-02
    1       -2.156461   1.000000
    2       15.266583   0.000000
    3       15.877145   0.000000
    4       17.013461   0.000000
    5       17.782397   0.000000
    6       20.138829   0.000000
    7       29.713985   0.000000
    8       29.888092   0.000000
 
  0.3214286E+00  0.2500000E+00  0.3571429E-01  0.4373178E-02
    1       -1.371289   1.000000
    2       13.619579   0.000000
    3       14.757369   0.000000
    4       15.685940   0.000000
    5       18.054388   0.000000
    6       20.057823   0.000000
    7       29.547484   0.000000
    8       30.873392   0.000000
 
  0.3928571E+00  0.2500000E+00  0.3571429E-01  0.4373178E-02
    1       -0.297309   1.000000
    2       10.931057   0.000000
    3       14.058952   0.000000
    4       14.687620   0.000000
    5       18.112783   0.000000
    6       21.668848   0.000000
    7       28.612857   0.000000
    8       31.010777   0.000000
 
  0.4642857E+00  0.2500000E+00  0.3571429E-01  0.4373178E-02
    1        1.059405   1.000000
    2        8.382698   1.000000
    3       12.916501   0.000000
    4       14.595349   0.000000
    5       18.165364   0.000000
    6       23.870274   0.000000
    7       27.643700   0.000000
    8       30.778032   0.000000
 
 -0.4642857E+00  0.2500000E+00  0.3571429E-01  0.4373178E-02
    1        2.684454   1.000000
    2        6.063292   1.000000
    3       11.946580   0.000000
    4       14.838184   0.000000
    5       18.454296   0.000000
    6       26.053906   0.000000
    7       26.980585   0.000000
    8       30.380430   0.000000
 
 -0.3928571E+00  0.2500000E+00  0.3571429E-01  0.4373178E-02
    1        3.845976   1.000000
    2        4.723593   1.000000
    3       11.232531   0.000000
    4       15.350136   0.000000
    5       19.008971   0.000000
    6       26.058532   0.000000
    7       28.296468   0.000000
    8       30.139636   0.000000
 
 -0.3214286E+00  0.2500000E+00  0.3571429E-01  0.4373178E-02
    1        2.114655   1.000000
    2        6.790259   1.000000
    3       10.797075   0.000000
    4       16.117801   0.000000
    5       19.822242   0.000000
    6       25.691909   0.000000
    7       28.372199   0.000000
    8       29.553307   0.000000
 
 -0.2500000E+00  0.2500000E+00  0.3571429E-01  0.4373178E-02
    1        0.575108   1.000000
    2        9.114946   1.000000
    3       10.704836   0.000000
    4       17.125793   0.000000
    5       20.879123   0.000000
    6       25.540301   0.000000
    7       26.627174   0.000000
    8       28.443587   0.000000
 
 -0.1785714E+00  0.2500000E+00  0.3571429E-01  0.4373178E-02
    1       -0.688336   1.000000
    2       10.501465   0.000000
    3       12.050683   0.000000
    4       18.336320   0.000000
    5       22.119220   0.000000
    6       24.490095   0.000000
    7       25.634438   0.000000
    8       27.352047   0.000000
 
 -0.1071429E+00  0.2500000E+00  0.3571429E-01  0.4373178E-02
    1       -1.666453   1.000000
    2       10.959163   0.000000
    3       14.761898   0.000000
    4       19.580294   0.000000
    5       22.543797   0.000000
    6       23.642873   0.000000
    7       25.413334   0.000000
    8       26.485799   0.000000
 
 -0.3571429E-01  0.2500000E+00  0.3571429E-01  0.4373178E-02
    1       -2.354102   1.000000
    2       11.614340   0.000000
    3       17.499011   0.000000
    4       19.775642   0.000000
    5       22.359109   0.000000
    6       24.176359   0.000000
    7       24.640976   0.000000
    8       26.819832   0.000000
 
  0.3214286E+00  0.3214286E+00  0.3571429E-01  0.2186589E-02
    1       -0.686512   1.000000
    2       13.692091   0.000000
    3       14.199017   0.000000
    4       14.753622   0.000000
    5       16.517315   0.000000
    6       18.719715   0.000000
    7       31.470374   0.000000
    8       32.275295   0.000000
 
  0.3928571E+00  0.3214286E+00  0.3571429E-01  0.4373178E-02
    1        0.286900   1.000000
    2       12.096301   0.000000
    3       12.721669   0.000000
    4       13.917473   0.000000
    5       17.016204   0.000000
    6       19.036250   0.000000
    7       31.118269   0.000000
    8       33.192705   0.000000
 
  0.4642857E+00  0.3214286E+00  0.3571429E-01  0.4373178E-02
    1        1.543243   1.000000
    2       10.039377   1.000000
    3       10.927975   0.000000
    4       13.793616   0.000000
    5       17.257105   0.000000
    6       20.920234   0.000000
    7       30.232984   0.000000
    8       33.065385   0.000000
 
 -0.4642857E+00  0.3214286E+00  0.3571429E-01  0.4373178E-02
    1        3.071704   1.000000
    2        7.710013   1.000000
    3        9.794439   1.000000
    4       13.960185   0.000000
    5       17.514971   0.000000
    6       23.355208   0.000000
    7       29.386588   0.000000
    8       32.406836   0.000000
 
 -0.3928571E+00  0.3214286E+00  0.3571429E-01  0.4373178E-02
    1        4.795861   1.000000
    2        5.638927   1.000000
    3        8.972382   1.000000
    4       14.393664   0.000000
    5       18.002723   0.000000
    6       25.959778   0.000000
    7       28.720967   0.000000
    8       31.248631   0.000000
 
 -0.3214286E+00  0.3214286E+00  0.3571429E-01  0.4373178E-02
    1        3.639233   1.000000
    2        6.882815   1.000000
    3        8.507765   1.000000
    4       15.087484   0.000000
    5       18.747703   0.000000
    6       27.952677   0.000000
    7       28.764610   0.000000
    8       29.251417   0.000000
 
 -0.2500000E+00  0.3214286E+00  0.3571429E-01  0.4373178E-02
    1        2.020991   1.000000
    2        7.906718   1.000000
    3        9.519727   1.000000
    4       16.032468   0.000000
    5       19.742366   0.000000
    6       26.756370   0.000000
    7       27.834807   0.000000
    8       29.623402   0.000000
 
 -0.1785714E+00  0.3214286E+00  0.3571429E-01  0.4373178E-02
    1        0.671152   1.000000
    2        8.003474   1.000000
    3       11.968696   0.000000
    4       17.206091   0.000000
    5       20.946169   0.000000
    6       24.478052   0.000000
    7       27.226587   0.000000
    8       28.475214   0.000000
 
 -0.1071429E+00  0.3214286E+00  0.3571429E-01  0.4373178E-02
    1       -0.397055   1.000000
    2        8.302722   1.000000
    3       14.657371   0.000000
    4       18.519045   0.000000
    5       22.011357   0.000000
    6       22.770146   0.000000
    7       25.690197   0.000000
    8       28.436170   0.000000
 
 -0.3571429E-01  0.3214286E+00  0.3571429E-01  0.4373178E-02
    1       -1.177723   1.000000
    2        8.866603   1.000000
    3       17.303163   0.000000
    4       19.281107   0.000000
    5       21.482817   0.000000
    6       23.453853   0.000000
    7       24.173287   0.000000
    8       28.379020   0.000000
 
  0.3928571E+00  0.3928571E+00  0.3571429E-01  0.2186589E-02
    1        1.158425   1.000000
    2       10.458031   0.000000
    3       13.344068   0.000000
    4       13.973702   0.000000
    5       15.654420   0.000000
    6       17.863758   0.000000
    7       33.018733   0.000000
    8       34.352736   0.000000
 
  0.4642857E+00  0.3928571E+00  0.3571429E-01  0.4373178E-02
    1        2.311091   1.000000
    2        8.990213   1.000000
    3       12.027961   0.000000
    4       13.278552   0.000000
    5       16.357244   0.000000
    6       18.407531   0.000000
    7       32.766739   0.000000
    8       35.029193   0.000000
 
 -0.4642857E+00  0.3928571E+00  0.3571429E-01  0.4373178E-02
    1        3.731277   1.000000
    2        7.778925   1.000000
    3        9.706191   1.000000
    4       13.344416   0.000000
    5       16.787212   0.000000
    6       20.498002   0.000000
    7       32.012942   0.000000
    8       34.244146   0.000000
 
 -0.3928571E+00  0.3928571E+00  0.3571429E-01  0.4373178E-02
    1        5.351891   1.000000
    2        6.801081   1.000000
    3        7.641319   1.000000
    4       13.692718   0.000000
    5       17.237186   0.000000
    6       23.125608   0.000000
    7       31.254230   0.000000
    8       32.356671   0.000000
 
 -0.3214286E+00  0.3928571E+00  0.3571429E-01  0.4373178E-02
    1        5.373637   1.000000
    2        6.079886   1.000000
    3        7.692890   1.000000
    4       14.305071   0.000000
    5       17.912163   0.000000
    6       25.912309   0.000000
    7       29.693699   0.000000
    8       30.743869   0.000000
 
 -0.2500000E+00  0.3928571E+00  0.3571429E-01  0.4373178E-02
    1        3.722163   1.000000
    2        5.772226   1.000000
    3        9.794151   1.000000
    4       15.175058   0.000000
    5       18.834607   0.000000
    6       27.025177   0.000000
    7       28.610332   0.000000
    8       29.893918   0.000000
 
 -0.1785714E+00  0.3928571E+00  0.3571429E-01  0.4373178E-02
    1        2.300320   1.000000
    2        5.686715   1.000000
    3       12.219621   0.000000
    4       16.288120   0.000000
    5       19.980465   0.000000
    6       24.690163   0.000000
    7       27.780249   0.000000
    8       30.513390   0.000000
 
 -0.1071429E+00  0.3928571E+00  0.3571429E-01  0.4373178E-02
    1        1.149238   1.000000
    2        5.877867   1.000000
    3       14.817468   0.000000
    4       17.595466   0.000000
    5       21.208516   0.000000
    6       22.638446   0.000000
    7       25.899483   0.000000
    8       30.011779   0.000000
 
 -0.3571429E-01  0.3928571E+00  0.3571429E-01  0.4373178E-02
    1        0.280136   1.000000
    2        6.349393   1.000000
    3       17.346431   0.000000
    4       18.741308   0.000000
    5       21.026044   0.000000
    6       22.460219   0.000000
    7       24.229543   0.000000
    8       27.694825   0.000000
 
  0.4642857E+00  0.4642857E+00  0.3571429E-01  0.2186589E-02
    1        3.352652   1.000000
    2        7.430499   1.000000
    3       12.893238   0.000000
    4       13.539508   0.000000
    5       15.172907   0.000000
    6       17.398619   0.000000
    7       34.346989   0.000000
    8       35.920557   0.000000
 
 -0.4642857E+00  0.4642857E+00  0.3571429E-01  0.4373178E-02
    1        4.609539   1.000000
    2        6.190986   1.000000
    3       11.750104   0.000000
    4       13.009825   0.000000
    5       16.074713   0.000000
    6       18.137853   0.000000
    7       34.140289   0.000000
    8       35.401512   0.000000
 
 -0.3928571E+00  0.4642857E+00  0.3571429E-01  0.4373178E-02
    1        4.890218   1.000000
    2        6.462452   1.000000
    3        9.602143   1.000000
    4       13.255019   0.000000
    5       16.693221   0.000000
    6       20.412725   0.000000
    7       32.817085   0.000000
    8       33.969215   0.000000
 
 -0.3214286E+00  0.4642857E+00  0.3571429E-01  0.4373178E-02
    1        4.199379   1.000000
    2        7.459565   1.000000
    3        8.396723   1.000000
    4       13.781763   0.000000
    5       17.329736   0.000000
    6       23.202651   0.000000
    7       30.335650   0.000000
    8       32.759577   0.000000
 
 -0.2500000E+00  0.4642857E+00  0.3571429E-01  0.4373178E-02
    1        3.719661   1.000000
    2        5.788014   1.000000
    3       10.418096   0.000000
    4       14.570915   0.000000
    5       18.183281   0.000000
    6       26.035795   0.000000
    7       27.777129   0.000000
    8       30.985889   0.000000
 
 -0.1785714E+00  0.4642857E+00  0.3571429E-01  0.4373178E-02
    1        3.459225   1.000000
    2        4.355497   1.000000
    3       12.746101   0.000000
    4       15.613417   0.000000
    5       19.263443   0.000000
    6       25.144926   0.000000
    7       27.778194   0.000000
    8       30.268936   0.000000
 
 -0.1071429E+00  0.4642857E+00  0.3571429E-01  0.4373178E-02
    1        2.878471   1.000000
    2        3.795172   1.000000
    3       15.226064   0.000000
    4       16.884129   0.000000
    5       20.483183   0.000000
    6       22.958597   0.000000
    7       26.115872   0.000000
    8       29.664841   0.000000
 
 -0.3571429E-01  0.4642857E+00  0.3571429E-01  0.4373178E-02
    1        1.990906   1.000000
    2        4.105494   1.000000
    3       17.584554   0.000000
    4       18.205241   0.000000
    5       21.023681   0.000000
    6       21.758576   0.000000
    7       24.320158   0.000000
    8       27.146568   0.000000
 
 -0.4642857E+00 -0.4642857E+00  0.3571429E-01  0.2186589E-02
    1        4.515678   1.000000
    2        6.098420   1.000000
    3       12.803186   0.000000
    4       13.452659   0.000000
    5       15.076578   0.000000
    6       17.305916   0.000000
    7       34.716266   0.000000
    8       36.322259   0.000000
 
 -0.3928571E+00 -0.4642857E+00  0.3571429E-01  0.4373178E-02
    1        3.447524   1.000000
    2        7.521031   1.000000
    3       11.842475   0.000000
    4       13.099290   0.000000
    5       16.168870   0.000000
    6       18.227903   0.000000
    7       33.548503   0.000000
    8       35.461657   0.000000
 
 -0.3214286E+00 -0.4642857E+00  0.3571429E-01  0.4373178E-02
    1        2.597473   1.000000
    2        9.182668   1.000000
    3        9.956835   1.000000
    4       13.523471   0.000000
    5       16.975059   0.000000
    6       20.667500   0.000000
    7       31.116184   0.000000
    8       33.845862   0.000000
 
 -0.2500000E+00 -0.4642857E+00  0.3571429E-01  0.4373178E-02
    1        2.021955   1.000000
    2        8.004182   1.000000
    3       11.323047   0.000000
    4       14.229269   0.000000
    5       17.794144   0.000000
    6       23.579974   0.000000
    7       28.481421   0.000000
    8       31.676275   0.000000
 
 -0.1785714E+00 -0.4642857E+00  0.3571429E-01  0.4373178E-02
    1        1.729588   1.000000
    2        6.437505   1.000000
    3       13.527840   0.000000
    4       15.201350   0.000000
    5       18.813401   0.000000
    6       25.697157   0.000000
    7       26.619422   0.000000
    8       29.680012   0.000000
 
 -0.1071429E+00 -0.4642857E+00  0.3571429E-01  0.4373178E-02
    1        1.721359   1.000000
    2        5.129767   1.000000
    3       15.812594   0.000000
    4       16.472338   0.000000
    5       20.000127   0.000000
    6       23.571674   0.000000
    7       26.236498   0.000000
    8       29.628491   0.000000
 
 -0.3928571E+00 -0.3928571E+00  0.3571429E-01  0.2186589E-02
    1        2.215408   1.000000
    2        8.903785   1.000000
    3       13.073346   0.000000
    4       13.713159   0.000000
    5       15.365071   0.000000
    6       17.584516   0.000000
    7       33.739329   0.000000
    8       35.229175   0.000000
 
 -0.3214286E+00 -0.3928571E+00  0.3571429E-01  0.4373178E-02
    1        1.254761   1.000000
    2       10.534347   0.000000
    3       12.309806   0.000000
    4       13.549072   0.000000
    5       16.639258   0.000000
    6       18.676535   0.000000
    7       31.939458   0.000000
    8       34.194707   0.000000
 
 -0.2500000E+00 -0.3928571E+00  0.3571429E-01  0.4373178E-02
    1        0.577188   1.000000
    2       10.459333   0.000000
    3       12.485340   0.000000
    4       14.161025   0.000000
    5       17.635221   0.000000
    6       21.254371   0.000000
    7       29.394165   0.000000
    8       32.105321   0.000000
 
 -0.1785714E+00 -0.3928571E+00  0.3571429E-01  0.4373178E-02
    1        0.187688   1.000000
    2        8.850539   1.000000
    3       14.485556   0.000000
    4       15.118782   0.000000
    5       18.633209   0.000000
    6       24.211279   0.000000
    7       26.884961   0.000000
    8       29.736028   0.000000
 
 -0.1071429E+00 -0.3928571E+00  0.3571429E-01  0.4373178E-02
    1        0.088499   1.000000
    2        7.468735   1.000000
    3       16.017934   0.000000
    4       16.901918   0.000000
    5       19.809687   0.000000
    6       24.406901   0.000000
    7       26.077305   0.000000
    8       28.532803   0.000000
 
 -0.3214286E+00 -0.3214286E+00  0.3571429E-01  0.2186589E-02
    1        0.190024   1.000000
    2       12.072877   0.000000
    3       13.707948   0.000000
    4       14.320570   0.000000
    5       16.038603   0.000000
    6       18.239638   0.000000
    7       32.253451   0.000000
    8       33.359065   0.000000
 
 -0.2500000E+00 -0.3214286E+00  0.3571429E-01  0.4373178E-02
    1       -0.589115   1.000000
    2       13.048047   0.000000
    3       13.810529   0.000000
    4       14.445124   0.000000
    5       17.486374   0.000000
    6       19.491459   0.000000
    7       30.321107   0.000000
    8       32.079347   0.000000
 
 -0.1785714E+00 -0.3214286E+00  0.3571429E-01  0.4373178E-02
    1       -1.078152   1.000000
    2       11.485425   0.000000
    3       15.007561   0.000000
    4       15.945139   0.000000
    5       18.702899   0.000000
    6       22.164174   0.000000
    7       27.890475   0.000000
    8       29.791537   0.000000
 