<?xml version="1.0" encoding="ISO-8859-1"?>
<modeling>
 <generator>
  <i name="program" type="string">vasp </i>
  <i name="version" type="string">6.2.0  </i>
  <i name="subversion" type="string">18Jan21 (build Aug 12 2022 13:00:08) complex                          parallel </i>
  <i name="platform" type="string">LinuxIFC </i>
  <i name="date" type="string">2024 11 03 </i>
  <i name="time" type="string">21:55:26 </i>
 </generator>
 <incar>
  <i type="int" name="ISTART">     0</i>
  <i type="string" name="PREC">Accurate      (Accurate strictly avoids</i>
  <i type="logical" name="ADDGRID"> T  </i>
  <i type="int" name="ISPIN">     1</i>
  <i type="int" name="NELM">    90</i>
  <i type="int" name="NELMIN">     6</i>
  <i type="int" name="IBRION">     2</i>
  <i name="EDIFF">      0.00000100</i>
  <i name="EDIFFG">     -0.00200000</i>
  <i type="int" name="NSW">   100</i>
  <i type="int" name="ISIF">     3</i>
  <i type="int" name="ISYM">     2</i>
  <i name="ENCUT">    350.00000000</i>
  <i type="logical" name="LREAL"> F  </i>
  <i type="int" name="ISMEAR">     0</i>
  <i name="SIGMA">      0.05000000</i>
  <i type="logical" name="LWAVE"> F  </i>
  <i type="logical" name="LCHARG"> F  </i>
  <i type="logical" name="LASPH"> T  </i>
 </incar>
 <primitive_cell>
  <structure name="primitive_cell" >
   <crystal>
    <varray name="basis" >
     <v>       2.34739500       0.00000000       1.35526800 </v>
     <v>       0.78246500       2.21314500       1.35526800 </v>
     <v>       0.00000000       0.00000000       2.71053800 </v>
    </varray>
    <i name="volume">     14.08158510 </i>
    <varray name="rec_basis" >
     <v>       0.42600415      -0.15061523       0.00000000 </v>
     <v>       0.00000000       0.45184568       0.00000000 </v>
     <v>      -0.21300192      -0.15061511       0.36893045 </v>
    </varray>
   </crystal>
   <varray name="positions" >
    <v>       0.00000000       0.00000000       0.00000000 </v>
   </varray>
  </structure>
  <varray name="primitive_index" >
   <v type="int" >        1 </v>
  </varray>
 </primitive_cell>
 <kpoints>
  <generation param="Monkhorst-Pack">
   <v type="int" name="divisions">      14       14       14 </v>
   <v name="usershift">      0.00000000       0.00000000       0.00000000 </v>
   <v name="genvec1">      0.07142857      -0.00000000       0.00000000 </v>
   <v name="genvec2">      0.00000000       0.07142857       0.00000000 </v>
   <v name="genvec3">     -0.00000000      -0.00000000       0.07142857 </v>
   <v name="shift">      0.50000000       0.50000000       0.50000000 </v>
  </generation>
  <varray name="kpointlist" >
   <v>       0.03571429       0.03571429       0.03571429 </v>
   <v>       0.10714286       0.03571429       0.03571429 </v>
   <v>       0.17857143       0.03571429       0.03571429 </v>
   <v>       0.25000000       0.03571429       0.03571429 </v>
   <v>       0.32142857       0.03571429       0.03571429 </v>
   <v>       0.39285714       0.03571429       0.03571429 </v>
   <v>       0.46428571       0.03571429       0.03571429 </v>
   <v>      -0.46428571       0.03571429       0.03571429 </v>
   <v>      -0.39285714       0.03571429       0.03571429 </v>
   <v>      -0.32142857       0.03571429       0.03571429 </v>
   <v>      -0.25000000       0.03571429       0.03571429 </v>
   <v>      -0.17857143       0.03571429       0.03571429 </v>
   <v>      -0.10714286       0.03571429       0.03571429 </v>
   <v>      -0.03571429       0.03571429       0.03571429 </v>
   <v>       0.10714286       0.10714286       0.03571429 </v>
   <v>       0.17857143       0.10714286       0.03571429 </v>
   <v>       0.25000000       0.10714286       0.03571429 </v>
   <v>       0.32142857       0.10714286       0.03571429 </v>
   <v>       0.39285714       0.10714286       0.03571429 </v>
   <v>       0.46428571       0.10714286       0.03571429 </v>
   <v>      -0.46428571       0.10714286       0.03571429 </v>
   <v>      -0.39285714       0.10714286       0.03571429 </v>
   <v>      -0.32142857       0.10714286       0.03571429 </v>
   <v>      -0.25000000       0.10714286       0.03571429 </v>
   <v>      -0.17857143       0.10714286       0.03571429 </v>
   <v>      -0.10714286       0.10714286       0.03571429 </v>
   <v>      -0.03571429       0.10714286       0.03571429 </v>
   <v>       0.17857143       0.17857143       0.03571429 </v>
   <v>       0.25000000       0.17857143       0.03571429 </v>
   <v>       0.32142857       0.17857143       0.03571429 </v>
   <v>       0.39285714       0.17857143       0.03571429 </v>
   <v>       0.46428571       0.17857143       0.03571429 </v>
   <v>      -0.46428571       0.17857143       0.03571429 </v>
   <v>      -0.39285714       0.17857143       0.03571429 </v>
   <v>      -0.32142857       0.17857143       0.03571429 </v>
   <v>      -0.25000000       0.17857143       0.03571429 </v>
   <v>      -0.17857143       0.17857143       0.03571429 </v>
   <v>      -0.10714286       0.17857143       0.03571429 </v>
   <v>      -0.03571429       0.17857143       0.03571429 </v>
   <v>       0.25000000       0.25000000       0.03571429 </v>
   <v>       0.32142857       0.25000000       0.03571429 </v>
   <v>       0.39285714       0.25000000       0.03571429 </v>
   <v>       0.46428571       0.25000000       0.03571429 </v>
   <v>      -0.46428571       0.25000000       0.03571429 </v>
   <v>      -0.39285714       0.25000000       0.03571429 </v>
   <v>      -0.32142857       0.25000000       0.03571429 </v>
   <v>      -0.25000000       0.25000000       0.03571429 </v>
   <v>      -0.17857143       0.25000000       0.03571429 </v>
   <v>      -0.10714286       0.25000000       0.03571429 </v>
   <v>      -0.03571429       0.25000000       0.03571429 </v>
   <v>       0.32142857       0.32142857       0.03571429 </v>
   <v>       0.39285714       0.32142857       0.03571429 </v>
   <v>       0.46428571       0.32142857       0.03571429 </v>
   <v>      -0.46428571       0.32142857       0.03571429 </v>
   <v>      -0.39285714       0.32142857       0.03571429 </v>
   <v>      -0.32142857       0.32142857       0.03571429 </v>
   <v>      -0.25000000       0.32142857       0.03571429 </v>
   <v>      -0.17857143       0.32142857       0.03571429 </v>
   <v>      -0.10714286       0.32142857       0.03571429 </v>
   <v>      -0.03571429       0.32142857       0.03571429 </v>
   <v>       0.39285714       0.39285714       0.03571429 </v>
   <v>       0.46428571       0.39285714       0.03571429 </v>
   <v>      -0.46428571       0.39285714       0.03571429 </v>
   <v>      -0.39285714       0.39285714       0.03571429 </v>
   <v>      -0.32142857       0.39285714       0.03571429 </v>
   <v>      -0.25000000       0.39285714       0.03571429 </v>
   <v>      -0.17857143       0.39285714       0.03571429 </v>
   <v>      -0.10714286       0.39285714       0.03571429 </v>
   <v>      -0.03571429       0.39285714       0.03571429 </v>
   <v>       0.46428571       0.46428571       0.03571429 </v>
   <v>      -0.46428571       0.46428571       0.03571429 </v>
   <v>      -0.39285714       0.46428571       0.03571429 </v>
   <v>      -0.32142857       0.46428571       0.03571429 </v>
   <v>      -0.25000000       0.46428571       0.03571429 </v>
   <v>      -0.17857143       0.46428571       0.03571429 </v>
   <v>      -0.10714286       0.46428571       0.03571429 </v>
   <v>      -0.03571429       0.46428571       0.03571429 </v>
   <v>      -0.46428571      -0.46428571       0.03571429 </v>
   <v>      -0.39285714      -0.46428571       0.03571429 </v>
   <v>      -0.32142857      -0.46428571       0.03571429 </v>
   <v>      -0.25000000      -0.46428571       0.03571429 </v>
   <v>      -0.17857143      -0.46428571       0.03571429 </v>
   <v>      -0.10714286      -0.46428571       0.03571429 </v>
   <v>      -0.39285714      -0.39285714       0.03571429 </v>
   <v>      -0.32142857      -0.39285714       0.03571429 </v>
   <v>      -0.25000000      -0.39285714       0.03571429 </v>
   <v>      -0.17857143      -0.39285714       0.03571429 </v>
   <v>      -0.10714286      -0.39285714       0.03571429 </v>
   <v>      -0.32142857      -0.32142857       0.03571429 </v>
   <v>      -0.25000000      -0.32142857       0.03571429 </v>
   <v>      -0.17857143      -0.32142857       0.03571429 </v>
   <v>      -0.10714286      -0.32142857       0.03571429 </v>
   <v>      -0.25000000      -0.25000000       0.03571429 </v>
   <v>      -0.17857143      -0.25000000       0.03571429 </v>
   <v>      -0.10714286      -0.25000000       0.03571429 </v>
   <v>      -0.17857143      -0.17857143       0.03571429 </v>
   <v>      -0.10714286      -0.17857143       0.03571429 </v>
   <v>      -0.10714286      -0.10714286       0.03571429 </v>
   <v>       0.10714286       0.10714286       0.10714286 </v>
   <v>       0.17857143       0.10714286       0.10714286 </v>
   <v>       0.25000000       0.10714286       0.10714286 </v>
   <v>       0.32142857       0.10714286       0.10714286 </v>
   <v>       0.39285714       0.10714286       0.10714286 </v>
   <v>       0.46428571       0.10714286       0.10714286 </v>
   <v>      -0.46428571       0.10714286       0.10714286 </v>
   <v>      -0.39285714       0.10714286       0.10714286 </v>
   <v>      -0.32142857       0.10714286       0.10714286 </v>
   <v>      -0.25000000       0.10714286       0.10714286 </v>
   <v>      -0.17857143       0.10714286       0.10714286 </v>
   <v>      -0.10714286       0.10714286       0.10714286 </v>
   <v>       0.17857143       0.17857143       0.10714286 </v>
   <v>       0.25000000       0.17857143       0.10714286 </v>
   <v>       0.32142857       0.17857143       0.10714286 </v>
   <v>       0.39285714       0.17857143       0.10714286 </v>
   <v>       0.46428571       0.17857143       0.10714286 </v>
   <v>      -0.46428571       0.17857143       0.10714286 </v>
   <v>      -0.39285714       0.17857143       0.10714286 </v>
   <v>      -0.32142857       0.17857143       0.10714286 </v>
   <v>      -0.25000000       0.17857143       0.10714286 </v>
   <v>      -0.17857143       0.17857143       0.10714286 </v>
   <v>      -0.10714286       0.17857143       0.10714286 </v>
   <v>       0.25000000       0.25000000       0.10714286 </v>
   <v>       0.32142857       0.25000000       0.10714286 </v>
   <v>       0.39285714       0.25000000       0.10714286 </v>
   <v>       0.46428571       0.25000000       0.10714286 </v>
   <v>      -0.46428571       0.25000000       0.10714286 </v>
   <v>      -0.39285714       0.25000000       0.10714286 </v>
   <v>      -0.32142857       0.25000000       0.10714286 </v>
   <v>      -0.25000000       0.25000000       0.10714286 </v>
   <v>      -0.17857143       0.25000000       0.10714286 </v>
   <v>      -0.10714286       0.25000000       0.10714286 </v>
   <v>       0.32142857       0.32142857       0.10714286 </v>
   <v>       0.39285714       0.32142857       0.10714286 </v>
   <v>       0.46428571       0.32142857       0.10714286 </v>
   <v>      -0.46428571       0.32142857       0.10714286 </v>
   <v>      -0.39285714       0.32142857       0.10714286 </v>
   <v>      -0.32142857       0.32142857       0.10714286 </v>
   <v>      -0.25000000       0.32142857       0.10714286 </v>
   <v>      -0.17857143       0.32142857       0.10714286 </v>
   <v>      -0.10714286       0.32142857       0.10714286 </v>
   <v>       0.39285714       0.39285714       0.10714286 </v>
   <v>       0.46428571       0.39285714       0.10714286 </v>
   <v>      -0.46428571       0.39285714       0.10714286 </v>
   <v>      -0.39285714       0.39285714       0.10714286 </v>
   <v>      -0.32142857       0.39285714       0.10714286 </v>
   <v>      -0.25000000       0.39285714       0.10714286 </v>
   <v>      -0.17857143       0.39285714       0.10714286 </v>
   <v>      -0.10714286       0.39285714       0.10714286 </v>
   <v>       0.46428571       0.46428571       0.10714286 </v>
   <v>      -0.46428571       0.46428571       0.10714286 </v>
   <v>      -0.39285714       0.46428571       0.10714286 </v>
   <v>      -0.32142857       0.46428571       0.10714286 </v>
   <v>      -0.25000000       0.46428571       0.10714286 </v>
   <v>      -0.17857143       0.46428571       0.10714286 </v>
   <v>      -0.10714286       0.46428571       0.10714286 </v>
   <v>      -0.46428571      -0.46428571       0.10714286 </v>
   <v>      -0.39285714      -0.46428571       0.10714286 </v>
   <v>      -0.32142857      -0.46428571       0.10714286 </v>
   <v>      -0.25000000      -0.46428571       0.10714286 </v>
   <v>      -0.17857143      -0.46428571       0.10714286 </v>
   <v>      -0.39285714      -0.39285714       0.10714286 </v>
   <v>      -0.32142857      -0.39285714       0.10714286 </v>
   <v>      -0.25000000      -0.39285714       0.10714286 </v>
   <v>      -0.17857143      -0.39285714       0.10714286 </v>
   <v>      -0.32142857      -0.32142857       0.10714286 </v>
   <v>      -0.25000000      -0.32142857       0.10714286 </v>
   <v>      -0.17857143      -0.32142857       0.10714286 </v>
   <v>      -0.25000000      -0.25000000       0.10714286 </v>
   <v>      -0.17857143      -0.25000000       0.10714286 </v>
   <v>      -0.17857143      -0.17857143       0.10714286 </v>
   <v>       0.17857143       0.17857143       0.17857143 </v>
   <v>       0.25000000       0.17857143       0.17857143 </v>
   <v>       0.32142857       0.17857143       0.17857143 </v>
   <v>       0.39285714       0.17857143       0.17857143 </v>
   <v>       0.46428571       0.17857143       0.17857143 </v>
   <v>      -0.46428571       0.17857143       0.17857143 </v>
   <v>      -0.39285714       0.17857143       0.17857143 </v>
   <v>      -0.32142857       0.17857143       0.17857143 </v>
   <v>      -0.25000000       0.17857143       0.17857143 </v>
   <v>      -0.17857143       0.17857143       0.17857143 </v>
   <v>       0.25000000       0.25000000       0.17857143 </v>
   <v>       0.32142857       0.25000000       0.17857143 </v>
   <v>       0.39285714       0.25000000       0.17857143 </v>
   <v>       0.46428571       0.25000000       0.17857143 </v>
   <v>      -0.46428571       0.25000000       0.17857143 </v>
   <v>      -0.39285714       0.25000000       0.17857143 </v>
   <v>      -0.32142857       0.25000000       0.17857143 </v>
   <v>      -0.25000000       0.25000000       0.17857143 </v>
   <v>      -0.17857143       0.25000000       0.17857143 </v>
   <v>       0.32142857       0.32142857       0.17857143 </v>
   <v>       0.39285714       0.32142857       0.17857143 </v>
   <v>       0.46428571       0.32142857       0.17857143 </v>
   <v>      -0.46428571       0.32142857       0.17857143 </v>
   <v>      -0.39285714       0.32142857       0.17857143 </v>
   <v>      -0.32142857       0.32142857       0.17857143 </v>
   <v>      -0.25000000       0.32142857       0.17857143 </v>
   <v>      -0.17857143       0.32142857       0.17857143 </v>
   <v>       0.39285714       0.39285714       0.17857143 </v>
   <v>       0.46428571       0.39285714       0.17857143 </v>
   <v>      -0.46428571       0.39285714       0.17857143 </v>
   <v>      -0.39285714       0.39285714       0.17857143 </v>
   <v>      -0.32142857       0.39285714       0.17857143 </v>
   <v>      -0.25000000       0.39285714       0.17857143 </v>
   <v>      -0.17857143       0.39285714       0.17857143 </v>
   <v>       0.46428571       0.46428571       0.17857143 </v>
   <v>      -0.46428571       0.46428571       0.17857143 </v>
   <v>      -0.39285714       0.46428571       0.17857143 </v>
   <v>      -0.32142857       0.46428571       0.17857143 </v>
   <v>      -0.25000000       0.46428571       0.17857143 </v>
   <v>      -0.17857143       0.46428571       0.17857143 </v>
   <v>      -0.46428571      -0.46428571       0.17857143 </v>
   <v>      -0.39285714      -0.46428571       0.17857143 </v>
   <v>      -0.32142857      -0.46428571       0.17857143 </v>
   <v>      -0.25000000      -0.46428571       0.17857143 </v>
   <v>      -0.39285714      -0.39285714       0.17857143 </v>
   <v>      -0.32142857      -0.39285714       0.17857143 </v>
   <v>      -0.25000000      -0.39285714       0.17857143 </v>
   <v>      -0.32142857      -0.32142857       0.17857143 </v>
   <v>      -0.25000000      -0.32142857       0.17857143 </v>
   <v>      -0.25000000      -0.25000000       0.17857143 </v>
   <v>       0.25000000       0.25000000       0.25000000 </v>
   <v>       0.32142857       0.25000000       0.25000000 </v>
   <v>       0.39285714       0.25000000       0.25000000 </v>
   <v>       0.46428571       0.25000000       0.25000000 </v>
   <v>      -0.46428571       0.25000000       0.25000000 </v>
   <v>      -0.39285714       0.25000000       0.25000000 </v>
   <v>      -0.32142857       0.25000000       0.25000000 </v>
   <v>      -0.25000000       0.25000000       0.25000000 </v>
   <v>       0.32142857       0.32142857       0.25000000 </v>
   <v>       0.39285714       0.32142857       0.25000000 </v>
   <v>       0.46428571       0.32142857       0.25000000 </v>
   <v>      -0.46428571       0.32142857       0.25000000 </v>
   <v>      -0.39285714       0.32142857       0.25000000 </v>
   <v>      -0.32142857       0.32142857       0.25000000 </v>
   <v>      -0.25000000       0.32142857       0.25000000 </v>
   <v>       0.39285714       0.39285714       0.25000000 </v>
   <v>       0.46428571       0.39285714       0.25000000 </v>
   <v>      -0.46428571       0.39285714       0.25000000 </v>
   <v>      -0.39285714       0.39285714       0.25000000 </v>
   <v>      -0.32142857       0.39285714       0.25000000 </v>
   <v>      -0.25000000       0.39285714       0.25000000 </v>
   <v>       0.46428571       0.46428571       0.25000000 </v>
   <v>      -0.46428571       0.46428571       0.25000000 </v>
   <v>      -0.39285714       0.46428571       0.25000000 </v>
   <v>      -0.32142857       0.46428571       0.25000000 </v>
   <v>      -0.25000000       0.46428571       0.25000000 </v>
   <v>      -0.46428571      -0.46428571       0.25000000 </v>
   <v>      -0.39285714      -0.46428571       0.25000000 </v>
   <v>      -0.32142857      -0.46428571       0.25000000 </v>
   <v>      -0.39285714      -0.39285714       0.25000000 </v>
   <v>      -0.32142857      -0.39285714       0.25000000 </v>
   <v>      -0.32142857      -0.32142857       0.25000000 </v>
   <v>       0.32142857       0.32142857       0.32142857 </v>
   <v>       0.39285714       0.32142857       0.32142857 </v>
   <v>       0.46428571       0.32142857       0.32142857 </v>
   <v>      -0.46428571       0.32142857       0.32142857 </v>
   <v>      -0.39285714       0.32142857       0.32142857 </v>
   <v>      -0.32142857       0.32142857       0.32142857 </v>
   <v>       0.39285714       0.39285714       0.32142857 </v>
   <v>       0.46428571       0.39285714       0.32142857 </v>
   <v>      -0.46428571       0.39285714       0.32142857 </v>
   <v>      -0.39285714       0.39285714       0.32142857 </v>
   <v>      -0.32142857       0.39285714       0.32142857 </v>
   <v>       0.46428571       0.46428571       0.32142857 </v>
   <v>      -0.46428571       0.46428571       0.32142857 </v>
   <v>      -0.39285714       0.46428571       0.32142857 </v>
   <v>      -0.32142857       0.46428571       0.32142857 </v>
   <v>      -0.46428571      -0.46428571       0.32142857 </v>
   <v>      -0.39285714      -0.46428571       0.32142857 </v>
   <v>      -0.39285714      -0.39285714       0.32142857 </v>
   <v>       0.39285714       0.39285714       0.39285714 </v>
   <v>       0.46428571       0.39285714       0.39285714 </v>
   <v>      -0.46428571       0.39285714       0.39285714 </v>
   <v>      -0.39285714       0.39285714       0.39285714 </v>
   <v>       0.46428571       0.46428571       0.39285714 </v>
   <v>      -0.46428571       0.46428571       0.39285714 </v>
   <v>      -0.39285714       0.46428571       0.39285714 </v>
   <v>      -0.46428571      -0.46428571       0.39285714 </v>
   <v>       0.46428571       0.46428571       0.46428571 </v>
   <v>      -0.46428571       0.46428571       0.46428571 </v>
  </varray>
  <varray name="weights" >
   <v>       0.00072886 </v>
   <v>       0.00218659 </v>
   <v>       0.00218659 </v>
   <v>       0.00218659 </v>
   <v>       0.00218659 </v>
   <v>       0.00218659 </v>
   <v>       0.00218659 </v>
   <v>       0.00218659 </v>
   <v>       0.00218659 </v>
   <v>       0.00218659 </v>
   <v>       0.00218659 </v>
   <v>       0.00218659 </v>
   <v>       0.00218659 </v>
   <v>       0.00218659 </v>
   <v>       0.00218659 </v>
   <v>       0.00437318 </v>
   <v>       0.00437318 </v>
   <v>       0.00437318 </v>
   <v>       0.00437318 </v>
   <v>       0.00437318 </v>
   <v>       0.00437318 </v>
   <v>       0.00437318 </v>
   <v>       0.00437318 </v>
   <v>       0.00437318 </v>
   <v>       0.00437318 </v>
   <v>       0.00437318 </v>
   <v>       0.00437318 </v>
   <v>       0.00218659 </v>
   <v>       0.00437318 </v>
   <v>       0.00437318 </v>
   <v>       0.00437318 </v>
   <v>       0.00437318 </v>
   <v>       0.00437318 </v>
   <v>       0.00437318 </v>
   <v>       0.00437318 </v>
   <v>       0.00437318 </v>
   <v>       0.00437318 </v>
   <v>       0.00437318 </v>
   <v>       0.00437318 </v>
   <v>       0.00218659 </v>
   <v>       0.00437318 </v>
   <v>       0.00437318 </v>
   <v>       0.00437318 </v>
   <v>       0.00437318 </v>
   <v>       0.00437318 </v>
   <v>       0.00437318 </v>
   <v>       0.00437318 </v>
   <v>       0.00437318 </v>
   <v>       0.00437318 </v>
   <v>       0.00437318 </v>
   <v>       0.00218659 </v>
   <v>       0.00437318 </v>
   <v>       0.00437318 </v>
   <v>       0.00437318 </v>
   <v>       0.00437318 </v>
   <v>       0.00437318 </v>
   <v>       0.00437318 </v>
   <v>       0.00437318 </v>
   <v>       0.00437318 </v>
   <v>       0.00437318 </v>
   <v>       0.00218659 </v>
   <v>       0.00437318 </v>
   <v>       0.00437318 </v>
   <v>       0.00437318 </v>
   <v>       0.00437318 </v>
   <v>       0.00437318 </v>
   <v>       0.00437318 </v>
   <v>       0.00437318 </v>
   <v>       0.00437318 </v>
   <v>       0.00218659 </v>
   <v>       0.00437318 </v>
   <v>       0.00437318 </v>
   <v>       0.00437318 </v>
   <v>       0.00437318 </v>
   <v>       0.00437318 </v>
   <v>       0.00437318 </v>
   <v>       0.00437318 </v>
   <v>       0.00218659 </v>
   <v>       0.00437318 </v>
   <v>       0.00437318 </v>
   <v>       0.00437318 </v>
   <v>       0.00437318 </v>
   <v>       0.00437318 </v>
   <v>       0.00218659 </v>
   <v>       0.00437318 </v>
   <v>       0.00437318 </v>
   <v>       0.00437318 </v>
   <v>       0.00437318 </v>
   <v>       0.00218659 </v>
   <v>       0.00437318 </v>
   <v>       0.00437318 </v>
   <v>       0.00437318 </v>
   <v>       0.00218659 </v>
   <v>       0.00437318 </v>
   <v>       0.00437318 </v>
   <v>       0.00218659 </v>
   <v>       0.00437318 </v>
   <v>       0.00218659 </v>
   <v>       0.00072886 </v>
   <v>       0.00218659 </v>
   <v>       0.00218659 </v>
   <v>       0.00218659 </v>
   <v>       0.00218659 </v>
   <v>       0.00218659 </v>
   <v>       0.00218659 </v>
   <v>       0.00218659 </v>
   <v>       0.00218659 </v>
   <v>       0.00218659 </v>
   <v>       0.00218659 </v>
   <v>       0.00218659 </v>
   <v>       0.00218659 </v>
   <v>       0.00437318 </v>
   <v>       0.00437318 </v>
   <v>       0.00437318 </v>
   <v>       0.00437318 </v>
   <v>       0.00437318 </v>
   <v>       0.00437318 </v>
   <v>       0.00437318 </v>
   <v>       0.00437318 </v>
   <v>       0.00437318 </v>
   <v>       0.00437318 </v>
   <v>       0.00218659 </v>
   <v>       0.00437318 </v>
   <v>       0.00437318 </v>
   <v>       0.00437318 </v>
   <v>       0.00437318 </v>
   <v>       0.00437318 </v>
   <v>       0.00437318 </v>
   <v>       0.00437318 </v>
   <v>       0.00437318 </v>
   <v>       0.00437318 </v>
   <v>       0.00218659 </v>
   <v>       0.00437318 </v>
   <v>       0.00437318 </v>
   <v>       0.00437318 </v>
   <v>       0.00437318 </v>
   <v>       0.00437318 </v>
   <v>       0.00437318 </v>
   <v>       0.00437318 </v>
   <v>       0.00437318 </v>
   <v>       0.00218659 </v>
   <v>       0.00437318 </v>
   <v>       0.00437318 </v>
   <v>       0.00437318 </v>
   <v>       0.00437318 </v>
   <v>       0.00437318 </v>
   <v>       0.00437318 </v>
   <v>       0.00437318 </v>
   <v>       0.00218659 </v>
   <v>       0.00437318 </v>
   <v>       0.00437318 </v>
   <v>       0.00437318 </v>
   <v>       0.00437318 </v>
   <v>       0.00437318 </v>
   <v>       0.00437318 </v>
   <v>       0.00218659 </v>
   <v>       0.00437318 </v>
   <v>       0.00437318 </v>
   <v>       0.00437318 </v>
   <v>       0.00437318 </v>
   <v>       0.00218659 </v>
   <v>       0.00437318 </v>
   <v>       0.00437318 </v>
   <v>       0.00437318 </v>
   <v>       0.00218659 </v>
   <v>       0.00437318 </v>
   <v>       0.00437318 </v>
   <v>       0.00218659 </v>
   <v>       0.00437318 </v>
   <v>       0.00218659 </v>
   <v>       0.00072886 </v>
   <v>       0.00218659 </v>
   <v>       0.00218659 </v>
   <v>       0.00218659 </v>
   <v>       0.00218659 </v>
   <v>       0.00218659 </v>
   <v>       0.00218659 </v>
   <v>       0.00218659 </v>
   <v>       0.00218659 </v>
   <v>       0.00218659 </v>
   <v>       0.00218659 </v>
   <v>       0.00437318 </v>
   <v>       0.00437318 </v>
   <v>       0.00437318 </v>
   <v>       0.00437318 </v>
   <v>       0.00437318 </v>
   <v>       0.00437318 </v>
   <v>       0.00437318 </v>
   <v>       0.00437318 </v>
   <v>       0.00218659 </v>
   <v>       0.00437318 </v>
   <v>       0.00437318 </v>
   <v>       0.00437318 </v>
   <v>       0.00437318 </v>
   <v>       0.00437318 </v>
   <v>       0.00437318 </v>
   <v>       0.00437318 </v>
   <v>       0.00218659 </v>
   <v>       0.00437318 </v>
   <v>       0.00437318 </v>
   <v>       0.00437318 </v>
   <v>       0.00437318 </v>
   <v>       0.00437318 </v>
   <v>       0.00437318 </v>
   <v>       0.00218659 </v>
   <v>       0.00437318 </v>
   <v>       0.00437318 </v>
   <v>       0.00437318 </v>
   <v>       0.00437318 </v>
   <v>       0.00437318 </v>
   <v>       0.00218659 </v>
   <v>       0.00437318 </v>
   <v>       0.00437318 </v>
   <v>       0.00437318 </v>
   <v>       0.00218659 </v>
   <v>       0.00437318 </v>
   <v>       0.00437318 </v>
   <v>       0.00218659 </v>
   <v>       0.00437318 </v>
   <v>       0.00218659 </v>
   <v>       0.00072886 </v>
   <v>       0.00218659 </v>
   <v>       0.00218659 </v>
   <v>       0.00218659 </v>
   <v>       0.00218659 </v>
   <v>       0.00218659 </v>
   <v>       0.00218659 </v>
   <v>       0.00218659 </v>
   <v>       0.00218659 </v>
   <v>       0.00437318 </v>
   <v>       0.00437318 </v>
   <v>       0.00437318 </v>
   <v>       0.00437318 </v>
   <v>       0.00437318 </v>
   <v>       0.00437318 </v>
   <v>       0.00218659 </v>
   <v>       0.00437318 </v>
   <v>       0.00437318 </v>
   <v>       0.00437318 </v>
   <v>       0.00437318 </v>
   <v>       0.00437318 </v>
   <v>       0.00218659 </v>
   <v>       0.00437318 </v>
   <v>       0.00437318 </v>
   <v>       0.00437318 </v>
   <v>       0.00437318 </v>
   <v>       0.00218659 </v>
   <v>       0.00437318 </v>
   <v>       0.00437318 </v>
   <v>       0.00218659 </v>
   <v>       0.00437318 </v>
   <v>       0.00218659 </v>
   <v>       0.00072886 </v>
   <v>       0.00218659 </v>
   <v>       0.00218659 </v>
   <v>       0.00218659 </v>
   <v>       0.00218659 </v>
   <v>       0.00218659 </v>
   <v>       0.00218659 </v>
   <v>       0.00437318 </v>
   <v>       0.00437318 </v>
   <v>       0.00437318 </v>
   <v>       0.00437318 </v>
   <v>       0.00218659 </v>
   <v>       0.00437318 </v>
   <v>       0.00437318 </v>
   <v>       0.00437318 </v>
   <v>       0.00218659 </v>
   <v>       0.00437318 </v>
   <v>       0.00218659 </v>
   <v>       0.00072886 </v>
   <v>       0.00218659 </v>
   <v>       0.00218659 </v>
   <v>       0.00218659 </v>
   <v>       0.00218659 </v>
   <v>       0.00437318 </v>
   <v>       0.00437318 </v>
   <v>       0.00218659 </v>
   <v>       0.00072886 </v>
   <v>       0.00218659 </v>
  </varray>
 </kpoints>
 <parameters>
  <separator name="general" >
   <i type="string" name="SYSTEM">unknown system</i>
   <i type="logical" name="LCOMPAT"> F  </i>
  </separator>
  <separator name="electronic" >
   <i type="string" name="PREC">accura</i>
   <i name="ENMAX">    350.00000000</i>
   <i name="ENAUG">    322.06900000</i>
   <i name="EDIFF">      0.00000100</i>
   <i type="int" name="IALGO">    38</i>
   <i type="int" name="IWAVPR">    11</i>
   <i type="int" name="NBANDS">     8</i>
   <i type="int" name="NBANDSLOW">    -1</i>
   <i type="int" name="NBANDSHIGH">    -1</i>
   <i name="NELECT">      4.00000000</i>
   <i type="int" name="TURBO">     0</i>
   <i type="int" name="IRESTART">     0</i>
   <i type="int" name="NREBOOT">     0</i>
   <i type="int" name="NMIN">     0</i>
   <i name="EREF">      0.00000000</i>
   <separator name="electronic smearing" >
    <i type="int" name="ISMEAR">     0</i>
    <i name="SIGMA">      0.05000000</i>
    <i name="KSPACING">      0.50000000</i>
    <i type="logical" name="KGAMMA"> T  </i>
    <i type="logical" name="KBLOWUP"> T  </i>
   </separator>
   <separator name="electronic projectors" >
    <i type="logical" name="LREAL"> F  </i>
    <v name="ROPT">      0.00000000</v>
    <i type="int" name="LMAXPAW">  -100</i>
    <i type="int" name="LMAXMIX">     2</i>
    <i type="logical" name="NLSPLINE"> F  </i>
   </separator>
   <separator name="electronic startup" >
    <i type="int" name="ISTART">     0</i>
    <i type="int" name="ICHARG">     2</i>
    <i type="int" name="INIWAV">     1</i>
   </separator>
   <separator name="electronic spin" >
    <i type="int" name="ISPIN">     1</i>
    <i type="logical" name="LNONCOLLINEAR"> F  </i>
    <v name="MAGMOM">      1.00000000</v>
    <i name="NUPDOWN">     -1.00000000</i>
    <i type="logical" name="LSORBIT"> F  </i>
    <v name="SAXIS">      0.00000000      0.00000000      1.00000000</v>
    <i type="logical" name="LSPIRAL"> F  </i>
    <v name="QSPIRAL">      0.00000000      0.00000000      0.00000000</v>
    <i type="logical" name="LZEROZ"> F  </i>
   </separator>
   <separator name="electronic exchange-correlation" >
    <i type="logical" name="LASPH"> T  </i>
    <i type="logical" name="LMETAGGA"> F  </i>
   </separator>
   <separator name="electronic convergence" >
    <i type="int" name="NELM">    90</i>
    <i type="int" name="NELMDL">    -5</i>
    <i type="int" name="NELMIN">     6</i>
    <i name="ENINI">    350.00000000</i>
    <separator name="electronic convergence detail" >
     <i type="logical" name="LDIAG"> T  </i>
     <i type="logical" name="LSUBROT"> F  </i>
     <i name="WEIMIN">      0.00100000</i>
     <i name="EBREAK">      0.00000003</i>
     <i name="DEPER">      0.30000000</i>
     <i type="int" name="NRMM">     4</i>
     <i name="TIME">      0.40000000</i>
    </separator>
   </separator>
   <separator name="electronic mixer" >
    <i name="AMIX">      0.40000000</i>
    <i name="BMIX">      1.00000000</i>
    <i name="AMIN">      0.10000000</i>
    <i name="AMIX_MAG">      1.60000000</i>
    <i name="BMIX_MAG">      1.00000000</i>
    <separator name="electronic mixer details" >
     <i type="int" name="IMIX">     4</i>
     <i type="logical" name="MIXFIRST"> F  </i>
     <i type="int" name="MAXMIX">   -45</i>
     <i name="WC">    100.00000000</i>
     <i type="int" name="INIMIX">     1</i>
     <i type="int" name="MIXPRE">     1</i>
     <i type="int" name="MREMOVE">     5</i>
    </separator>
   </separator>
   <separator name="electronic dipolcorrection" >
    <i type="logical" name="LDIPOL"> F  </i>
    <i type="logical" name="LMONO"> F  </i>
    <i type="int" name="IDIPOL">     0</i>
    <i name="EPSILON">      1.00000000</i>
    <v name="DIPOL">   -100.00000000   -100.00000000   -100.00000000</v>
    <i name="EFIELD">      0.00000000</i>
   </separator>
  </separator>
  <separator name="grids" >
   <i type="int" name="NGX">    18</i>
   <i type="int" name="NGY">    18</i>
   <i type="int" name="NGZ">    18</i>
   <i type="int" name="NGXF">    36</i>
   <i type="int" name="NGYF">    36</i>
   <i type="int" name="NGZF">    36</i>
   <i type="logical" name="ADDGRID"> T  </i>
  </separator>
  <separator name="ionic" >
   <i type="int" name="NSW">   100</i>
   <i type="int" name="IBRION">     2</i>
   <i type="int" name="MDALGO">     0</i>
   <i type="int" name="ISIF">     3</i>
   <i name="PSTRESS">      0.00000000</i>
   <i name="EDIFFG">     -0.00200000</i>
   <i type="int" name="NFREE">     1</i>
   <i name="POTIM">      0.50000000</i>
   <i name="SMASS">     -3.00000000</i>
   <i name="SCALEE">      1.00000000</i>
  </separator>
  <separator name="ionic md" >
   <i name="TEBEG">      0.00010000</i>
   <i name="TEEND">      0.00010000</i>
   <i type="int" name="NBLOCK">     1</i>
   <i type="int" name="KBLOCK">   100</i>
   <i type="int" name="NPACO">   256</i>
   <i name="APACO">     16.00000000</i>
  </separator>
  <separator name="symmetry" >
   <i type="int" name="ISYM">     2</i>
   <i name="SYMPREC">      0.00001000</i>
  </separator>
  <separator name="dos" >
   <i type="int" name="LORBIT">     0</i>
   <v name="RWIGS">     -1.00000000</v>
   <i type="int" name="NEDOS">   301</i>
   <i name="EMIN">     10.00000000</i>
   <i name="EMAX">    -10.00000000</i>
   <i name="EFERMI">      0.00000000</i>
  </separator>
  <separator name="writing" >
   <i type="int" name="NWRITE">     2</i>
   <i type="logical" name="LWAVE"> F  </i>
   <i type="logical" name="LDOWNSAMPLE"> F  </i>
   <i type="logical" name="LCHARG"> F  </i>
   <i type="logical" name="LPARD"> F  </i>
   <i type="logical" name="LVTOT"> F  </i>
   <i type="logical" name="LVHAR"> F  </i>
   <i type="logical" name="LELF"> F  </i>
   <i type="logical" name="LOPTICS"> F  </i>
   <v name="STM">      0.00000000      0.00000000      0.00000000      0.00000000      0.00000000      0.00000000      0.00000000</v>
  </separator>
  <separator name="performance" >
   <i type="int" name="NPAR">     4</i>
   <i type="int" name="NSIM">     4</i>
   <i type="int" name="NBLK">    -1</i>
   <i type="logical" name="LPLANE"> T  </i>
   <i type="logical" name="LSCALAPACK"> T  </i>
   <i type="logical" name="LSCAAWARE"> F  </i>
   <i type="logical" name="LSCALU"> F  </i>
   <i type="logical" name="LASYNC"> F  </i>
   <i type="logical" name="LORBITALREAL"> F  </i>
  </separator>
  <separator name="miscellaneous" >
   <i type="int" name="IDIOT">     3</i>
   <i type="int" name="PHON_NSTRUCT">    -1</i>
   <i type="logical" name="LMUSIC"> F  </i>
   <v name="POMASS">     28.08500000</v>
   <v name="DARWINR">      0.00000000</v>
   <v name="DARWINV">      1.00000000</v>
   <i type="logical" name="LCORR"> T  </i>
  </separator>
  <i type="logical" name="GGA_COMPAT"> T  </i>
  <i type="logical" name="LBERRY"> F  </i>
  <i type="int" name="ICORELEVEL">     0</i>
  <i type="logical" name="LDAU"> F  </i>
  <i type="int" name="I_CONSTRAINED_M">     0</i>
  <separator name="electronic exchange-correlation" >
   <i type="string" name="GGA">--</i>
   <i type="int" name="VOSKOWN">     0</i>
   <i type="logical" name="LHFCALC"> F  </i>
   <i type="string" name="PRECFOCK"></i>
   <i type="logical" name="LSYMGRAD"> F  </i>
   <i type="logical" name="LHFONE"> F  </i>
   <i type="logical" name="LRHFCALC"> F  </i>
   <i type="logical" name="LTHOMAS"> F  </i>
   <i type="logical" name="LMODELHF"> F  </i>
   <i type="logical" name="LFOCKACE"> F  </i>
   <i name="ENCUT4O">     -1.00000000</i>
   <i type="int" name="EXXOEP">     0</i>
   <i type="int" name="FOURORBIT">     0</i>
   <i name="AEXX">      0.00000000</i>
   <i name="HFALPHA">      0.00000000</i>
   <i name="MCALPHA">      0.00000000</i>
   <i name="ALDAX">      1.00000000</i>
   <i name="AGGAX">      1.00000000</i>
   <i name="ALDAC">      1.00000000</i>
   <i name="AGGAC">      1.00000000</i>
   <i type="int" name="NKREDX">     1</i>
   <i type="int" name="NKREDY">     1</i>
   <i type="int" name="NKREDZ">     1</i>
   <i type="logical" name="SHIFTRED"> F  </i>
   <i type="logical" name="ODDONLY"> F  </i>
   <i type="logical" name="EVENONLY"> F  </i>
   <i type="int" name="LMAXFOCK">     0</i>
   <i type="int" name="NMAXFOCKAE">     0</i>
   <i type="logical" name="LFOCKAEDFT"> F  </i>
   <i name="HFSCREEN">      0.00000000</i>
   <i name="HFSCREENC">      0.00000000</i>
   <i type="int" name="NBANDSGWLOW">     0</i>
  </separator>
  <separator name="vdW DFT" >
   <i type="logical" name="LUSE_VDW"> F  </i>
   <i name="Zab_VDW">     -0.84910000</i>
   <i name="PARAM1">      0.12340000</i>
   <i name="PARAM2">      1.00000000</i>
   <i name="PARAM3">      0.00000000</i>
  </separator>
  <separator name="model GW" >
   <i type="int" name="MODEL_GW">     0</i>
   <i name="MODEL_EPS0">      8.44895106</i>
   <i name="MODEL_ALPHA">      1.00000000</i>
  </separator>
  <separator name="linear response parameters" >
   <i type="logical" name="LEPSILON"> F  </i>
   <i type="logical" name="LRPA"> F  </i>
   <i type="logical" name="LNABLA"> F  </i>
   <i type="logical" name="LVEL"> F  </i>
   <i type="int" name="KINTER">     0</i>
   <i name="CSHIFT">      0.10000000</i>
   <i name="OMEGAMAX">     -1.00000000</i>
   <i name="DEG_THRESHOLD">      0.00200000</i>
   <i name="RTIME">     -0.10000000</i>
   <i name="WPLASMAI">      0.00000000</i>
   <v name="DFIELD">      0.00000000      0.00000000      0.00000000</v>
   <v name="WPLASMA">      0.00000000      0.00000000      0.00000000      0.00000000      0.00000000      0.00000000      0.00000000      0.00000000      0.00000000</v>
  </separator>
  <separator name="orbital magnetization" >
   <i type="logical" name="NUCIND"> F  </i>
   <v name="MAGPOS">      0.00000000      0.00000000      0.00000000</v>
   <i type="logical" name="LNICSALL"> T  </i>
   <i type="logical" name="ORBITALMAG"> F  </i>
   <i type="logical" name="LMAGBLOCH"> F  </i>
   <i type="logical" name="LCHIMAG"> F  </i>
   <i type="logical" name="LGAUGE"> T  </i>
   <i type="int" name="MAGATOM">     0</i>
   <v name="MAGDIPOL">      0.00000000      0.00000000      0.00000000</v>
   <v name="AVECCONST">      0.00000000      0.00000000      0.00000000</v>
  </separator>
  <separator name="response functions" >
   <i type="logical" name="LFINITE_TEMPERATURE"> F  </i>
   <i type="logical" name="LADDER"> F  </i>
   <i type="logical" name="LRPAFORCE"> F  </i>
   <i type="logical" name="LFXC"> F  </i>
   <i type="logical" name="LHARTREE"> T  </i>
   <i type="int" name="IBSE">     0</i>
   <v type="int" name="KPOINT">    -1     0     0     0</v>
   <i type="logical" name="LTCTC"> F  </i>
   <i type="logical" name="LTCTE"> F  </i>
   <i type="logical" name="LTETE"> F  </i>
   <i type="logical" name="LTRIPLET"> F  </i>
   <i type="logical" name="LFXCEPS"> F  </i>
   <i type="logical" name="LFXHEG"> F  </i>
   <i type="int" name="NATURALO">     2</i>
   <i type="logical" name="LHOLEGF"> F  </i>
   <i type="logical" name="L2ORDER"> F  </i>
   <i type="logical" name="LDMP1"> F  </i>
   <i type="logical" name="LMP2LT"> F  </i>
   <i type="logical" name="LSMP2LT"> F  </i>
   <i type="logical" name="LGWLF"> F  </i>
   <i name="ENCUTGW">     -2.00000000</i>
   <i name="ENCUTGWSOFT">     -2.00000000</i>
   <i name="ENCUTLF">     -1.00000000</i>
   <i type="logical" name="LESF_SPLINES"> F  </i>
   <i type="int" name="LMAXMP2">    -1</i>
   <i name="SCISSOR">      0.00000000</i>
   <i type="int" name="NOMEGA">     0</i>
   <i type="int" name="NOMEGAR">     0</i>
   <i type="int" name="NBANDSGW">    -1</i>
   <i type="int" name="NBANDSO">    -1</i>
   <i type="int" name="NBANDSV">    -1</i>
   <i type="int" name="NELM">    90</i>
   <i type="int" name="NELMHF">     1</i>
   <i type="int" name="DIM">     3</i>
   <i type="int" name="IESPILON">     4</i>
   <i type="int" name="ANTIRES">     0</i>
   <i name="OMEGAMAX">    -30.00000000</i>
   <i name="OMEGAMIN">    -30.00000000</i>
   <i name="OMEGATL">   -200.00000000</i>
   <i type="int" name="OMEGAGRID">     0</i>
   <i name="CSHIFT">     -0.10000000</i>
   <i type="logical" name="LSELFENERGY"> F  </i>
   <i type="logical" name="LSPECTRAL"> F  </i>
   <i type="logical" name="LSPECTRALGW"> F  </i>
   <i type="logical" name="LSINGLES"> F  </i>
   <i type="logical" name="LFERMIGW"> F  </i>
   <i type="logical" name="ODDONLYGW"> F  </i>
   <i type="logical" name="EVENONLYGW"> F  </i>
   <i type="int" name="NKREDLFX">     1</i>
   <i type="int" name="NKREDLFY">     1</i>
   <i type="int" name="NKREDLFZ">     1</i>
   <i type="int" name="MAXMEM">  2800</i>
   <i type="int" name="TELESCOPE">     0</i>
   <i type="int" name="NTAUPAR">    -1</i>
   <i type="int" name="NOMEGAPAR">    -1</i>
   <i name="DAMP_NEWTON">      0.80000001</i>
   <i name="LAMBDA">      1.00000000</i>
  </separator>
  <separator name="External order field" >
   <i name="OFIELD_KAPPA">      0.00000000</i>
   <v name="OFIELD_K">      0.00000000      0.00000000      0.00000000</v>
   <i name="OFIELD_Q6_NEAR">      0.00000000</i>
   <i name="OFIELD_Q6_FAR">      0.00000000</i>
   <i name="OFIELD_A">      0.00000000</i>
  </separator>
 </parameters>
 <atominfo>
  <atoms>       1 </atoms>
  <types>       1 </types>
  <array name="atoms" >
   <dimension dim="1">ion</dimension>
   <field type="string">element</field>
   <field type="int">atomtype</field>
   <set>
    <rc><c>Si</c><c>   1</c></rc>
   </set>
  </array>
  <array name="atomtypes" >
   <dimension dim="1">type</dimension>
   <field type="int">atomspertype</field>
   <field type="string">element</field>
   <field>mass</field>
   <field>valence</field>
   <field type="string">pseudopotential</field>
   <set>
    <rc><c>   1</c><c>Si</c><c>     28.08500000</c><c>      4.00000000</c><c>  PAW_PBE Si 05Jan2001                  </c></rc>
   </set>
  </array>
 </atominfo>
 <structure name="initialpos" >
  <crystal>
   <varray name="basis" >
    <v>       2.34739500       0.00000000       1.35526800 </v>
    <v>       0.78246500       2.21314500       1.35526800 </v>
    <v>       0.00000000       0.00000000       2.71053800 </v>
   </varray>
   <i name="volume">     14.08158510 </i>
   <varray name="rec_basis" >
    <v>       0.42600415      -0.15061523       0.00000000 </v>
    <v>       0.00000000       0.45184568       0.00000000 </v>
    <v>      -0.21300192      -0.15061511       0.36893045 </v>
   </varray>
  </crystal>
  <varray name="positions" >
   <v>       0.00000000       0.00000000       0.00000000 </v>
  </varray>
 </structure>
 <calculation>
  <scstep>
   <time name="dav">    1.47    1.47</time>
   <time name="total">    1.72    1.73</time>
   <energy>
    <i name="alphaZ">      2.39057823 </i>
    <i name="ewald">   -137.78496289 </i>
    <i name="hartreedc">     -0.54229904 </i>
    <i name="XCdc">     -8.73348015 </i>
    <i name="pawpsdc">     88.12379961 </i>
    <i name="pawaedc">    -70.53051779 </i>
    <i name="eentropy">     -0.00039088 </i>
    <i name="bandstr">     20.51171699 </i>
    <i name="atom">    103.06562707 </i>
    <i name="e_fr_energy">     -3.49992884 </i>
    <i name="e_wo_entrp">     -3.49953796 </i>
    <i name="e_0_energy">     -3.49973340 </i>
   </energy>
  </scstep>
  <scstep>
   <time name="dav">    1.90    1.92</time>
   <time name="total">    1.90    1.92</time>
   <energy>
    <i name="e_fr_energy">     -4.90148505 </i>
    <i name="e_wo_entrp">     -4.90113612 </i>
    <i name="e_0_energy">     -4.90131059 </i>
   </energy>
  </scstep>
  <scstep>
   <time name="dav">    1.43    1.44</time>
   <time name="total">    1.43    1.45</time>
   <energy>
    <i name="e_fr_energy">     -4.90770332 </i>
    <i name="e_wo_entrp">     -4.90738268 </i>
    <i name="e_0_energy">     -4.90754300 </i>
   </energy>
  </scstep>
  <scstep>
   <time name="dav">    2.11    2.12</time>
   <time name="total">    2.12    2.13</time>
   <energy>
    <i name="e_fr_energy">     -4.90770839 </i>
    <i name="e_wo_entrp">     -4.90738778 </i>
    <i name="e_0_energy">     -4.90754809 </i>
   </energy>
  </scstep>
  <scstep>
   <time name="dav">    1.42    1.43</time>
   <time name="total">    1.50    1.51</time>
   <energy>
    <i name="e_fr_energy">     -4.90770840 </i>
    <i name="e_wo_entrp">     -4.90738778 </i>
    <i name="e_0_energy">     -4.90754809 </i>
   </energy>
  </scstep>
  <scstep>
   <time name="dav">    1.44    1.45</time>
   <time name="total">    1.71    1.72</time>
   <energy>
    <i name="e_fr_energy">     -4.89410741 </i>
    <i name="e_wo_entrp">     -4.89378100 </i>
    <i name="e_0_energy">     -4.89394421 </i>
   </energy>
  </scstep>
  <scstep>
   <time name="dav">    1.60    1.60</time>
   <time name="total">    1.87    1.88</time>
   <energy>
    <i name="e_fr_energy">     -4.88627534 </i>
    <i name="e_wo_entrp">     -4.88593298 </i>
    <i name="e_0_energy">     -4.88610416 </i>
   </energy>
  </scstep>
  <scstep>
   <time name="dav">    1.89    1.89</time>
   <time name="total">    2.15    2.17</time>
   <energy>
    <i name="e_fr_energy">     -4.88623654 </i>
    <i name="e_wo_entrp">     -4.88589377 </i>
    <i name="e_0_energy">     -4.88606516 </i>
   </energy>
  </scstep>
  <scstep>
   <time name="dav">    1.60    1.60</time>
   <time name="total">    1.78    1.80</time>
   <energy>
    <i name="alphaZ">      2.39057823 </i>
    <i name="ewald">   -137.78496289 </i>
    <i name="hartreedc">     -0.40722453 </i>
    <i name="XCdc">     -8.67117685 </i>
    <i name="pawpsdc">    317.16250587 </i>
    <i name="pawaedc">   -299.58128944 </i>
    <i name="eentropy">     -0.00034288 </i>
    <i name="bandstr">     18.94004855 </i>
    <i name="atom">    103.06562707 </i>
    <i name="e_fr_energy">     -4.88623687 </i>
    <i name="e_wo_entrp">     -4.88589399 </i>
    <i name="e_0_energy">     -4.88606543 </i>
   </energy>
  </scstep>
  <structure>
   <crystal>
    <varray name="basis" >
     <v>       2.34739500       0.00000000       1.35526800 </v>
     <v>       0.78246500       2.21314500       1.35526800 </v>
     <v>       0.00000000       0.00000000       2.71053800 </v>
    </varray>
    <i name="volume">     14.08158510 </i>
    <varray name="rec_basis" >
     <v>       0.42600415      -0.15061523       0.00000000 </v>
     <v>       0.00000000       0.45184568       0.00000000 </v>
     <v>      -0.21300192      -0.15061511       0.36893045 </v>
    </varray>
   </crystal>
   <varray name="positions" >
    <v>       0.00000000       0.00000000       0.00000000 </v>
   </varray>
  </structure>
  <varray name="forces" >
   <v>       0.00000000       0.00000000       0.00000000 </v>
  </varray>
  <varray name="stress" >
   <v>      21.21225531      -0.00000000      -0.00000904 </v>
   <v>      -0.00000000      21.21225089      -0.00000639 </v>
   <v>      -0.00000904      -0.00000639      21.21225108 </v>
  </varray>
  <energy>
   <i name="e_fr_energy">     -4.88623687 </i>
   <i name="e_wo_entrp">     -4.88589399 </i>
   <i name="e_0_energy">     -4.88606543 </i>
  </energy>
  <time name="totalsc">   17.58   17.94</time>
 </calculation>
 <calculation>
  <scstep>
   <time name="dav">    1.37    1.37</time>
   <time name="total">    1.63    1.64</time>
   <energy>
    <i name="alphaZ">      2.32721789 </i>
    <i name="ewald">   -136.55675431 </i>
    <i name="hartreedc">     -0.40354018 </i>
    <i name="XCdc">     -8.74122957 </i>
    <i name="pawpsdc">    317.19379992 </i>
    <i name="pawaedc">   -299.61230593 </i>
    <i name="eentropy">     -0.00043382 </i>
    <i name="bandstr">     17.83791253 </i>
    <i name="atom">    103.06562707 </i>
    <i name="e_fr_energy">     -4.88970640 </i>
    <i name="e_wo_entrp">     -4.88927258 </i>
    <i name="e_0_energy">     -4.88948949 </i>
   </energy>
  </scstep>
  <scstep>
   <time name="dav">    1.80    1.80</time>
   <time name="total">    2.06    2.08</time>
   <energy>
    <i name="e_fr_energy">     -4.88886608 </i>
    <i name="e_wo_entrp">     -4.88843508 </i>
    <i name="e_0_energy">     -4.88865058 </i>
   </energy>
  </scstep>
  <scstep>
   <time name="dav">    1.40    1.40</time>
   <time name="total">    1.66    1.68</time>
   <energy>
    <i name="e_fr_energy">     -4.88837348 </i>
    <i name="e_wo_entrp">     -4.88794660 </i>
    <i name="e_0_energy">     -4.88816004 </i>
   </energy>
  </scstep>
  <scstep>
   <time name="dav">    1.88    1.88</time>
   <time name="total">    2.14    2.16</time>
   <energy>
    <i name="e_fr_energy">     -4.88837274 </i>
    <i name="e_wo_entrp">     -4.88794584 </i>
    <i name="e_0_energy">     -4.88815929 </i>
   </energy>
  </scstep>
  <scstep>
   <time name="dav">    1.12    1.12</time>
   <time name="total">    1.39    1.40</time>
   <energy>
    <i name="e_fr_energy">     -4.88836959 </i>
    <i name="e_wo_entrp">     -4.88794268 </i>
    <i name="e_0_energy">     -4.88815614 </i>
   </energy>
  </scstep>
  <scstep>
   <time name="dav">    0.87    0.87</time>
   <time name="total">    1.05    1.07</time>
   <energy>
    <i name="alphaZ">      2.32721789 </i>
    <i name="ewald">   -136.55675431 </i>
    <i name="hartreedc">     -0.44525867 </i>
    <i name="XCdc">     -8.75062539 </i>
    <i name="pawpsdc">    299.22477362 </i>
    <i name="pawaedc">   -281.63847045 </i>
    <i name="eentropy">     -0.00042690 </i>
    <i name="bandstr">     17.88554733 </i>
    <i name="atom">    103.06562707 </i>
    <i name="e_fr_energy">     -4.88836980 </i>
    <i name="e_wo_entrp">     -4.88794290 </i>
    <i name="e_0_energy">     -4.88815635 </i>
   </energy>
  </scstep>
  <structure>
   <crystal>
    <varray name="basis" >
     <v>       2.36850776      -0.00000000       1.36745744 </v>
     <v>       0.78950258       2.23305030       1.36745744 </v>
     <v>      -0.00000001      -0.00000001       2.73491692 </v>
    </varray>
    <i name="volume">     14.46496734 </i>
    <varray name="rec_basis" >
     <v>       0.42220676      -0.14927265       0.00000000 </v>
     <v>       0.00000000       0.44781795       0.00000000 </v>
     <v>      -0.21110322      -0.14927254       0.36564182 </v>
    </varray>
   </crystal>
   <varray name="positions" >
    <v>       0.00000000       0.00000000      -0.00000000 </v>
   </varray>
  </structure>
  <varray name="forces" >
   <v>      -0.00000000       0.00000000       0.00000000 </v>
  </varray>
  <varray name="stress" >
   <v>      -2.76842922      -0.00000000       0.00000120 </v>
   <v>      -0.00000000      -2.76842863       0.00000085 </v>
   <v>       0.00000120       0.00000085      -2.76842865 </v>
  </varray>
  <energy>
   <i name="e_fr_energy">     -4.88836980 </i>
   <i name="e_wo_entrp">     -4.88794290 </i>
   <i name="e_0_energy">     -4.88815635 </i>
  </energy>
  <time name="totalsc">   11.33   11.64</time>
 </calculation>
 <calculation>
  <scstep>
   <time name="dav">    1.38    1.38</time>
   <time name="total">    1.65    1.65</time>
   <energy>
    <i name="alphaZ">      2.33491104 </i>
    <i name="ewald">   -136.70706194 </i>
    <i name="hartreedc">     -0.44574559 </i>
    <i name="XCdc">     -8.74211924 </i>
    <i name="pawpsdc">    299.12504648 </i>
    <i name="pawaedc">   -281.53874893 </i>
    <i name="eentropy">     -0.00041836 </i>
    <i name="bandstr">     18.02007836 </i>
    <i name="atom">    103.06562707 </i>
    <i name="e_fr_energy">     -4.88843111 </i>
    <i name="e_wo_entrp">     -4.88801275 </i>
    <i name="e_0_energy">     -4.88822193 </i>
   </energy>
  </scstep>
  <scstep>
   <time name="dav">    1.75    1.75</time>
   <time name="total">    2.01    2.02</time>
   <energy>
    <i name="e_fr_energy">     -4.88841826 </i>
    <i name="e_wo_entrp">     -4.88799952 </i>
    <i name="e_0_energy">     -4.88820889 </i>
   </energy>
  </scstep>
  <scstep>
   <time name="dav">    1.40    1.40</time>
   <time name="total">    1.66    1.68</time>
   <energy>
    <i name="e_fr_energy">     -4.88841111 </i>
    <i name="e_wo_entrp">     -4.88799181 </i>
    <i name="e_0_energy">     -4.88820146 </i>
   </energy>
  </scstep>
  <scstep>
   <time name="dav">    0.83    0.83</time>
   <time name="total">    1.09    1.10</time>
   <energy>
    <i name="e_fr_energy">     -4.88841114 </i>
    <i name="e_wo_entrp">     -4.88799185 </i>
    <i name="e_0_energy">     -4.88820150 </i>
   </energy>
  </scstep>
  <scstep>
   <time name="dav">    0.81    0.81</time>
   <time name="total">    1.07    1.09</time>
   <energy>
    <i name="e_fr_energy">     -4.88841137 </i>
    <i name="e_wo_entrp">     -4.88799207 </i>
    <i name="e_0_energy">     -4.88820172 </i>
   </energy>
  </scstep>
  <scstep>
   <time name="dav">    0.82    0.82</time>
   <time name="total">    1.00    1.02</time>
   <energy>
    <i name="alphaZ">      2.33491104 </i>
    <i name="ewald">   -136.70706194 </i>
    <i name="hartreedc">     -0.44031904 </i>
    <i name="XCdc">     -8.74095549 </i>
    <i name="pawpsdc">    301.17169037 </i>
    <i name="pawaedc">   -283.58596628 </i>
    <i name="eentropy">     -0.00041929 </i>
    <i name="bandstr">     18.01408222 </i>
    <i name="atom">    103.06562707 </i>
    <i name="e_fr_energy">     -4.88841134 </i>
    <i name="e_wo_entrp">     -4.88799205 </i>
    <i name="e_0_energy">     -4.88820169 </i>
   </energy>
  </scstep>
  <structure>
   <crystal>
    <varray name="basis" >
     <v>       2.36590362      -0.00000000       1.36595394 </v>
     <v>       0.78863454       2.23059509       1.36595394 </v>
     <v>      -0.00000001      -0.00000001       2.73190991 </v>
    </varray>
    <i name="volume">     14.41730765 </i>
    <varray name="rec_basis" >
     <v>       0.42267149      -0.14943695       0.00000000 </v>
     <v>       0.00000000       0.44831086       0.00000000 </v>
     <v>      -0.21133559      -0.14943684       0.36604428 </v>
    </varray>
   </crystal>
   <varray name="positions" >
    <v>       0.00000000      -0.00000000      -0.00000000 </v>
   </varray>
  </structure>
  <varray name="forces" >
   <v>       0.00000000      -0.00000000       0.00000000 </v>
  </varray>
  <varray name="stress" >
   <v>       0.03112214      -0.00000000      -0.00000001 </v>
   <v>      -0.00000000       0.03112214      -0.00000001 </v>
   <v>      -0.00000001      -0.00000001       0.03112214 </v>
  </varray>
  <energy>
   <i name="e_fr_energy">     -4.88841134 </i>
   <i name="e_wo_entrp">     -4.88799205 </i>
   <i name="e_0_energy">     -4.88820169 </i>
  </energy>
  <time name="totalsc">    9.73   10.05</time>
  <eigenvalues>
   <array>
    <dimension dim="1">band</dimension>
    <dimension dim="2">kpoint</dimension>
    <dimension dim="3">spin</dimension>
    <field>eigene</field>
    <field>occ</field>
    <set>
     <set comment="spin 1">
      <set comment="kpoint 1">
       <r>   -4.2324    1.0000 </r>
       <r>   20.4656    0.0000 </r>
       <r>   21.1184    0.0000 </r>
       <r>   21.1184    0.0000 </r>
       <r>   22.5233    0.0000 </r>
       <r>   22.5233    0.0000 </r>
       <r>   22.7952    0.0000 </r>
       <r>   27.8286    0.0000 </r>
      </set>
      <set comment="kpoint 2">
       <r>   -4.0338    1.0000 </r>
       <r>   18.5569    0.0000 </r>
       <r>   19.5432    0.0000 </r>
       <r>   21.2069    0.0000 </r>
       <r>   22.6717    0.0000 </r>
       <r>   23.4225    0.0000 </r>
       <r>   24.0454    0.0000 </r>
       <r>   27.6251    0.0000 </r>
      </set>
      <set comment="kpoint 3">
       <r>   -3.5383    1.0000 </r>
       <r>   15.5115    0.0000 </r>
       <r>   18.7809    0.0000 </r>
       <r>   20.4768    0.0000 </r>
       <r>   23.6885    0.0000 </r>
       <r>   23.7143    0.0000 </r>
       <r>   24.9550    0.0000 </r>
       <r>   26.4917    0.0000 </r>
      </set>
      <set comment="kpoint 4">
       <r>   -2.7480    1.0000 </r>
       <r>   12.5193    0.0000 </r>
       <r>   18.2538    0.0000 </r>
       <r>   19.8999    0.0000 </r>
       <r>   23.4617    0.0000 </r>
       <r>   23.6291    0.0000 </r>
       <r>   24.5076    0.0000 </r>
       <r>   27.0665    0.0000 </r>
      </set>
      <set comment="kpoint 5">
       <r>   -1.6670    1.0000 </r>
       <r>    9.6989    1.0000 </r>
       <r>   17.9686    0.0000 </r>
       <r>   19.4976    0.0000 </r>
       <r>   22.4384    0.0000 </r>
       <r>   23.3500    0.0000 </r>
       <r>   23.5817    0.0000 </r>
       <r>   28.4402    0.0000 </r>
      </set>
      <set comment="kpoint 6">
       <r>   -0.3014    1.0000 </r>
       <r>    7.0994    1.0000 </r>
       <r>   17.9186    0.0000 </r>
       <r>   19.1959    0.0000 </r>
       <r>   21.6143    0.0000 </r>
       <r>   22.2843    0.0000 </r>
       <r>   23.6254    0.0000 </r>
       <r>   27.3996    0.0000 </r>
      </set>
      <set comment="kpoint 7">
       <r>    1.3340    1.0000 </r>
       <r>    4.7536    1.0000 </r>
       <r>   18.0792    0.0000 </r>
       <r>   18.8738    0.0000 </r>
       <r>   21.2688    0.0000 </r>
       <r>   21.4570    0.0000 </r>
       <r>   23.7518    0.0000 </r>
       <r>   26.6448    0.0000 </r>
      </set>
      <set comment="kpoint 8">
       <r>    2.4892    1.0000 </r>
       <r>    3.4205    1.0000 </r>
       <r>   18.3931    0.0000 </r>
       <r>   18.5189    0.0000 </r>
       <r>   20.9761    0.0000 </r>
       <r>   21.4516    0.0000 </r>
       <r>   23.8285    0.0000 </r>
       <r>   26.4135    0.0000 </r>
      </set>
      <set comment="kpoint 9">
       <r>    0.7611    1.0000 </r>
       <r>    5.5046    1.0000 </r>
       <r>   18.2495    0.0000 </r>
       <r>   18.7365    0.0000 </r>
       <r>   20.9662    0.0000 </r>
       <r>   22.0469    0.0000 </r>
       <r>   23.7642    0.0000 </r>
       <r>   26.8083    0.0000 </r>
      </set>
      <set comment="kpoint 10">
       <r>   -0.7877    1.0000 </r>
       <r>    7.9394    1.0000 </r>
       <r>   18.1588    0.0000 </r>
       <r>   19.0137    0.0000 </r>
       <r>   21.5130    0.0000 </r>
       <r>   22.9446    0.0000 </r>
       <r>   23.6809    0.0000 </r>
       <r>   27.6706    0.0000 </r>
      </set>
      <set comment="kpoint 11">
       <r>   -2.0593    1.0000 </r>
       <r>   10.6163    0.0000 </r>
       <r>   18.2888    0.0000 </r>
       <r>   19.3115    0.0000 </r>
       <r>   22.4576    0.0000 </r>
       <r>   23.7058    0.0000 </r>
       <r>   24.0389    0.0000 </r>
       <r>   27.9354    0.0000 </r>
      </set>
      <set comment="kpoint 12">
       <r>   -3.0440    1.0000 </r>
       <r>   13.5013    0.0000 </r>
       <r>   18.6569    0.0000 </r>
       <r>   19.7508    0.0000 </r>
       <r>   23.2884    0.0000 </r>
       <r>   23.9658    0.0000 </r>
       <r>   25.0314    0.0000 </r>
       <r>   26.4234    0.0000 </r>
      </set>
      <set comment="kpoint 13">
       <r>   -3.7363    1.0000 </r>
       <r>   16.5309    0.0000 </r>
       <r>   19.2685    0.0000 </r>
       <r>   20.3777    0.0000 </r>
       <r>   23.0293    0.0000 </r>
       <r>   24.0704    0.0000 </r>
       <r>   24.8303    0.0000 </r>
       <r>   26.4971    0.0000 </r>
      </set>
      <set comment="kpoint 14">
       <r>   -4.1331    1.0000 </r>
       <r>   19.5158    0.0000 </r>
       <r>   20.1125    0.0000 </r>
       <r>   21.1218    0.0000 </r>
       <r>   22.0051    0.0000 </r>
       <r>   23.5921    0.0000 </r>
       <r>   23.6447    0.0000 </r>
       <r>   27.8515    0.0000 </r>
      </set>
      <set comment="kpoint 15">
       <r>   -3.9346    1.0000 </r>
       <r>   18.5416    0.0000 </r>
       <r>   19.1183    0.0000 </r>
       <r>   20.6782    0.0000 </r>
       <r>   21.2534    0.0000 </r>
       <r>   24.7375    0.0000 </r>
       <r>   24.8748    0.0000 </r>
       <r>   26.2600    0.0000 </r>
      </set>
      <set comment="kpoint 16">
       <r>   -3.5382    1.0000 </r>
       <r>   16.6378    0.0000 </r>
       <r>   17.7273    0.0000 </r>
       <r>   20.4570    0.0000 </r>
       <r>   21.4077    0.0000 </r>
       <r>   24.6545    0.0000 </r>
       <r>   25.5481    0.0000 </r>
       <r>   25.9831    0.0000 </r>
      </set>
      <set comment="kpoint 17">
       <r>   -2.8465    1.0000 </r>
       <r>   13.6616    0.0000 </r>
       <r>   17.1159    0.0000 </r>
       <r>   19.7589    0.0000 </r>
       <r>   21.7892    0.0000 </r>
       <r>   24.2062    0.0000 </r>
       <r>   25.8191    0.0000 </r>
       <r>   26.0991    0.0000 </r>
      </set>
      <set comment="kpoint 18">
       <r>   -1.8627    1.0000 </r>
       <r>   10.7922    0.0000 </r>
       <r>   16.7571    0.0000 </r>
       <r>   19.0814    0.0000 </r>
       <r>   21.0301    0.0000 </r>
       <r>   24.6999    0.0000 </r>
       <r>   25.2512    0.0000 </r>
       <r>   26.6614    0.0000 </r>
      </set>
      <set comment="kpoint 19">
       <r>   -0.5922    1.0000 </r>
       <r>    8.1226    1.0000 </r>
       <r>   16.6463    0.0000 </r>
       <r>   18.3149    0.0000 </r>
       <r>   20.5125    0.0000 </r>
       <r>   23.8622    0.0000 </r>
       <r>   25.1830    0.0000 </r>
       <r>   28.3939    0.0000 </r>
      </set>
      <set comment="kpoint 20">
       <r>    0.9554    1.0000 </r>
       <r>    5.6918    1.0000 </r>
       <r>   16.7494    0.0000 </r>
       <r>   17.5547    0.0000 </r>
       <r>   20.4673    0.0000 </r>
       <r>   22.9425    0.0000 </r>
       <r>   25.2349    0.0000 </r>
       <r>   28.4498    0.0000 </r>
      </set>
      <set comment="kpoint 21">
       <r>    2.6839    1.0000 </r>
       <r>    3.6080    1.0000 </r>
       <r>   16.6709    0.0000 </r>
       <r>   17.3426    0.0000 </r>
       <r>   20.7730    0.0000 </r>
       <r>   22.2717    0.0000 </r>
       <r>   25.2118    0.0000 </r>
       <r>   28.1949    0.0000 </r>
      </set>
      <set comment="kpoint 22">
       <r>    1.5278    1.0000 </r>
       <r>    4.9417    1.0000 </r>
       <r>   16.2647    0.0000 </r>
       <r>   17.8860    0.0000 </r>
       <r>   21.2516    0.0000 </r>
       <r>   22.0117    0.0000 </r>
       <r>   25.0827    0.0000 </r>
       <r>   28.4502    0.0000 </r>
      </set>
      <set comment="kpoint 23">
       <r>   -0.1064    1.0000 </r>
       <r>    7.2837    1.0000 </r>
       <r>   16.0407    0.0000 </r>
       <r>   18.6594    0.0000 </r>
       <r>   21.4987    0.0000 </r>
       <r>   22.5668    0.0000 </r>
       <r>   24.9354    0.0000 </r>
       <r>   29.0088    0.0000 </r>
      </set>
      <set comment="kpoint 24">
       <r>   -1.4708    1.0000 </r>
       <r>    9.8766    1.0000 </r>
       <r>   16.0594    0.0000 </r>
       <r>   19.5170    0.0000 </r>
       <r>   21.8486    0.0000 </r>
       <r>   23.6082    0.0000 </r>
       <r>   24.8600    0.0000 </r>
       <r>   27.5309    0.0000 </r>
      </set>
      <set comment="kpoint 25">
       <r>   -2.5508    1.0000 </r>
       <r>   12.6828    0.0000 </r>
       <r>   16.3337    0.0000 </r>
       <r>   20.3271    0.0000 </r>
       <r>   22.4988    0.0000 </r>
       <r>   24.5051    0.0000 </r>
       <r>   25.0512    0.0000 </r>
       <r>   25.8150    0.0000 </r>
      </set>
      <set comment="kpoint 26">
       <r>   -3.3403    1.0000 </r>
       <r>   15.6290    0.0000 </r>
       <r>   16.8777    0.0000 </r>
       <r>   21.0501    0.0000 </r>
       <r>   22.4929    0.0000 </r>
       <r>   24.8129    0.0000 </r>
       <r>   25.0439    0.0000 </r>
       <r>   25.6751    0.0000 </r>
      </set>
      <set comment="kpoint 27">
       <r>   -3.8354    1.0000 </r>
       <r>   17.5746    0.0000 </r>
       <r>   18.6287    0.0000 </r>
       <r>   21.0219    0.0000 </r>
       <r>   22.1934    0.0000 </r>
       <r>   24.3031    0.0000 </r>
       <r>   24.9103    0.0000 </r>
       <r>   26.3435    0.0000 </r>
      </set>
      <set comment="kpoint 28">
       <r>   -3.2413    1.0000 </r>
       <r>   16.7568    0.0000 </r>
       <r>   17.3368    0.0000 </r>
       <r>   19.1458    0.0000 </r>
       <r>   19.6362    0.0000 </r>
       <r>   22.7457    0.0000 </r>
       <r>   27.3024    0.0000 </r>
       <r>   27.3994    0.0000 </r>
      </set>
      <set comment="kpoint 29">
       <r>   -2.6490    1.0000 </r>
       <r>   14.9705    0.0000 </r>
       <r>   16.1094    0.0000 </r>
       <r>   18.6531    0.0000 </r>
       <r>   19.5681    0.0000 </r>
       <r>   21.7344    0.0000 </r>
       <r>   27.9299    0.0000 </r>
       <r>   28.2680    0.0000 </r>
      </set>
      <set comment="kpoint 30">
       <r>   -1.7640    1.0000 </r>
       <r>   12.1259    0.0000 </r>
       <r>   15.6533    0.0000 </r>
       <r>   17.5138    0.0000 </r>
       <r>   19.4575    0.0000 </r>
       <r>   22.7439    0.0000 </r>
       <r>   27.2336    0.0000 </r>
       <r>   28.4745    0.0000 </r>
      </set>
      <set comment="kpoint 31">
       <r>   -0.5908    1.0000 </r>
       <r>    9.4087    1.0000 </r>
       <r>   15.4321    0.0000 </r>
       <r>   16.3534    0.0000 </r>
       <r>   19.2156    0.0000 </r>
       <r>   24.5710    0.0000 </r>
       <r>   26.2263    0.0000 </r>
       <r>   28.5675    0.0000 </r>
      </set>
      <set comment="kpoint 32">
       <r>    0.8631    1.0000 </r>
       <r>    6.9065    1.0000 </r>
       <r>   15.0755    0.0000 </r>
       <r>   15.7188    0.0000 </r>
       <r>   19.2614    0.0000 </r>
       <r>   25.0449    0.0000 </r>
       <r>   26.5043    0.0000 </r>
       <r>   28.9990    0.0000 </r>
      </set>
      <set comment="kpoint 33">
       <r>    2.5707    1.0000 </r>
       <r>    4.6700    1.0000 </r>
       <r>   14.3027    0.0000 </r>
       <r>   15.9701    0.0000 </r>
       <r>   19.5963    0.0000 </r>
       <r>   24.3104    0.0000 </r>
       <r>   27.0855    0.0000 </r>
       <r>   30.4417    0.0000 </r>
      </set>
      <set comment="kpoint 34">
       <r>    2.5709    1.0000 </r>
       <r>    4.6690    1.0000 </r>
       <r>   13.7086    0.0000 </r>
       <r>   16.5433    0.0000 </r>
       <r>   20.2058    0.0000 </r>
       <r>   23.7734    0.0000 </r>
       <r>   26.9734    0.0000 </r>
       <r>   31.2534    0.0000 </r>
      </set>
      <set comment="kpoint 35">
       <r>    0.8629    1.0000 </r>
       <r>    6.9027    1.0000 </r>
       <r>   13.3671    0.0000 </r>
       <r>   17.3645    0.0000 </r>
       <r>   21.0670    0.0000 </r>
       <r>   23.4963    0.0000 </r>
       <r>   26.6921    0.0000 </r>
       <r>   29.4881    0.0000 </r>
      </set>
      <set comment="kpoint 36">
       <r>   -0.5912    1.0000 </r>
       <r>    9.3958    1.0000 </r>
       <r>   13.2963    0.0000 </r>
       <r>   18.4010    0.0000 </r>
       <r>   22.1305    0.0000 </r>
       <r>   23.5097    0.0000 </r>
       <r>   26.2206    0.0000 </r>
       <r>   27.4027    0.0000 </r>
      </set>
      <set comment="kpoint 37">
       <r>   -1.7644    1.0000 </r>
       <r>   12.0591    0.0000 </r>
       <r>   13.5427    0.0000 </r>
       <r>   19.5813    0.0000 </r>
       <r>   23.2390    0.0000 </r>
       <r>   23.7528    0.0000 </r>
       <r>   24.9778    0.0000 </r>
       <r>   26.4049    0.0000 </r>
      </set>
      <set comment="kpoint 38">
       <r>   -2.6493    1.0000 </r>
       <r>   13.7757    0.0000 </r>
       <r>   15.1617    0.0000 </r>
       <r>   20.6198    0.0000 </r>
       <r>   22.9072    0.0000 </r>
       <r>   24.2181    0.0000 </r>
       <r>   25.1897    0.0000 </r>
       <r>   25.6053    0.0000 </r>
      </set>
      <set comment="kpoint 39">
       <r>   -3.2415    1.0000 </r>
       <r>   14.5505    0.0000 </r>
       <r>   17.9417    0.0000 </r>
       <r>   20.3406    0.0000 </r>
       <r>   22.9461    0.0000 </r>
       <r>   24.4035    0.0000 </r>
       <r>   25.3960    0.0000 </r>
       <r>   25.6782    0.0000 </r>
      </set>
      <set comment="kpoint 40">
       <r>   -2.1565    1.0000 </r>
       <r>   15.2666    0.0000 </r>
       <r>   15.8771    0.0000 </r>
       <r>   17.0135    0.0000 </r>
       <r>   17.7824    0.0000 </r>
       <r>   20.1388    0.0000 </r>
       <r>   29.7140    0.0000 </r>
       <r>   29.8881    0.0000 </r>
      </set>
      <set comment="kpoint 41">
       <r>   -1.3713    1.0000 </r>
       <r>   13.6196    0.0000 </r>
       <r>   14.7574    0.0000 </r>
       <r>   15.6859    0.0000 </r>
       <r>   18.0544    0.0000 </r>
       <r>   20.0578    0.0000 </r>
       <r>   29.5475    0.0000 </r>
       <r>   30.8734    0.0000 </r>
      </set>
      <set comment="kpoint 42">
       <r>   -0.2973    1.0000 </r>
       <r>   10.9311    0.0000 </r>
       <r>   14.0590    0.0000 </r>
       <r>   14.6876    0.0000 </r>
       <r>   18.1128    0.0000 </r>
       <r>   21.6688    0.0000 </r>
       <r>   28.6129    0.0000 </r>
       <r>   31.0108    0.0000 </r>
      </set>
      <set comment="kpoint 43">
       <r>    1.0594    1.0000 </r>
       <r>    8.3827    1.0000 </r>
       <r>   12.9165    0.0000 </r>
       <r>   14.5953    0.0000 </r>
       <r>   18.1654    0.0000 </r>
       <r>   23.8703    0.0000 </r>
       <r>   27.6437    0.0000 </r>
       <r>   30.7780    0.0000 </r>
      </set>
      <set comment="kpoint 44">
       <r>    2.6845    1.0000 </r>
       <r>    6.0633    1.0000 </r>
       <r>   11.9466    0.0000 </r>
       <r>   14.8382    0.0000 </r>
       <r>   18.4543    0.0000 </r>
       <r>   26.0539    0.0000 </r>
       <r>   26.9806    0.0000 </r>
       <r>   30.3804    0.0000 </r>
      </set>
      <set comment="kpoint 45">
       <r>    3.8460    1.0000 </r>
       <r>    4.7236    1.0000 </r>
       <r>   11.2325    0.0000 </r>
       <r>   15.3501    0.0000 </r>
       <r>   19.0090    0.0000 </r>
       <r>   26.0585    0.0000 </r>
       <r>   28.2965    0.0000 </r>
       <r>   30.1396    0.0000 </r>
      </set>
      <set comment="kpoint 46">
       <r>    2.1147    1.0000 </r>
       <r>    6.7903    1.0000 </r>
       <r>   10.7971    0.0000 </r>
       <r>   16.1178    0.0000 </r>
       <r>   19.8222    0.0000 </r>
       <r>   25.6919    0.0000 </r>
       <r>   28.3722    0.0000 </r>
       <r>   29.5533    0.0000 </r>
      </set>
      <set comment="kpoint 47">
       <r>    0.5751    1.0000 </r>
       <r>    9.1149    1.0000 </r>
       <r>   10.7048    0.0000 </r>
       <r>   17.1258    0.0000 </r>
       <r>   20.8791    0.0000 </r>
       <r>   25.5403    0.0000 </r>
       <r>   26.6272    0.0000 </r>
       <r>   28.4436    0.0000 </r>
      </set>
      <set comment="kpoint 48">
       <r>   -0.6883    1.0000 </r>
       <r>   10.5015    0.0000 </r>
       <r>   12.0507    0.0000 </r>
       <r>   18.3363    0.0000 </r>
       <r>   22.1192    0.0000 </r>
       <r>   24.4901    0.0000 </r>
       <r>   25.6344    0.0000 </r>
       <r>   27.3520    0.0000 </r>
      </set>
      <set comment="kpoint 49">
       <r>   -1.6665    1.0000 </r>
       <r>   10.9592    0.0000 </r>
       <r>   14.7619    0.0000 </r>
       <r>   19.5803    0.0000 </r>
       <r>   22.5438    0.0000 </r>
       <r>   23.6429    0.0000 </r>
       <r>   25.4133    0.0000 </r>
       <r>   26.4858    0.0000 </r>
      </set>
      <set comment="kpoint 50">
       <r>   -2.3541    1.0000 </r>
       <r>   11.6143    0.0000 </r>
       <r>   17.4990    0.0000 </r>
       <r>   19.7756    0.0000 </r>
       <r>   22.3591    0.0000 </r>
       <r>   24.1764    0.0000 </r>
       <r>   24.6410    0.0000 </r>
       <r>   26.8198    0.0000 </r>
      </set>
      <set comment="kpoint 51">
       <r>   -0.6865    1.0000 </r>
       <r>   13.6921    0.0000 </r>
       <r>   14.1990    0.0000 </r>
       <r>   14.7536    0.0000 </r>
       <r>   16.5173    0.0000 </r>
       <r>   18.7197    0.0000 </r>
       <r>   31.4704    0.0000 </r>
       <r>   32.2753    0.0000 </r>
      </set>
      <set comment="kpoint 52">
       <r>    0.2869    1.0000 </r>
       <r>   12.0963    0.0000 </r>
       <r>   12.7217    0.0000 </r>
       <r>   13.9175    0.0000 </r>
       <r>   17.0162    0.0000 </r>
       <r>   19.0363    0.0000 </r>
       <r>   31.1183    0.0000 </r>
       <r>   33.1927    0.0000 </r>
      </set>
      <set comment="kpoint 53">
       <r>    1.5432    1.0000 </r>
       <r>   10.0394    1.0000 </r>
       <r>   10.9280    0.0000 </r>
       <r>   13.7936    0.0000 </r>
       <r>   17.2571    0.0000 </r>
       <r>   20.9202    0.0000 </r>
       <r>   30.2330    0.0000 </r>
       <r>   33.0654    0.0000 </r>
      </set>
      <set comment="kpoint 54">
       <r>    3.0717    1.0000 </r>
       <r>    7.7100    1.0000 </r>
       <r>    9.7944    1.0000 </r>
       <r>   13.9602    0.0000 </r>
       <r>   17.5150    0.0000 </r>
       <r>   23.3552    0.0000 </r>
       <r>   29.3866    0.0000 </r>
       <r>   32.4068    0.0000 </r>
      </set>
      <set comment="kpoint 55">
       <r>    4.7959    1.0000 </r>
       <r>    5.6389    1.0000 </r>
       <r>    8.9724    1.0000 </r>
       <r>   14.3937    0.0000 </r>
       <r>   18.0027    0.0000 </r>
       <r>   25.9598    0.0000 </r>
       <r>   28.7210    0.0000 </r>
       <r>   31.2486    0.0000 </r>
      </set>
      <set comment="kpoint 56">
       <r>    3.6392    1.0000 </r>
       <r>    6.8828    1.0000 </r>
       <r>    8.5078    1.0000 </r>
       <r>   15.0875    0.0000 </r>
       <r>   18.7477    0.0000 </r>
       <r>   27.9527    0.0000 </r>
       <r>   28.7646    0.0000 </r>
       <r>   29.2514    0.0000 </r>
      </set>
      <set comment="kpoint 57">
       <r>    2.0210    1.0000 </r>
       <r>    7.9067    1.0000 </r>
       <r>    9.5197    1.0000 </r>
       <r>   16.0325    0.0000 </r>
       <r>   19.7424    0.0000 </r>
       <r>   26.7564    0.0000 </r>
       <r>   27.8348    0.0000 </r>
       <r>   29.6234    0.0000 </r>
      </set>
      <set comment="kpoint 58">
       <r>    0.6712    1.0000 </r>
       <r>    8.0035    1.0000 </r>
       <r>   11.9687    0.0000 </r>
       <r>   17.2061    0.0000 </r>
       <r>   20.9462    0.0000 </r>
       <r>   24.4781    0.0000 </r>
       <r>   27.2266    0.0000 </r>
       <r>   28.4752    0.0000 </r>
      </set>
      <set comment="kpoint 59">
       <r>   -0.3971    1.0000 </r>
       <r>    8.3027    1.0000 </r>
       <r>   14.6574    0.0000 </r>
       <r>   18.5190    0.0000 </r>
       <r>   22.0114    0.0000 </r>
       <r>   22.7701    0.0000 </r>
       <r>   25.6902    0.0000 </r>
       <r>   28.4362    0.0000 </r>
      </set>
      <set comment="kpoint 60">
       <r>   -1.1777    1.0000 </r>
       <r>    8.8666    1.0000 </r>
       <r>   17.3032    0.0000 </r>
       <r>   19.2811    0.0000 </r>
       <r>   21.4828    0.0000 </r>
       <r>   23.4539    0.0000 </r>
       <r>   24.1733    0.0000 </r>
       <r>   28.3790    0.0000 </r>
      </set>
      <set comment="kpoint 61">
       <r>    1.1584    1.0000 </r>
       <r>   10.4580    0.0000 </r>
       <r>   13.3441    0.0000 </r>
       <r>   13.9737    0.0000 </r>
       <r>   15.6544    0.0000 </r>
       <r>   17.8638    0.0000 </r>
       <r>   33.0187    0.0000 </r>
       <r>   34.3527    0.0000 </r>
      </set>
      <set comment="kpoint 62">
       <r>    2.3111    1.0000 </r>
       <r>    8.9902    1.0000 </r>
       <r>   12.0280    0.0000 </r>
       <r>   13.2786    0.0000 </r>
       <r>   16.3572    0.0000 </r>
       <r>   18.4075    0.0000 </r>
       <r>   32.7667    0.0000 </r>
       <r>   35.0292    0.0000 </r>
      </set>
      <set comment="kpoint 63">
       <r>    3.7313    1.0000 </r>
       <r>    7.7789    1.0000 </r>
       <r>    9.7062    1.0000 </r>
       <r>   13.3444    0.0000 </r>
       <r>   16.7872    0.0000 </r>
       <r>   20.4980    0.0000 </r>
       <r>   32.0129    0.0000 </r>
       <r>   34.2441    0.0000 </r>
      </set>
      <set comment="kpoint 64">
       <r>    5.3519    1.0000 </r>
       <r>    6.8011    1.0000 </r>
       <r>    7.6413    1.0000 </r>
       <r>   13.6927    0.0000 </r>
       <r>   17.2372    0.0000 </r>
       <r>   23.1256    0.0000 </r>
       <r>   31.2542    0.0000 </r>
       <r>   32.3567    0.0000 </r>
      </set>
      <set comment="kpoint 65">
       <r>    5.3736    1.0000 </r>
       <r>    6.0799    1.0000 </r>
       <r>    7.6929    1.0000 </r>
       <r>   14.3051    0.0000 </r>
       <r>   17.9122    0.0000 </r>
       <r>   25.9123    0.0000 </r>
       <r>   29.6937    0.0000 </r>
       <r>   30.7439    0.0000 </r>
      </set>
      <set comment="kpoint 66">
       <r>    3.7222    1.0000 </r>
       <r>    5.7722    1.0000 </r>
       <r>    9.7942    1.0000 </r>
       <r>   15.1751    0.0000 </r>
       <r>   18.8346    0.0000 </r>
       <r>   27.0252    0.0000 </r>
       <r>   28.6103    0.0000 </r>
       <r>   29.8939    0.0000 </r>
      </set>
      <set comment="kpoint 67">
       <r>    2.3003    1.0000 </r>
       <r>    5.6867    1.0000 </r>
       <r>   12.2196    0.0000 </r>
       <r>   16.2881    0.0000 </r>
       <r>   19.9805    0.0000 </r>
       <r>   24.6902    0.0000 </r>
       <r>   27.7802    0.0000 </r>
       <r>   30.5134    0.0000 </r>
      </set>
      <set comment="kpoint 68">
       <r>    1.1492    1.0000 </r>
       <r>    5.8779    1.0000 </r>
       <r>   14.8175    0.0000 </r>
       <r>   17.5955    0.0000 </r>
       <r>   21.2085    0.0000 </r>
       <r>   22.6384    0.0000 </r>
       <r>   25.8995    0.0000 </r>
       <r>   30.0118    0.0000 </r>
      </set>
      <set comment="kpoint 69">
       <r>    0.2801    1.0000 </r>
       <r>    6.3494    1.0000 </r>
       <r>   17.3464    0.0000 </r>
       <r>   18.7413    0.0000 </r>
       <r>   21.0260    0.0000 </r>
       <r>   22.4602    0.0000 </r>
       <r>   24.2295    0.0000 </r>
       <r>   27.6948    0.0000 </r>
      </set>
      <set comment="kpoint 70">
       <r>    3.3527    1.0000 </r>
       <r>    7.4305    1.0000 </r>
       <r>   12.8932    0.0000 </r>
       <r>   13.5395    0.0000 </r>
       <r>   15.1729    0.0000 </r>
       <r>   17.3986    0.0000 </r>
       <r>   34.3470    0.0000 </r>
       <r>   35.9206    0.0000 </r>
      </set>
      <set comment="kpoint 71">
       <r>    4.6095    1.0000 </r>
       <r>    6.1910    1.0000 </r>
       <r>   11.7501    0.0000 </r>
       <r>   13.0098    0.0000 </r>
       <r>   16.0747    0.0000 </r>
       <r>   18.1379    0.0000 </r>
       <r>   34.1403    0.0000 </r>
       <r>   35.4015    0.0000 </r>
      </set>
      <set comment="kpoint 72">
       <r>    4.8902    1.0000 </r>
       <r>    6.4625    1.0000 </r>
       <r>    9.6021    1.0000 </r>
       <r>   13.2550    0.0000 </r>
       <r>   16.6932    0.0000 </r>
       <r>   20.4127    0.0000 </r>
       <r>   32.8171    0.0000 </r>
       <r>   33.9692    0.0000 </r>
      </set>
      <set comment="kpoint 73">
       <r>    4.1994    1.0000 </r>
       <r>    7.4596    1.0000 </r>
       <r>    8.3967    1.0000 </r>
       <r>   13.7818    0.0000 </r>
       <r>   17.3297    0.0000 </r>
       <r>   23.2027    0.0000 </r>
       <r>   30.3357    0.0000 </r>
       <r>   32.7596    0.0000 </r>
      </set>
      <set comment="kpoint 74">
       <r>    3.7197    1.0000 </r>
       <r>    5.7880    1.0000 </r>
       <r>   10.4181    0.0000 </r>
       <r>   14.5709    0.0000 </r>
       <r>   18.1833    0.0000 </r>
       <r>   26.0358    0.0000 </r>
       <r>   27.7771    0.0000 </r>
       <r>   30.9859    0.0000 </r>
      </set>
      <set comment="kpoint 75">
       <r>    3.4592    1.0000 </r>
       <r>    4.3555    1.0000 </r>
       <r>   12.7461    0.0000 </r>
       <r>   15.6134    0.0000 </r>
       <r>   19.2634    0.0000 </r>
       <r>   25.1449    0.0000 </r>
[...]
      <set comment="kpoint 269">
       <r>    4.1321    1.0000 </r>
       <r>    5.0037    1.0000 </r>
       <r>   10.8623    0.0000 </r>
       <r>   13.9811    0.0000 </r>
       <r>   19.6391    0.0000 </r>
       <r>   25.8837    0.0000 </r>
       <r>   27.7870    0.0000 </r>
       <r>   30.4686    0.0000 </r>
      </set>
      <set comment="kpoint 270">
       <r>    4.5181    1.0000 </r>
       <r>    5.3567    1.0000 </r>
       <r>    9.3379    1.0000 </r>
       <r>   15.2543    0.0000 </r>
       <r>   17.8734    0.0000 </r>
       <r>   27.2739    0.0000 </r>
       <r>   28.2370    0.0000 </r>
       <r>   30.6972    0.0000 </r>
      </set>
      <set comment="kpoint 271">
       <r>    0.1828    1.0000 </r>
       <r>    6.2563    1.0000 </r>
       <r>   18.7710    0.0000 </r>
       <r>   18.7710    0.0000 </r>
       <r>   21.6943    0.0000 </r>
       <r>   21.6943    0.0000 </r>
       <r>   23.4184    0.0000 </r>
       <r>   26.7377    0.0000 </r>
      </set>
      <set comment="kpoint 272">
       <r>    0.8582    1.0000 </r>
       <r>    5.5979    1.0000 </r>
       <r>   16.8203    0.0000 </r>
       <r>   18.7424    0.0000 </r>
       <r>   21.5146    0.0000 </r>
       <r>   21.7463    0.0000 </r>
       <r>   24.3202    0.0000 </r>
       <r>   27.8555    0.0000 </r>
      </set>
      <set comment="kpoint 273">
       <r>    1.8180    1.0000 </r>
       <r>    5.2224    1.0000 </r>
       <r>   14.2321    0.0000 </r>
       <r>   17.4916    0.0000 </r>
       <r>   20.2718    0.0000 </r>
       <r>   23.5282    0.0000 </r>
       <r>   26.0864    0.0000 </r>
       <r>   30.5837    0.0000 </r>
      </set>
      <set comment="kpoint 274">
       <r>    3.0521    1.0000 </r>
       <r>    5.1339    1.0000 </r>
       <r>   11.6855    0.0000 </r>
       <r>   16.2678    0.0000 </r>
       <r>   18.9799    0.0000 </r>
       <r>   25.7701    0.0000 </r>
       <r>   27.9098    0.0000 </r>
       <r>   30.7924    0.0000 </r>
      </set>
      <set comment="kpoint 275">
       <r>    1.4309    1.0000 </r>
       <r>    4.8478    1.0000 </r>
       <r>   17.7290    0.0000 </r>
       <r>   17.7302    0.0000 </r>
       <r>   20.4127    0.0000 </r>
       <r>   22.5687    0.0000 </r>
       <r>   24.5702    0.0000 </r>
       <r>   27.4978    0.0000 </r>
      </set>
      <set comment="kpoint 276">
       <r>    2.2812    1.0000 </r>
       <r>    4.3879    1.0000 </r>
       <r>   15.6941    0.0000 </r>
       <r>   16.5613    0.0000 </r>
       <r>   21.1780    0.0000 </r>
       <r>   22.2886    0.0000 </r>
       <r>   26.1729    0.0000 </r>
       <r>   29.4341    0.0000 </r>
      </set>
      <set comment="kpoint 277">
       <r>    3.3631    1.0000 </r>
       <r>    4.2615    1.0000 </r>
       <r>   13.2492    0.0000 </r>
       <r>   15.1424    0.0000 </r>
       <r>   20.7111    0.0000 </r>
       <r>   23.6423    0.0000 </r>
       <r>   28.1105    0.0000 </r>
       <r>   30.7514    0.0000 </r>
      </set>
      <set comment="kpoint 278">
       <r>    2.9754    1.0000 </r>
       <r>    3.8890    1.0000 </r>
       <r>   14.7439    0.0000 </r>
       <r>   16.8495    0.0000 </r>
       <r>   19.5634    0.0000 </r>
       <r>   23.9794    0.0000 </r>
       <r>   26.3350    0.0000 </r>
       <r>   30.2615    0.0000 </r>
      </set>
      <set comment="kpoint 279">
       <r>    1.8940    1.0000 </r>
       <r>    4.0112    1.0000 </r>
       <r>   18.8021    0.0000 </r>
       <r>   18.8021    0.0000 </r>
       <r>   21.1670    0.0000 </r>
       <r>   21.1671    0.0000 </r>
       <r>   23.5397    0.0000 </r>
       <r>   26.1209    0.0000 </r>
      </set>
      <set comment="kpoint 280">
       <r>    2.5866    1.0000 </r>
       <r>    3.5143    1.0000 </r>
       <r>   17.1859    0.0000 </r>
       <r>   18.1522    0.0000 </r>
       <r>   20.7970    0.0000 </r>
       <r>   21.9917    0.0000 </r>
       <r>   24.4917    0.0000 </r>
       <r>   27.4061    0.0000 </r>
      </set>
     </set>
    </set>
   </array>
  </eigenvalues>
  <separator name="orbital magnetization" >
   <v name="MAGDIPOLOUT">      0.00000000      0.00000000      0.00000000</v>
  </separator>
  <dos>
   <i name="efermi">     10.22470695 </i>
   <total>
    <array>
     <dimension dim="1">gridpoints</dimension>
     <dimension dim="2">spin</dimension>
     <field>energy</field>
     <field>total</field>
     <field>integrated</field>
     <set>
      <set comment="spin 1">
       <r>    -6.2601     0.0000     0.0000 </r>
       <r>    -6.1114     0.0000     0.0000 </r>
       <r>    -5.9627     0.0000     0.0000 </r>
       <r>    -5.8140     0.0000     0.0000 </r>
       <r>    -5.6653     0.0000     0.0000 </r>
       <r>    -5.5166     0.0000     0.0000 </r>
       <r>    -5.3679     0.0000     0.0000 </r>
       <r>    -5.2192     0.0000     0.0000 </r>
       <r>    -5.0705     0.0000     0.0000 </r>
       <r>    -4.9218     0.0000     0.0000 </r>
       <r>    -4.7731     0.0000     0.0000 </r>
       <r>    -4.6244     0.0000     0.0000 </r>
       <r>    -4.4757     0.0000     0.0000 </r>
       <r>    -4.3270     0.0000     0.0000 </r>
       <r>    -4.1783     0.0121     0.0018 </r>
       <r>    -4.0296     0.0433     0.0082 </r>
       <r>    -3.8809     0.0557     0.0165 </r>
       <r>    -3.7322     0.0717     0.0272 </r>
       <r>    -3.5835     0.0771     0.0386 </r>
       <r>    -3.4348     0.0995     0.0534 </r>
       <r>    -3.2861     0.0866     0.0663 </r>
       <r>    -3.1374     0.1164     0.0836 </r>
       <r>    -2.9887     0.1184     0.1012 </r>
       <r>    -2.8400     0.1177     0.1187 </r>
       <r>    -2.6913     0.0977     0.1333 </r>
       <r>    -2.5426     0.1854     0.1608 </r>
       <r>    -2.3939     0.1163     0.1781 </r>
       <r>    -2.2452     0.1248     0.1967 </r>
       <r>    -2.0965     0.1721     0.2223 </r>
       <r>    -1.9478     0.1710     0.2477 </r>
       <r>    -1.7991     0.1526     0.2704 </r>
       <r>    -1.6504     0.1638     0.2948 </r>
       <r>    -1.5017     0.1689     0.3199 </r>
       <r>    -1.3530     0.1658     0.3445 </r>
       <r>    -1.2043     0.1854     0.3721 </r>
       <r>    -1.0556     0.2524     0.4096 </r>
       <r>    -0.9069     0.1244     0.4281 </r>
       <r>    -0.7582     0.1829     0.4553 </r>
       <r>    -0.6095     0.2025     0.4854 </r>
       <r>    -0.4608     0.2443     0.5218 </r>
       <r>    -0.3121     0.2271     0.5555 </r>
       <r>    -0.1634     0.1623     0.5797 </r>
       <r>    -0.0147     0.2392     0.6152 </r>
       <r>     0.1340     0.2017     0.6452 </r>
       <r>     0.2827     0.2455     0.6817 </r>
       <r>     0.4314     0.2159     0.7138 </r>
       <r>     0.5801     0.2721     0.7543 </r>
       <r>     0.7288     0.1824     0.7814 </r>
       <r>     0.8775     0.3289     0.8303 </r>
       <r>     1.0262     0.1712     0.8558 </r>
       <r>     1.1749     0.2059     0.8864 </r>
       <r>     1.3236     0.2753     0.9273 </r>
       <r>     1.4723     0.3443     0.9785 </r>
       <r>     1.6210     0.2227     1.0117 </r>
       <r>     1.7697     0.3120     1.0581 </r>
       <r>     1.9184     0.1864     1.0858 </r>
       <r>     2.0671     0.2375     1.1211 </r>
       <r>     2.2158     0.3104     1.1672 </r>
       <r>     2.3645     0.3659     1.2216 </r>
       <r>     2.5132     0.1962     1.2508 </r>
       <r>     2.6619     0.3416     1.3016 </r>
       <r>     2.8106     0.2858     1.3441 </r>
       <r>     2.9593     0.3211     1.3919 </r>
       <r>     3.1080     0.2360     1.4270 </r>
       <r>     3.2567     0.3007     1.4717 </r>
       <r>     3.4054     0.2285     1.5056 </r>
       <r>     3.5541     0.2856     1.5481 </r>
       <r>     3.7028     0.3521     1.6005 </r>
       <r>     3.8515     0.3306     1.6496 </r>
       <r>     4.0002     0.3444     1.7008 </r>
       <r>     4.1489     0.2479     1.7377 </r>
       <r>     4.2976     0.3040     1.7829 </r>
       <r>     4.4463     0.3163     1.8300 </r>
       <r>     4.5950     0.3064     1.8755 </r>
       <r>     4.7437     0.3304     1.9246 </r>
       <r>     4.8924     0.4585     1.9928 </r>
       <r>     5.0411     0.3246     2.0411 </r>
       <r>     5.1898     0.2607     2.0799 </r>
       <r>     5.3385     0.3411     2.1306 </r>
       <r>     5.4872     0.3310     2.1798 </r>
       <r>     5.6359     0.3488     2.2317 </r>
       <r>     5.7846     0.3459     2.2831 </r>
       <r>     5.9333     0.3204     2.3307 </r>
       <r>     6.0820     0.3485     2.3826 </r>
       <r>     6.2307     0.2489     2.4196 </r>
       <r>     6.3794     0.4447     2.4857 </r>
       <r>     6.5281     0.3955     2.5445 </r>
       <r>     6.6768     0.4389     2.6098 </r>
       <r>     6.8255     0.3553     2.6626 </r>
       <r>     6.9742     0.3386     2.7130 </r>
       <r>     7.1229     0.4015     2.7727 </r>
       <r>     7.2716     0.1561     2.7959 </r>
       <r>     7.4203     0.3586     2.8492 </r>
       <r>     7.5690     0.4461     2.9155 </r>
       <r>     7.7177     0.4193     2.9779 </r>
       <r>     7.8664     0.3554     3.0307 </r>
       <r>     8.0151     0.5752     3.1163 </r>
       <r>     8.1638     0.3610     3.1699 </r>
       <r>     8.3125     0.2744     3.2107 </r>
       <r>     8.4612     0.2891     3.2537 </r>
       <r>     8.6099     0.3835     3.3108 </r>
       <r>     8.7586     0.4668     3.3802 </r>
       <r>     8.9073     0.3824     3.4370 </r>
       <r>     9.0560     0.5530     3.5192 </r>
       <r>     9.2047     0.4347     3.5839 </r>
       <r>     9.3534     0.2608     3.6227 </r>
       <r>     9.5021     0.3599     3.6762 </r>
       <r>     9.6508     0.3868     3.7337 </r>
       <r>     9.7995     0.5907     3.8215 </r>
       <r>     9.9482     0.3972     3.8806 </r>
       <r>    10.0969     0.4153     3.9423 </r>
       <r>    10.2456     0.4292     4.0062 </r>
       <r>    10.3943     0.2727     4.0467 </r>
       <r>    10.5430     0.4774     4.1177 </r>
       <r>    10.6917     0.4921     4.1909 </r>
       <r>    10.8404     0.4624     4.2596 </r>
       <r>    10.9891     0.5714     4.3446 </r>
       <r>    11.1378     0.3552     4.3974 </r>
       <r>    11.2865     0.4333     4.4619 </r>
       <r>    11.4352     0.4876     4.5344 </r>
       <r>    11.5839     0.3239     4.5825 </r>
       <r>    11.7326     0.5752     4.6681 </r>
       <r>    11.8813     0.2980     4.7124 </r>
       <r>    12.0300     0.6297     4.8060 </r>
       <r>    12.1787     0.4767     4.8769 </r>
       <r>    12.3274     0.5078     4.9524 </r>
       <r>    12.4761     0.4343     5.0170 </r>
       <r>    12.6248     0.4823     5.0887 </r>
       <r>    12.7735     0.4690     5.1584 </r>
       <r>    12.9222     0.5736     5.2437 </r>
       <r>    13.0709     0.5241     5.3217 </r>
       <r>    13.2196     0.5138     5.3981 </r>
       <r>    13.3683     0.5750     5.4836 </r>
       <r>    13.5170     0.3718     5.5389 </r>
       <r>    13.6657     0.6099     5.6295 </r>
       <r>    13.8144     0.6991     5.7335 </r>
       <r>    13.9631     0.5225     5.8112 </r>
       <r>    14.1118     0.5360     5.8909 </r>
       <r>    14.2605     0.4666     5.9603 </r>
       <r>    14.4092     0.5278     6.0388 </r>
       <r>    14.5579     0.4099     6.0997 </r>
       <r>    14.7066     0.6068     6.1900 </r>
       <r>    14.8553     0.7029     6.2945 </r>
       <r>    15.0040     0.3181     6.3418 </r>
       <r>    15.1527     0.4028     6.4017 </r>
       <r>    15.3014     0.5302     6.4806 </r>
       <r>    15.4501     0.4649     6.5497 </r>
       <r>    15.5988     0.3739     6.6053 </r>
       <r>    15.7475     0.5706     6.6901 </r>
       <r>    15.8962     0.3396     6.7406 </r>
       <r>    16.0449     0.5816     6.8271 </r>
       <r>    16.1936     0.5735     6.9124 </r>
       <r>    16.3423     0.4023     6.9722 </r>
       <r>    16.4910     0.3894     7.0301 </r>
       <r>    16.6397     0.4708     7.1001 </r>
       <r>    16.7884     0.5165     7.1769 </r>
       <r>    16.9371     0.5158     7.2536 </r>
       <r>    17.0858     0.4121     7.3149 </r>
       <r>    17.2345     0.3919     7.3732 </r>
       <r>    17.3832     0.6350     7.4676 </r>
       <r>    17.5319     0.4891     7.5404 </r>
       <r>    17.6806     0.5422     7.6210 </r>
       <r>    17.8293     0.3877     7.6786 </r>
       <r>    17.9780     0.5634     7.7624 </r>
       <r>    18.1267     0.4403     7.8279 </r>
       <r>    18.2754     0.6843     7.9296 </r>
       <r>    18.4241     0.5666     8.0139 </r>
       <r>    18.5728     0.3194     8.0614 </r>
       <r>    18.7215     0.6721     8.1613 </r>
       <r>    18.8702     0.6511     8.2581 </r>
       <r>    19.0189     0.3449     8.3094 </r>
       <r>    19.1676     0.4232     8.3724 </r>
       <r>    19.3163     0.5428     8.4531 </r>
       <r>    19.4650     0.6927     8.5561 </r>
       <r>    19.6137     0.7132     8.6621 </r>
       <r>    19.7624     0.4414     8.7278 </r>
       <r>    19.9111     0.5332     8.8071 </r>
       <r>    20.0598     0.5849     8.8940 </r>
       <r>    20.2085     0.2825     8.9360 </r>
       <r>    20.3572     0.5431     9.0168 </r>
       <r>    20.5059     0.7708     9.1314 </r>
       <r>    20.6546     0.6248     9.2243 </r>
       <r>    20.8033     0.5284     9.3029 </r>
       <r>    20.9520     0.4448     9.3690 </r>
       <r>    21.1007     0.8459     9.4948 </r>
       <r>    21.2494     0.6807     9.5961 </r>
       <r>    21.3981     0.5480     9.6776 </r>
       <r>    21.5468     0.7305     9.7862 </r>
       <r>    21.6955     0.2927     9.8297 </r>
       <r>    21.8442     0.5139     9.9061 </r>
       <r>    21.9929     0.6929    10.0092 </r>
       <r>    22.1416     0.5107    10.0851 </r>
       <r>    22.2903     0.6446    10.1810 </r>
       <r>    22.4390     0.5413    10.2614 </r>
       <r>    22.5877     0.7654    10.3753 </r>
       <r>    22.7364     0.4677    10.4448 </r>
       <r>    22.8851     0.5439    10.5257 </r>
       <r>    23.0338     0.6657    10.6247 </r>
       <r>    23.1825     0.2637    10.6639 </r>
       <r>    23.3312     0.4172    10.7259 </r>
       <r>    23.4799     0.8825    10.8572 </r>
       <r>    23.6286     0.8724    10.9869 </r>
       <r>    23.7773     0.8159    11.1082 </r>
       <r>    23.9260     0.6899    11.2108 </r>
       <r>    24.0747     0.4048    11.2710 </r>
       <r>    24.2234     0.6448    11.3669 </r>
       <r>    24.3721     0.5828    11.4535 </r>
       <r>    24.5209     0.6679    11.5528 </r>
       <r>    24.6696     0.6753    11.6533 </r>
       <r>    24.8183     0.6686    11.7527 </r>
       <r>    24.9670     0.7532    11.8647 </r>
       <r>    25.1157     0.6566    11.9623 </r>
       <r>    25.2644     0.6220    12.0548 </r>
       <r>    25.4131     0.3408    12.1055 </r>
       <r>    25.5618     0.7552    12.2178 </r>
       <r>    25.7105     0.6369    12.3125 </r>
       <r>    25.8592     0.4721    12.3827 </r>
       <r>    26.0079     0.7873    12.4998 </r>
       <r>    26.1566     0.9467    12.6406 </r>
       <r>    26.3053     0.6546    12.7379 </r>
       <r>    26.4540     0.6974    12.8416 </r>
       <r>    26.6027     0.4447    12.9077 </r>
       <r>    26.7514     0.5778    12.9936 </r>
       <r>    26.9001     0.5284    13.0722 </r>
       <r>    27.0488     0.8124    13.1930 </r>
       <r>    27.1975     0.7472    13.3041 </r>
       <r>    27.3462     0.4588    13.3724 </r>
       <r>    27.4949     0.4982    13.4464 </r>
       <r>    27.6436     0.4511    13.5135 </r>
       <r>    27.7923     0.6597    13.6116 </r>
       <r>    27.9410     0.8887    13.7438 </r>
       <r>    28.0897     0.4376    13.8088 </r>
       <r>    28.2384     0.4305    13.8728 </r>
       <r>    28.3871     0.5141    13.9493 </r>
       <r>    28.5358     0.6594    14.0473 </r>
       <r>    28.6845     0.5553    14.1299 </r>
       <r>    28.8332     0.6390    14.2249 </r>
       <r>    28.9819     0.3943    14.2836 </r>
       <r>    29.1306     0.3630    14.3375 </r>
       <r>    29.2793     0.2076    14.3684 </r>
       <r>    29.4280     0.6469    14.4646 </r>
       <r>    29.5767     0.7140    14.5708 </r>
       <r>    29.7254     0.6402    14.6660 </r>
       <r>    29.8741     0.6089    14.7565 </r>
       <r>    30.0228     0.3557    14.8094 </r>
       <r>    30.1715     0.3341    14.8591 </r>
       <r>    30.3202     0.6462    14.9552 </r>
       <r>    30.4689     0.4953    15.0288 </r>
       <r>    30.6176     0.5756    15.1144 </r>
       <r>    30.7663     0.4044    15.1746 </r>
       <r>    30.9150     0.3712    15.2298 </r>
       <r>    31.0637     0.2910    15.2730 </r>
       <r>    31.2124     0.3616    15.3268 </r>
       <r>    31.3611     0.3275    15.3755 </r>
       <r>    31.5098     0.3358    15.4254 </r>
       <r>    31.6585     0.1845    15.4529 </r>
       <r>    31.8072     0.1809    15.4798 </r>
       <r>    31.9559     0.2666    15.5194 </r>
       <r>    32.1046     0.2646    15.5588 </r>
       <r>    32.2533     0.1845    15.5862 </r>
       <r>    32.4020     0.2415    15.6221 </r>
       <r>    32.5507     0.3023    15.6671 </r>
       <r>    32.6994     0.0418    15.6733 </r>
       <r>    32.8481     0.2933    15.7169 </r>
       <r>    32.9968     0.0805    15.7289 </r>
       <r>    33.1455     0.2435    15.7651 </r>
       <r>    33.2942     0.1601    15.7889 </r>
       <r>    33.4429     0.1301    15.8082 </r>
       <r>    33.5916     0.0896    15.8215 </r>
       <r>    33.7403     0.0615    15.8307 </r>
       <r>    33.8890     0.1405    15.8516 </r>
       <r>    34.0377     0.2037    15.8819 </r>
       <r>    34.1864     0.1393    15.9026 </r>
       <r>    34.3351     0.1352    15.9227 </r>
       <r>    34.4838     0.0499    15.9301 </r>
       <r>    34.6325     0.0568    15.9385 </r>
       <r>    34.7812     0.0862    15.9514 </r>
       <r>    34.9299     0.0051    15.9521 </r>
       <r>    35.0786     0.0818    15.9643 </r>
       <r>    35.2273     0.0190    15.9671 </r>
       <r>    35.3760     0.0434    15.9736 </r>
       <r>    35.5247     0.1168    15.9909 </r>
       <r>    35.6734     0.0022    15.9913 </r>
       <r>    35.8221     0.0001    15.9913 </r>
       <r>    35.9708     0.0270    15.9953 </r>
       <r>    36.1195     0.0023    15.9956 </r>
       <r>    36.2682     0.0019    15.9959 </r>
       <r>    36.4169     0.0274    16.0000 </r>
       <r>    36.5656     0.0001    16.0000 </r>
       <r>    36.7143     0.0000    16.0000 </r>
       <r>    36.8630     0.0000    16.0000 </r>
       <r>    37.0117     0.0000    16.0000 </r>
       <r>    37.1604     0.0000    16.0000 </r>
       <r>    37.3091     0.0000    16.0000 </r>
       <r>    37.4578     0.0000    16.0000 </r>
       <r>    37.6065     0.0000    16.0000 </r>
       <r>    37.7552     0.0000    16.0000 </r>
       <r>    37.9039     0.0000    16.0000 </r>
       <r>    38.0526     0.0000    16.0000 </r>
       <r>    38.2013     0.0000    16.0000 </r>
       <r>    38.3500     0.0000    16.0000 </r>
      </set>
     </set>
    </array>
   </total>
  </dos>
 </calculation>
 <structure name="finalpos" >
  <crystal>
   <varray name="basis" >
    <v>       2.36590362      -0.00000000       1.36595394 </v>
    <v>       0.78863454       2.23059509       1.36595394 </v>
    <v>      -0.00000001      -0.00000001       2.73190991 </v>
   </varray>
   <i name="volume">     14.41730765 </i>
   <varray name="rec_basis" >
    <v>       0.42267149      -0.14943695       0.00000000 </v>
    <v>       0.00000000       0.44831086       0.00000000 </v>
    <v>      -0.21133559      -0.14943684       0.36604428 </v>
   </varray>
  </crystal>
  <varray name="positions" >
   <v>       0.00000000      -0.00000000      -0.00000000 </v>
  </varray>
 </structure>
</modeling>
