unknown system                          
           1
     2.347395    0.000000    1.355268
     0.782465    2.213145    1.355268
     0.000000    0.000000    2.710538
   Si
     1
Direct configuration=     1
   0.00000000  0.00000000  0.00000000
unknown system                          
           1
     2.368508   -0.000000    1.367457
     0.789503    2.233050    1.367457
    -0.000000   -0.000000    2.734917
   Si
     1
Direct configuration=     2
   0.00000000  0.00000000 -0.00000000
unknown system                          
           1
     2.365904   -0.000000    1.365954
     0.788635    2.230595    1.365954
    -0.000000   -0.000000    2.731910
   Si
     1
Direct configuration=     3
   0.00000000 -0.00000000 -0.00000000
