   2   2   0   0
  0.2016476E+02  0.3849278E-09  0.3849279E-09  0.3849278E-09  0.5000000E-15
  1.000000000000000E-004
  CAR 
 unknown system                          
     16.44685220     -7.27272802  301      5.85457716      1.00000000
     -7.273  0.0000E+00  0.0000E+00
     -7.194  0.0000E+00  0.0000E+00
     -7.115  0.0000E+00  0.0000E+00
     -7.036  0.0000E+00  0.0000E+00
     -6.956  0.0000E+00  0.0000E+00
     -6.877  0.0000E+00  0.0000E+00
     -6.798  0.0000E+00  0.0000E+00
     -6.719  0.0000E+00  0.0000E+00
     -6.640  0.0000E+00  0.0000E+00
     -6.561  0.0000E+00  0.0000E+00
     -6.482  0.1664E-19  0.1316E-20
     -6.403  0.1398E-12  0.1106E-13
     -6.324  0.9513E-08  0.7522E-09
     -6.245  0.6556E-05  0.5191E-06
     -6.166  0.2178E-03  0.1774E-04
     -6.087  0.8647E-03  0.8611E-04
     -6.008  0.1321E-02  0.1906E-03
     -5.929  0.1891E-02  0.3401E-03
     -5.850  0.1397E-02  0.4505E-03
     -5.770  0.2883E-02  0.6784E-03
     -5.691  0.2500E-02  0.8761E-03
     -5.612  0.1835E-02  0.1021E-02
     -5.533  0.3208E-02  0.1275E-02
     -5.454  0.3827E-02  0.1577E-02
     -5.375  0.3157E-02  0.1827E-02
     -5.296  0.2230E-02  0.2003E-02
     -5.217  0.3798E-02  0.2304E-02
     -5.138  0.4785E-02  0.2682E-02
     -5.059  0.5077E-02  0.3083E-02
     -4.980  0.1987E-02  0.3240E-02
     -4.901  0.4235E-02  0.3575E-02
     -4.822  0.5253E-02  0.3991E-02
     -4.743  0.4443E-02  0.4342E-02
     -4.664  0.6102E-02  0.4824E-02
     -4.585  0.5572E-02  0.5265E-02
     -4.505  0.2865E-02  0.5491E-02
     -4.426  0.5359E-02  0.5915E-02
     -4.347  0.6378E-02  0.6419E-02
     -4.268  0.6763E-02  0.6954E-02
     -4.189  0.7747E-02  0.7567E-02
     -4.110  0.6333E-02  0.8067E-02
     -4.031  0.4516E-02  0.8424E-02
     -3.952  0.6064E-02  0.8904E-02
     -3.873  0.1044E-01  0.9729E-02
     -3.794  0.1202E-01  0.1068E-01
     -3.715  0.9565E-02  0.1144E-01
     -3.636  0.4335E-02  0.1178E-01
     -3.557  0.6921E-02  0.1233E-01
     -3.478  0.9284E-02  0.1306E-01
     -3.399  0.8624E-02  0.1374E-01
     -3.319  0.7572E-02  0.1434E-01
     -3.240  0.9282E-02  0.1507E-01
     -3.161  0.2865E-02  0.1530E-01
     -3.082  0.5574E-02  0.1574E-01
     -3.003  0.5876E-02  0.1621E-01
     -2.924  0.1069E-01  0.1705E-01
     -2.845  0.4812E-02  0.1743E-01
     -2.766  0.3289E-02  0.1769E-01
     -2.687  0.2861E-02  0.1792E-01
     -2.608  0.4094E-02  0.1824E-01
     -2.529  0.9175E-02  0.1897E-01
     -2.450  0.3763E-02  0.1926E-01
     -2.371  0.1222E-02  0.1936E-01
     -2.292  0.1894E-02  0.1951E-01
     -2.213  0.1982E-02  0.1967E-01
     -2.133  0.3367E-02  0.1993E-01
     -2.054  0.1527E-02  0.2005E-01
     -1.975  0.1047E-02  0.2014E-01
     -1.896  0.9963E-03  0.2022E-01
     -1.817  0.1178E-02  0.2031E-01
     -1.738  0.1328E-02  0.2041E-01
     -1.659  0.1952E-02  0.2057E-01
     -1.580  0.5105E-02  0.2097E-01
     -1.501  0.6039E-02  0.2145E-01
     -1.422  0.4545E-02  0.2181E-01
     -1.343  0.3022E-02  0.2205E-01
     -1.264  0.3200E-02  0.2230E-01
     -1.185  0.7143E-02  0.2287E-01
     -1.106  0.1904E-01  0.2437E-01
     -1.027  0.1661E-01  0.2568E-01
     -0.948  0.1124E-01  0.2657E-01
     -0.868  0.8012E-02  0.2721E-01
     -0.789  0.6885E-02  0.2775E-01
     -0.710  0.1078E-01  0.2860E-01
     -0.631  0.9271E-02  0.2934E-01
     -0.552  0.3891E-02  0.2964E-01
     -0.473  0.6404E-02  0.3015E-01
     -0.394  0.8434E-02  0.3082E-01
     -0.315  0.2892E-02  0.3105E-01
     -0.236  0.3359E-02  0.3131E-01
     -0.157  0.8981E-02  0.3202E-01
     -0.078  0.4376E-02  0.3237E-01
      0.001  0.3077E-02  0.3261E-01
      0.080  0.5634E-02  0.3306E-01
      0.159  0.4004E-02  0.3337E-01
      0.238  0.1539E-02  0.3349E-01
      0.318  0.3015E-02  0.3373E-01
      0.397  0.7190E-02  0.3430E-01
      0.476  0.4354E-02  0.3465E-01
      0.555  0.2312E-02  0.3483E-01
      0.634  0.6782E-03  0.3488E-01
      0.713  0.2927E-02  0.3511E-01
      0.792  0.5397E-02  0.3554E-01
      0.871  0.2545E-02  0.3574E-01
      0.950  0.1653E-03  0.3575E-01
      1.029  0.2009E-02  0.3591E-01
      1.108  0.6099E-02  0.3639E-01
      1.187  0.3009E-02  0.3663E-01
      1.266  0.9212E-03  0.3671E-01
      1.345  0.2113E-02  0.3687E-01
      1.424  0.5420E-02  0.3730E-01
      1.504  0.9384E-02  0.3804E-01
      1.583  0.7439E-02  0.3863E-01
      1.662  0.1423E-01  0.3976E-01
      1.741  0.1240E-01  0.4074E-01
      1.820  0.1219E-01  0.4170E-01
      1.899  0.1382E-01  0.4279E-01
      1.978  0.8051E-02  0.4343E-01
      2.057  0.6716E-02  0.4396E-01
      2.136  0.8276E-02  0.4462E-01
      2.215  0.1723E-01  0.4598E-01
      2.294  0.1266E-01  0.4698E-01
      2.373  0.7342E-02  0.4756E-01
      2.452  0.8130E-02  0.4820E-01
      2.531  0.9313E-02  0.4894E-01
      2.610  0.1394E-01  0.5004E-01
      2.689  0.1769E-01  0.5144E-01
      2.769  0.1348E-01  0.5251E-01
      2.848  0.1088E-01  0.5337E-01
      2.927  0.1598E-01  0.5463E-01
      3.006  0.1480E-01  0.5580E-01
      3.085  0.1446E-01  0.5694E-01
      3.164  0.1801E-01  0.5837E-01
      3.243  0.1102E-01  0.5924E-01
      3.322  0.9207E-02  0.5997E-01
      3.401  0.1546E-01  0.6119E-01
      3.480  0.2404E-01  0.6309E-01
      3.559  0.1322E-01  0.6413E-01
      3.638  0.1296E-01  0.6516E-01
      3.717  0.9252E-02  0.6589E-01
      3.796  0.1061E-01  0.6673E-01
      3.875  0.1388E-01  0.6783E-01
      3.955  0.1230E-01  0.6880E-01
      4.034  0.1467E-01  0.6996E-01
      4.113  0.1309E-01  0.7099E-01
      4.192  0.8876E-02  0.7170E-01
      4.271  0.1421E-01  0.7282E-01
      4.350  0.1355E-01  0.7389E-01
      4.429  0.5991E-02  0.7436E-01
      4.508  0.1407E-01  0.7548E-01
      4.587  0.1052E-01  0.7631E-01
      4.666  0.4372E-02  0.7665E-01
      4.745  0.5975E-02  0.7713E-01
      4.824  0.7370E-02  0.7771E-01
      4.903  0.3283E-02  0.7797E-01
      4.982  0.3099E-02  0.7821E-01
      5.061  0.6277E-02  0.7871E-01
      5.141  0.4400E-02  0.7906E-01
      5.220  0.3353E-02  0.7932E-01
      5.299  0.2287E-02  0.7950E-01
      5.378  0.2324E-02  0.7969E-01
      5.457  0.1516E-02  0.7981E-01
      5.536  0.9101E-03  0.7988E-01
      5.615  0.1311E-02  0.7998E-01
      5.694  0.2135E-03  0.8000E-01
      5.773  0.8374E-05  0.8000E-01
      5.852  0.6451E-08  0.8000E-01
      5.931  0.4338E-13  0.8000E-01
      6.010  0.2688E-14  0.8000E-01
      6.089  0.1241E-08  0.8000E-01
      6.168  0.4851E-05  0.8000E-01
      6.247  0.2588E-03  0.8002E-01
      6.326  0.6026E-03  0.8007E-01
      6.406  0.1545E-02  0.8019E-01
      6.485  0.2426E-02  0.8038E-01
      6.564  0.2655E-02  0.8059E-01
      6.643  0.1377E-02  0.8070E-01
      6.722  0.5792E-02  0.8116E-01
      6.801  0.4422E-02  0.8151E-01
      6.880  0.3344E-02  0.8177E-01
      6.959  0.7856E-02  0.8239E-01
      7.038  0.5466E-02  0.8283E-01
      7.117  0.8850E-02  0.8353E-01
      7.196  0.5999E-02  0.8400E-01
      7.275  0.5078E-02  0.8440E-01
      7.354  0.7649E-02  0.8501E-01
      7.433  0.7878E-02  0.8563E-01
      7.512  0.9107E-02  0.8635E-01
      7.592  0.1436E-01  0.8749E-01
      7.671  0.1150E-01  0.8839E-01
      7.750  0.1147E-01  0.8930E-01
      7.829  0.1493E-01  0.9048E-01
      7.908  0.1372E-01  0.9157E-01
      7.987  0.2415E-01  0.9348E-01
      8.066  0.1579E-01  0.9473E-01
      8.145  0.1217E-01  0.9569E-01
      8.224  0.1776E-01  0.9709E-01
      8.303  0.1593E-01  0.9835E-01
      8.382  0.6545E-02  0.9887E-01
      8.461  0.7664E-02  0.9947E-01
      8.540  0.1262E-01  0.1005E+00
      8.619  0.9371E-02  0.1012E+00
      8.698  0.9353E-02  0.1020E+00
      8.778  0.7626E-02  0.1026E+00
      8.857  0.1701E-01  0.1039E+00
      8.936  0.2710E-01  0.1060E+00
      9.015  0.2180E-01  0.1078E+00
      9.094  0.2030E-01  0.1094E+00
      9.173  0.2024E-01  0.1110E+00
      9.252  0.1590E-01  0.1122E+00
      9.331  0.1578E-01  0.1135E+00
      9.410  0.1647E-01  0.1148E+00
      9.489  0.1984E-01  0.1163E+00
      9.568  0.1422E-01  0.1175E+00
      9.647  0.1076E-01  0.1183E+00
      9.726  0.1227E-01  0.1193E+00
      9.805  0.1059E-01  0.1201E+00
      9.884  0.1056E-01  0.1210E+00
      9.964  0.1369E-01  0.1220E+00
     10.043  0.9403E-02  0.1228E+00
     10.122  0.1287E-01  0.1238E+00
     10.201  0.1767E-01  0.1252E+00
     10.280  0.1735E-01  0.1266E+00
     10.359  0.6971E-02  0.1271E+00
     10.438  0.6235E-02  0.1276E+00
     10.517  0.1312E-01  0.1287E+00
     10.596  0.2246E-01  0.1304E+00
     10.675  0.1204E-01  0.1314E+00
     10.754  0.1602E-01  0.1327E+00
     10.833  0.1818E-01  0.1341E+00
     10.912  0.9532E-02  0.1348E+00
     10.991  0.1226E-01  0.1358E+00
     11.070  0.9992E-02  0.1366E+00
     11.149  0.5518E-02  0.1370E+00
     11.229  0.7753E-02  0.1377E+00
     11.308  0.7516E-02  0.1382E+00
     11.387  0.8300E-02  0.1389E+00
     11.466  0.7677E-02  0.1395E+00
     11.545  0.7736E-02  0.1401E+00
     11.624  0.1454E-01  0.1413E+00
     11.703  0.1394E-01  0.1424E+00
     11.782  0.1408E-01  0.1435E+00
     11.861  0.1765E-01  0.1449E+00
     11.940  0.1376E-01  0.1460E+00
     12.019  0.1146E-01  0.1469E+00
     12.098  0.9358E-02  0.1476E+00
     12.177  0.6951E-02  0.1482E+00
     12.256  0.5191E-02  0.1486E+00
     12.335  0.4411E-02  0.1489E+00
     12.415  0.1056E-01  0.1498E+00
     12.494  0.3774E-02  0.1501E+00
     12.573  0.5018E-02  0.1505E+00
     12.652  0.7188E-02  0.1510E+00
     12.731  0.6080E-02  0.1515E+00
     12.810  0.5817E-02  0.1520E+00
     12.889  0.6259E-02  0.1525E+00
     12.968  0.8952E-02  0.1532E+00
     13.047  0.5559E-02  0.1536E+00
     13.126  0.1475E-01  0.1548E+00
     13.205  0.9754E-02  0.1555E+00
     13.284  0.2925E-02  0.1558E+00
     13.363  0.4618E-02  0.1561E+00
     13.442  0.3726E-02  0.1564E+00
     13.521  0.5381E-02  0.1569E+00
     13.601  0.5050E-02  0.1573E+00
     13.680  0.1264E-02  0.1574E+00
     13.759  0.1824E-02  0.1575E+00
     13.838  0.4566E-02  0.1579E+00
     13.917  0.1201E-02  0.1580E+00
     13.996  0.1841E-02  0.1581E+00
     14.075  0.3469E-02  0.1584E+00
     14.154  0.2404E-02  0.1586E+00
     14.233  0.2677E-02  0.1588E+00
     14.312  0.3092E-02  0.1590E+00
     14.391  0.6587E-02  0.1595E+00
     14.470  0.1219E-02  0.1596E+00
     14.549  0.6317E-05  0.1596E+00
     14.628  0.4929E-09  0.1596E+00
     14.707  0.3607E-15  0.1596E+00
     14.786  0.0000E+00  0.1596E+00
     14.866  0.2691E-14  0.1596E+00
     14.945  0.1905E-08  0.1596E+00
     15.024  0.1100E-04  0.1596E+00
     15.103  0.6978E-03  0.1597E+00
     15.182  0.1167E-02  0.1598E+00
     15.261  0.1217E-02  0.1599E+00
     15.340  0.6857E-03  0.1599E+00
     15.419  0.6493E-03  0.1600E+00
     15.498  0.6946E-04  0.1600E+00
     15.577  0.1137E-06  0.1600E+00
     15.656  0.1678E-11  0.1600E+00
     15.735  0.1997E-18  0.1600E+00
     15.814  0.0000E+00  0.1600E+00
     15.893  0.0000E+00  0.1600E+00
     15.972  0.0000E+00  0.1600E+00
     16.052  0.0000E+00  0.1600E+00
     16.131  0.0000E+00  0.1600E+00
     16.210  0.0000E+00  0.1600E+00
     16.289  0.0000E+00  0.1600E+00
     16.368  0.0000E+00  0.1600E+00
     16.447  0.0000E+00  0.1600E+00
