    2    2  100    1
  0.2016476E+02  0.3849278E-09  0.3849279E-09  0.3849278E-09  0.5000000E-15
  1.000000000000000E-004
  CAR 
 unknown system                          
      8    120      8
 
  0.0000000E+00  0.0000000E+00  0.0000000E+00  0.2962963E-03
    1       -6.194565   1.000000
    2        5.630793   1.000000
    3        5.630793   1.000000
    4        5.630796   1.000000
    5        8.190328   0.000000
    6        8.190335   0.000000
    7        8.190336   0.000000
    8        8.779111   0.000000
 
  0.6666667E-01 -0.3469447E-17  0.0000000E+00  0.2370370E-02
    1       -6.137161   1.000000
    2        5.038526   1.000000
    3        5.538712   1.000000
    4        5.538714   1.000000
    5        8.228791   0.000000
    6        8.328947   0.000000
    7        8.328954   0.000000
    8        9.239035   0.000000
 
  0.1333333E+00 -0.6938894E-17  0.0000000E+00  0.2370370E-02
    1       -5.966241   1.000000
    2        3.887077   1.000000
    3        5.317886   1.000000
    4        5.317888   1.000000
    5        8.051634   0.000000
    6        8.652986   0.000000
    7        8.652993   0.000000
    8       10.324422   0.000000
 
  0.2000000E+00  0.0000000E+00  0.0000000E+00  0.2370370E-02
    1       -5.685718   1.000000
    2        2.647430   1.000000
    3        5.063543   1.000000
    4        5.063546   1.000000
    5        7.791103   0.000000
    6        8.981655   0.000000
    7        8.981662   0.000000
    8       11.522893   0.000000
 
  0.2666667E+00 -0.1387779E-16  0.0000000E+00  0.2370370E-02
    1       -5.304521   1.000000
    2        1.450300   1.000000
    3        4.831470   1.000000
    4        4.831473   1.000000
    5        7.538256   0.000000
    6        9.150814   0.000000
    7        9.150823   0.000000
    8       12.667855   0.000000
 
  0.3333333E+00 -0.1387779E-16  0.0000000E+00  0.2370370E-02
    1       -4.842518   1.000000
    2        0.356844   1.000000
    3        4.647613   1.000000
    4        4.647616   1.000000
    5        7.330654   0.000000
    6        9.141164   0.000000
    7        9.141173   0.000000
    8       13.422295   0.000000
 
  0.4000000E+00 -0.2775558E-16  0.0000000E+00  0.2370370E-02
    1       -4.350600   1.000000
    2       -0.563129   1.000000
    3        4.522561   1.000000
    4        4.522564   1.000000
    5        7.187762   0.000000
    6        9.058544   0.000000
    7        9.058553   0.000000
    8       13.441193   0.000000
 
  0.4666667E+00 -0.2775558E-16  0.0000000E+00  0.2370370E-02
    1       -3.971960   1.000000
    2       -1.157684   1.000000
    3        4.459455   1.000000
    4        4.459458   1.000000
    5        7.114722   0.000000
    6        8.996147   0.000000
    7        8.996156   0.000000
    8       13.351494   0.000000
 
  0.6666667E-01  0.6666667E-01  0.0000000E+00  0.1777778E-02
    1       -6.117999   1.000000
    2        5.148582   1.000000
    3        5.345013   1.000000
    4        5.345015   1.000000
    5        8.012661   0.000000
    6        8.573150   0.000000
    7        8.573155   0.000000
    8        9.240018   0.000000
 
  0.1333333E+00  0.6666667E-01  0.0000000E+00  0.7111111E-02
    1       -5.984757   1.000000
    2        4.223943   1.000000
    3        5.071698   1.000000
    4        5.238122   1.000000
    5        8.010611   0.000000
    6        8.638917   0.000000
    7        8.968199   0.000000
    8       10.031686   0.000000
 
  0.2000000E+00  0.6666667E-01  0.0000000E+00  0.7111111E-02
    1       -5.740263   1.000000
    2        3.036556   1.000000
    3        4.801285   1.000000
    4        5.022648   1.000000
    5        8.089218   0.000000
    6        8.635903   0.000000
    7        9.353395   0.000000
    8       10.910879   0.000000
 
  0.2666667E+00  0.6666667E-01  0.0000000E+00  0.7111111E-02
    1       -5.391434   1.000000
    2        1.840946   1.000000
    3        4.576276   1.000000
    4        4.751900   1.000000
    5        7.946848   0.000000
    6        8.823964   0.000000
    7        9.565826   0.000000
    8       11.396932   0.000000
 
  0.3333333E+00  0.6666667E-01  0.0000000E+00  0.7111111E-02
    1       -4.953101   1.000000
    2        0.720075   1.000000
    3        4.416756   1.000000
    4        4.492189   1.000000
    5        7.754249   0.000000
    6        8.918747   0.000000
    7        9.556412   0.000000
    8       11.964104   0.000000
 
  0.4000000E+00  0.6666667E-01  0.0000000E+00  0.7111111E-02
    1       -4.461776   1.000000
    2       -0.261233   1.000000
    3        4.273817   1.000000
    4        4.330112   1.000000
    5        7.598898   0.000000
    6        8.907338   0.000000
    7        9.421380   0.000000
    8       12.766445   0.000000
 
  0.4666667E+00  0.6666667E-01  0.0000000E+00  0.7111111E-02
    1       -4.019075   1.000000
    2       -0.987484   1.000000
    3        4.111252   1.000000
    4        4.317314   1.000000
    5        7.505071   0.000000
    6        8.895869   0.000000
    7        9.271986   0.000000
    8       13.403684   0.000000
 
 -0.4666667E+00  0.6666667E-01  0.0000000E+00  0.7111111E-02
    1       -3.867826   1.000000
    2       -1.209727   1.000000
    3        4.013422   1.000000
    4        4.375564   1.000000
    5        7.480286   0.000000
    6        8.944838   0.000000
    7        9.168346   0.000000
    8       13.540887   0.000000
 
 -0.4000000E+00  0.6666667E-01  0.0000000E+00  0.7111111E-02
    1       -4.150125   1.000000
    2       -0.784688   1.000000
    3        3.986240   1.000000
    4        4.499416   1.000000
    5        7.526406   0.000000
    6        9.063750   0.000000
    7        9.127322   0.000000
    8       13.512566   0.000000
 
 -0.3333333E+00  0.6666667E-01  0.0000000E+00  0.7111111E-02
    1       -4.628089   1.000000
    2        0.046883   1.000000
    3        4.034382   1.000000
    4        4.681227   1.000000
    5        7.641320   0.000000
    6        9.123944   0.000000
    7        9.222368   0.000000
    8       13.107631   0.000000
 
 -0.2666667E+00  0.6666667E-01  0.0000000E+00  0.7111111E-02
    1       -5.108183   1.000000
    2        1.082860   1.000000
    3        4.161207   1.000000
    4        4.909697   1.000000
    5        7.820099   0.000000
    6        9.083218   0.000000
    7        9.336208   0.000000
    8       12.353142   0.000000
 
 -0.2000000E+00  0.6666667E-01  0.0000000E+00  0.7111111E-02
    1       -5.519093   1.000000
    2        2.231958   1.000000
    3        4.366919   1.000000
    4        5.164366   1.000000
    5        8.046264   0.000000
    6        8.904554   0.000000
    7        9.255352   0.000000
    8       11.616037   0.000000
 
 -0.1333333E+00  0.6666667E-01  0.0000000E+00  0.7111111E-02
    1       -5.834123   1.000000
    2        3.420110   1.000000
    3        4.653610   1.000000
    4        5.405651   1.000000
    5        8.286644   0.000000
    6        8.601384   0.000000
    7        8.908755   0.000000
    8       10.801877   0.000000
 
 -0.6666667E-01  0.6666667E-01  0.0000000E+00  0.3555556E-02
    1       -6.041907   1.000000
    2        4.475821   1.000000
    3        5.056655   1.000000
    4        5.559223   1.000000
    5        8.349474   0.000000
    6        8.452297   0.000000
    7        8.458409   0.000000
    8        9.865761   0.000000
 
  0.1333333E+00  0.1333333E+00  0.0000000E+00  0.1777778E-02
    1       -5.889178   1.000000
    2        4.143249   1.000000
    3        4.767578   1.000000
    4        4.767579   1.000000
    5        7.590201   0.000000
    6        9.431619   0.000000
    7        9.431623   0.000000
    8        9.908994   0.000000
 
  0.2000000E+00  0.1333333E+00  0.0000000E+00  0.7111111E-02
    1       -5.681492   1.000000
    2        3.268136   1.000000
    3        4.479624   1.000000
    4        4.549681   1.000000
    5        7.557175   0.000000
    6        9.448189   0.000000
    7        9.898634   0.000000
    8       10.243097   0.000000
 
  0.2666667E+00  0.1333333E+00  0.0000000E+00  0.7111111E-02
    1       -5.366848   1.000000
    2        2.175624   1.000000
    3        4.247459   1.000000
    4        4.264255   1.000000
    5        7.748604   0.000000
    6        9.362105   0.000000
    7       10.206049   0.000000
    8       10.290973   0.000000
 
  0.3333333E+00  0.1333333E+00  0.0000000E+00  0.7111111E-02
    1       -4.956402   1.000000
    2        1.084156   1.000000
    3        3.937478   1.000000
    4        4.089634   1.000000
    5        7.846079   0.000000
    6        9.376703   0.000000
    7       10.256122   0.000000
    8       10.503023   0.000000
 
  0.4000000E+00  0.1333333E+00  0.0000000E+00  0.7111111E-02
    1       -4.476318   1.000000
    2        0.082558   1.000000
    3        3.633487   1.000000
    4        4.014232   1.000000
    5        7.819262   0.000000
    6        9.316429   0.000000
    7       10.119106   0.000000
    8       11.205721   0.000000
 
  0.4666667E+00  0.1333333E+00  0.0000000E+00  0.7111111E-02
    1       -3.997470   1.000000
    2       -0.730243   1.000000
    3        3.383430   1.000000
    4        4.022363   1.000000
    5        7.789500   0.000000
    6        9.239910   0.000000
    7        9.922022   0.000000
    8       12.217244   0.000000
 
 -0.4666667E+00  0.1333333E+00  0.0000000E+00  0.7111111E-02
    1       -3.715090   1.000000
    2       -1.146295   1.000000
    3        3.203803   1.000000
    4        4.111183   1.000000
    5        7.816699   0.000000
    6        9.217626   0.000000
    7        9.744009   0.000000
    8       13.321602   0.000000
 
 -0.4000000E+00  0.1333333E+00  0.0000000E+00  0.7111111E-02
    1       -3.871050   1.000000
    2       -0.919759   1.000000
    3        3.105961   1.000000
    4        4.274472   1.000000
    5        7.914324   0.000000
    6        9.270286   0.000000
    7        9.615862   0.000000
    8       13.751539   0.000000
 
 -0.3333333E+00  0.1333333E+00  0.0000000E+00  0.7111111E-02
    1       -4.316547   1.000000
    2       -0.202935   1.000000
    3        3.099548   1.000000
    4        4.501148   1.000000
    5        8.073706   0.000000
    6        9.388531   0.000000
    7        9.524172   0.000000
    8       12.908310   0.000000
 
 -0.2666667E+00  0.1333333E+00  0.0000000E+00  0.7111111E-02
    1       -4.807412   1.000000
    2        0.745302   1.000000
    3        3.197956   1.000000
    4        4.772036   1.000000
    5        8.277480   0.000000
    6        9.401987   0.000000
    7        9.506385   0.000000
    8       12.008125   0.000000
 
 -0.2000000E+00  0.1333333E+00  0.0000000E+00  0.7111111E-02
    1       -5.244105   1.000000
    2        1.782620   1.000000
    3        3.429478   1.000000
    4        5.055813   1.000000
    5        8.493734   0.000000
    6        9.155526   0.000000
    7        9.431973   0.000000
    8       11.390687   0.000000
 
 -0.1333333E+00  0.1333333E+00  0.0000000E+00  0.3555556E-02
    1       -5.591181   1.000000
    2        2.744970   1.000000
    3        3.884424   1.000000
    4        5.296056   1.000000
    5        8.620937   0.000000
    6        8.821447   0.000000
    7        9.057893   0.000000
    8       11.138228   0.000000
 
  0.2000000E+00  0.2000000E+00  0.0000000E+00  0.1777778E-02
    1       -5.510464   1.000000
    2        2.997355   1.000000
    3        4.174832   1.000000
    4        4.174833   1.000000
    5        7.109386   0.000000
    6        9.492138   0.000000
    7       10.483145   0.000000
    8       10.483147   0.000000
 
  0.2666667E+00  0.2000000E+00  0.0000000E+00  0.7111111E-02
    1       -5.230893   1.000000
    2        2.230482   1.000000
    3        3.866270   1.000000
    4        3.927245   1.000000
    5        7.100854   0.000000
    6        9.137412   0.000000
    7       10.753881   0.000000
    8       10.943056   0.000000
 
  0.3333333E+00  0.2000000E+00  0.0000000E+00  0.7111111E-02
    1       -4.851106   1.000000
    2        1.300000   1.000000
    3        3.463023   1.000000
    4        3.757290   1.000000
    5        7.313637   0.000000
    6        9.154600   0.000000
    7       10.669799   0.000000
    8       11.123840   0.000000
 
  0.4000000E+00  0.2000000E+00  0.0000000E+00  0.7111111E-02
    1       -4.389940   1.000000
    2        0.364302   1.000000
    3        3.051365   1.000000
    4        3.673723   1.000000
    5        7.421832   0.000000
    6        9.707978   0.000000
    7       10.503392   0.000000
    8       11.038895   0.000000
 
  0.4666667E+00  0.2000000E+00  0.0000000E+00  0.7111111E-02
    1       -3.896458   1.000000
    2       -0.466480   1.000000
    3        2.696007   1.000000
    4        3.679654   1.000000
    5        7.456067   0.000000
    6       10.341472   0.000000
    7       10.671450   0.000000
    8       10.833390   0.000000
 
 -0.4666667E+00  0.2000000E+00  0.0000000E+00  0.7111111E-02
    1       -3.515026   1.000000
    2       -1.017647   1.000000
    3        2.425729   1.000000
    4        3.773556   1.000000
    5        7.533918   0.000000
    6       10.235828   0.000000
    7       10.612973   0.000000
    8       11.847816   0.000000
 
 -0.4000000E+00  0.2000000E+00  0.0000000E+00  0.7111111E-02
    1       -3.527483   1.000000
    2       -0.996516   1.000000
    3        2.257303   1.000000
    4        3.949084   1.000000
    5        7.694291   0.000000
    6       10.188122   0.000000
    7       10.422476   0.000000
    8       13.142395   0.000000
 
 -0.3333333E+00  0.2000000E+00  0.0000000E+00  0.7111111E-02
    1       -3.919745   1.000000
    2       -0.423646   1.000000
    3        2.209979   1.000000
    4        4.195244   1.000000
    5        7.935131   0.000000
    6       10.193921   0.000000
    7       10.247877   0.000000
    8       12.786565   0.000000
 
 -0.2666667E+00  0.2000000E+00  0.0000000E+00  0.7111111E-02
    1       -4.412157   1.000000
    2        0.384066   1.000000
    3        2.322766   1.000000
    4        4.491211   1.000000
    5        8.225755   0.000000
    6       10.007492   0.000000
    7       10.189322   0.000000
    8       11.798440   0.000000
 
 -0.2000000E+00  0.2000000E+00  0.0000000E+00  0.3555556E-02
    1       -4.869029   1.000000
    2        1.182397   1.000000
    3        2.693281   1.000000
    4        4.799964   1.000000
    5        8.489465   0.000000
    6        9.603549   0.000000
    7        9.911296   0.000000
    8       11.298459   0.000000
 
  0.2666667E+00  0.2666667E+00  0.0000000E+00  0.1777778E-02
    1       -4.986049   1.000000
    2        1.816952   1.000000
    3        3.661078   1.000000
    4        3.661080   1.000000
    5        6.688786   0.000000
    6        8.531120   0.000000
    7       11.625006   0.000000
    8       11.625006   0.000000
 
  0.3333333E+00  0.2666667E+00  0.0000000E+00  0.7111111E-02
    1       -4.638310   1.000000
    2        1.136334   1.000000
    3        3.313055   1.000000
    4        3.471761   1.000000
    5        6.731799   0.000000
    6        8.227153   0.000000
    7       11.904037   0.000000
    8       12.041733   0.000000
 
  0.4000000E+00  0.2666667E+00  0.0000000E+00  0.7111111E-02
    1       -4.201245   1.000000
    2        0.375486   1.000000
    3        2.803472   1.000000
    4        3.370575   1.000000
    5        6.942793   0.000000
    6        8.426210   0.000000
    7       11.840431   0.000000
    8       12.095346   0.000000
 
  0.4666667E+00  0.2666667E+00  0.0000000E+00  0.7111111E-02
    1       -3.708610   1.000000
    2       -0.367154   1.000000
    3        2.302193   1.000000
    4        3.361378   1.000000
    5        7.037637   0.000000
    6        9.192917   0.000000
    7       11.695226   0.000000
    8       11.924984   0.000000
 
 -0.4666667E+00  0.2666667E+00  0.0000000E+00  0.7111111E-02
    1       -3.261851   1.000000
    2       -0.956519   1.000000
    3        1.901281   1.000000
    4        3.444011   1.000000
    5        7.130959   0.000000
    6       10.279833   0.000000
    7       11.572890   0.000000
    8       11.687048   0.000000
 
 -0.4000000E+00  0.2666667E+00  0.0000000E+00  0.7111111E-02
    1       -3.135529   1.000000
    2       -1.104257   1.000000
    3        1.641948   1.000000
    4        3.613829   1.000000
    5        7.305253   0.000000
    6       11.261872   0.000000
    7       11.442653   0.000000
    8       11.775672   0.000000
 
 -0.3333333E+00  0.2666667E+00  0.0000000E+00  0.7111111E-02
    1       -3.460106   1.000000
    2       -0.697481   1.000000
    3        1.565927   1.000000
    4        3.860846   1.000000
    5        7.570981   0.000000
    6       11.162219   0.000000
    7       11.303614   0.000000
    8       12.693311   0.000000
 
 -0.2666667E+00  0.2666667E+00  0.0000000E+00  0.3555556E-02
    1       -3.944095   1.000000
    2       -0.105403   1.000000
    3        1.757957   1.000000
    4        4.165285   1.000000
    5        7.904113   0.000000
    6       10.686786   0.000000
    7       11.028670   0.000000
    8       11.884283   0.000000
 
  0.3333333E+00  0.3333333E+00  0.0000000E+00  0.1777778E-02
    1       -4.322103   1.000000
    2        0.639237   1.000000
    3        3.260394   1.000000
    4        3.260396   1.000000
    5        6.390743   0.000000
    6        7.655290   0.000000
    7       12.820802   0.000000
    8       12.820802   0.000000
 
  0.4000000E+00  0.3333333E+00  0.0000000E+00  0.7111111E-02
    1       -3.911936   1.000000
    2        0.023279   1.000000
    3        2.916097   1.000000
    4        3.136386   1.000000
    5        6.494391   0.000000
    6        7.480170   0.000000
    7       13.124007   0.000000
    8       13.181020   0.000000
 
  0.4666667E+00  0.3333333E+00  0.0000000E+00  0.7111111E-02
    1       -3.430525   1.000000
    2       -0.599688   1.000000
    3        2.358743   1.000000
    4        3.105604   1.000000
    5        6.678758   0.000000
    6        7.918307   0.000000
    7       13.078270   0.000000
    8       13.128339   0.000000
 
 -0.4666667E+00  0.3333333E+00  0.0000000E+00  0.7111111E-02
    1       -2.947079   1.000000
    2       -1.144538   1.000000
    3        1.818786   1.000000
    4        3.168774   1.000000
    5        6.784503   0.000000
    6        8.885869   0.000000
    7       12.899916   0.000000
    8       12.945310   0.000000
 
 -0.4000000E+00  0.3333333E+00  0.0000000E+00  0.7111111E-02
    1       -2.715191   1.000000
    2       -1.374513   1.000000
    3        1.435535   1.000000
    4        3.322832   1.000000
    5        6.954785   0.000000
    6       10.105957   0.000000
    7       12.589245   0.000000
    8       12.817813   0.000000
 
 -0.3333333E+00  0.3333333E+00  0.0000000E+00  0.3555556E-02
    1       -2.992967   1.000000
    2       -1.086736   1.000000
    3        1.313588   1.000000
    4        3.559192   1.000000
    5        7.222228   0.000000
    6       11.423080   0.000000
    7       12.052534   0.000000
    8       12.617463   0.000000
 
  0.4000000E+00  0.4000000E+00  0.0000000E+00  0.1777778E-02
    1       -3.527843   1.000000
    2       -0.509347   1.000000
    3        2.987660   1.000000
    4        2.987662   1.000000
    5        6.249974   0.000000
    6        6.982190   0.000000
    7       14.052499   0.000000
    8       14.052501   0.000000
 
  0.4666667E+00  0.4000000E+00  0.0000000E+00  0.7111111E-02
    1       -3.063572   1.000000
    2       -1.069930   1.000000
    3        2.678274   1.000000
    4        2.931801   1.000000
    5        6.406246   0.000000
    6        6.962864   0.000000
    7       14.345932   0.000000
    8       14.371781   0.000000
 
 -0.4666667E+00  0.4000000E+00  0.0000000E+00  0.7111111E-02
    1       -2.564411   1.000000
    2       -1.579148   1.000000
    3        2.139611   1.000000
    4        2.971283   1.000000
    5        6.542001   0.000000
    6        7.663355   0.000000
    7       14.179854   0.000000
    8       14.341936   0.000000
 
 -0.4000000E+00  0.4000000E+00  0.0000000E+00  0.3555556E-02
    1       -2.350526   1.000000
    2       -1.747114   1.000000
    3        1.655325   1.000000
    4        3.103842   1.000000
    5        6.697103   0.000000
    6        8.785210   0.000000
    7       13.644589   0.000000
    8       14.222408   0.000000
 
  0.4666667E+00  0.4666667E+00  0.0000000E+00  0.1777778E-02
    1       -2.615783   1.000000
    2       -1.602565   1.000000
    3        2.849802   1.000000
    4        2.849804   1.000000
    5        6.289871   0.000000
    6        6.529162   0.000000
    7       15.252714   0.000000
    8       15.252716   0.000000
 
 -0.4666667E+00  0.4666667E+00  0.0000000E+00  0.3555556E-02
    1       -2.138289   1.000000
    2       -2.079027   1.000000
    3        2.599114   1.000000
    4        2.863130   1.000000
    5        6.418872   0.000000
    6        6.747061   0.000000
    7       15.224842   0.000000
    8       15.368689   0.000000
 
  0.2000000E+00  0.1333333E+00  0.6666667E-01  0.7111111E-02
    1       -5.814435   1.000000
    2        3.572265   1.000000
    3        4.474724   1.000000
    4        5.161776   1.000000
    5        7.996992   0.000000
    6        8.900135   0.000000
    7        9.293477   0.000000
    8       10.520168   0.000000
 
  0.2666667E+00  0.1333333E+00  0.6666667E-01  0.1422222E-01
    1       -5.534841   1.000000
    2        2.560287   1.000000
    3        4.037253   1.000000
    4        4.983421   1.000000
    5        8.181933   0.000000
    6        8.892231   0.000000
    7        9.684780   0.000000
    8       10.749318   0.000000
 
  0.3333333E+00  0.1333333E+00  0.6666667E-01  0.1422222E-01
    1       -5.154656   1.000000
    2        1.451773   1.000000
    3        3.763008   1.000000
    4        4.730395   1.000000
    5        8.217098   0.000000
    6        8.942981   0.000000
    7        9.881880   0.000000
    8       10.985132   0.000000
 
  0.4000000E+00  0.1333333E+00  0.6666667E-01  0.1422222E-01
    1       -4.693390   1.000000
    2        0.400202   1.000000
    3        3.587100   1.000000
    4        4.483258   1.000000
    5        8.108130   0.000000
    6        8.948897   0.000000
    7        9.857394   0.000000
    8       11.603943   0.000000
 
  0.4666667E+00  0.1333333E+00  0.6666667E-01  0.1422222E-01
    1       -4.201015   1.000000
    2       -0.499731   1.000000
    3        3.486447   1.000000
    4        4.290212   1.000000
    5        8.001388   0.000000
    6        8.877008   0.000000
    7        9.760479   0.000000
    8       12.521683   0.000000
 
 -0.4666667E+00  0.1333333E+00  0.6666667E-01  0.1422222E-01
    1       -3.819951   1.000000
    2       -1.087916   1.000000
    3        3.443095   1.000000
    4        4.183480   1.000000
    5        7.942688   0.000000
    6        8.818990   0.000000
    7        9.689854   0.000000
    8       13.478002   0.000000
 
  0.2666667E+00  0.2000000E+00  0.6666667E-01  0.7111111E-02
    1       -5.438176   1.000000
    2        2.606656   1.000000
    3        3.879468   1.000000
    4        4.469614   1.000000
    5        7.535172   0.000000
    6        9.512253   0.000000
    7       10.171811   0.000000
    8       10.378733   0.000000
 
  0.3333333E+00  0.2000000E+00  0.6666667E-01  0.1422222E-01
    1       -5.090933   1.000000
    2        1.696777   1.000000
    3        3.440840   1.000000
    4        4.269352   1.000000
    5        7.768141   0.000000
    6        9.501137   0.000000
    7       10.023123   0.000000
    8       10.749435   0.000000
 
  0.4000000E+00  0.2000000E+00  0.6666667E-01  0.1422222E-01
    1       -4.654115   1.000000
    2        0.716811   1.000000
    3        3.144616   1.000000
    4        4.036396   1.000000
    5        7.920820   0.000000
    6        9.614658   0.000000
    7       10.111574   0.000000
    8       10.851204   0.000000
 
  0.4666667E+00  0.2000000E+00  0.6666667E-01  0.1422222E-01
    1       -4.162793   1.000000
    2       -0.192436   1.000000
    3        2.925864   1.000000
    4        3.868280   1.000000
    5        7.955295   0.000000
    6        9.430905   0.000000
    7       10.730403   0.000000
    8       10.975302   0.000000
 
 -0.4666667E+00  0.2000000E+00  0.6666667E-01  0.1422222E-01
    1       -3.716827   1.000000
    2       -0.886297   1.000000
    3        2.758340   1.000000
    4        3.810688   1.000000
    5        7.997843   0.000000
    6        9.241225   0.000000
    7       10.654388   0.000000
    8       12.051903   0.000000
 
 -0.4000000E+00  0.2000000E+00  0.6666667E-01  0.1422222E-01
    1       -3.565733   1.000000
    2       -1.097945   1.000000
    3        2.645103   1.000000
    4        3.870697   1.000000
    5        8.104354   0.000000
    6        9.108963   0.000000
    7       10.581541   0.000000
    8       13.279065   0.000000
 
 -0.3333333E+00  0.2000000E+00  0.6666667E-01  0.1422222E-01
    1       -3.856180   1.000000
    2       -0.677922   1.000000
    3        2.605044   1.000000
    4        4.033280   1.000000
    5        8.278363   0.000000
    6        9.046186   0.000000
    7       10.551509   0.000000
    8       12.395450   0.000000
 
 -0.2666667E+00  0.2000000E+00  0.6666667E-01  0.1422222E-01
    1       -4.336754   1.000000
    2        0.110239   1.000000
    3        2.662804   1.000000
    4        4.274115   1.000000
    5        8.493468   0.000000
    6        9.029457   0.000000
    7       10.524569   0.000000
    8       11.391329   0.000000
 
 -0.2000000E+00  0.2000000E+00  0.6666667E-01  0.1422222E-01
    1       -4.815027   1.000000
    2        1.032865   1.000000
    3        2.858884   1.000000
    4        4.557762   1.000000
    5        8.678792   0.000000
    6        8.960041   0.000000
    7       10.410520   0.000000
    8       10.724088   0.000000
 
 -0.1333333E+00  0.2000000E+00  0.6666667E-01  0.7111111E-02
    1       -5.222794   1.000000
    2        1.908554   1.000000
    3        3.286398   1.000000
    4        4.825871   1.000000
    5        8.511745   0.000000
    6        8.951320   0.000000
    7       10.113008   0.000000
    8       10.537801   0.000000
 
  0.3333333E+00  0.2666667E+00  0.6666667E-01  0.7111111E-02
    1       -4.917755   1.000000
    2        1.589002   1.000000
    3        3.368920   1.000000
    4        3.800098   1.000000
    5        7.124040   0.000000
    6        8.795289   0.000000
    7       10.921777   0.000000
    8       11.557798   0.000000
 
  0.4000000E+00  0.2666667E+00  0.6666667E-01  0.1422222E-01
    1       -4.509219   1.000000
    2        0.807438   1.000000
    3        2.919771   1.000000
    4        3.594293   1.000000
    5        7.388208   0.000000
    6        8.846050   0.000000
    7       10.769947   0.000000
    8       11.906733   0.000000
 
  0.4666667E+00  0.2666667E+00  0.6666667E-01  0.1422222E-01
    1       -4.029943   1.000000
    2       -0.004124   1.000000
    3        2.529086   1.000000
    4        3.445678   1.000000
    5        7.531654   0.000000
    6        9.466139   0.000000
    7       10.538811   0.000000
    8       11.935743   0.000000
 
 -0.4666667E+00  0.2666667E+00  0.6666667E-01  0.1422222E-01
    1       -3.548121   1.000000
    2       -0.713777   1.000000
    3        2.205627   1.000000
    4        3.414645   1.000000
    5        7.610683   0.000000
    6       10.221494   0.000000
    7       10.570250   0.000000
    8       11.836533   0.000000
 
 -0.4000000E+00  0.2666667E+00  0.6666667E-01  0.1422222E-01
    1       -3.266310   1.000000
    2       -1.083764   1.000000
    3        1.973104   1.000000
    4        3.500380   1.000000
    5        7.745281   0.000000
    6       10.073422   0.000000
    7       11.680369   0.000000
    8       11.796434   0.000000
 
 -0.3333333E+00  0.2666667E+00  0.6666667E-01  0.1422222E-01
    1       -3.443265   1.000000
    2       -0.848065   1.000000
    3        1.859202   1.000000
    4        3.687015   1.000000
    5        7.964150   0.000000
    6        9.926205   0.000000
    7       11.602998   0.000000
    8       12.353200   0.000000
 
 -0.2666667E+00  0.2666667E+00  0.6666667E-01  0.1422222E-01
    1       -3.898634   1.000000
    2       -0.214765   1.000000
    3        1.907869   1.000000
    4        3.952832   1.000000
    5        8.256847   0.000000
    6        9.774724   0.000000
    7       11.214820   0.000000
    8       11.564564   0.000000
 
 -0.2000000E+00  0.2666667E+00  0.6666667E-01  0.7111111E-02
    1       -4.385864   1.000000
    2        0.480590   1.000000
    3        2.208669   1.000000
    4        4.263717   1.000000
    5        8.577810   0.000000
    6        9.411573   0.000000
    7       10.674049   0.000000
    8       11.133571   0.000000
 
  0.4000000E+00  0.3333333E+00  0.6666667E-01  0.7111111E-02
    1       -4.260168   1.000000
    2        0.528123   1.000000
    3        2.979481   1.000000
    4        3.262524   1.000000
    5        6.826721   0.000000
    6        7.965203   0.000000
    7       11.977119   0.000000
    8       12.789153   0.000000
 
  0.4666667E+00  0.3333333E+00  0.6666667E-01  0.1422222E-01
    1       -3.800439   1.000000
    2       -0.129839   1.000000
    3        2.505385   1.000000
    4        3.099999   1.000000
    5        7.105659   0.000000
    6        8.203549   0.000000
    7       11.786424   0.000000
    8       13.127699   0.000000
 
 -0.4666667E+00  0.3333333E+00  0.6666667E-01  0.1422222E-01
    1       -3.304607   1.000000
    2       -0.758361   1.000000
    3        2.011396   1.000000
    4        3.071853   1.000000
    5        7.232964   0.000000
    6        9.047433   0.000000
    7       11.544019   0.000000
    8       13.116732   0.000000
 