   2   2   0   0
  0.2016476E+02  0.3849278E-09  0.3849279E-09  0.3849278E-09  0.5000000E-15
  1.000000000000000E-004
  CAR 
 unknown system                          
     15.70841480     -7.14591487  301      5.73345216      1.00000000
     -7.146  0.0000E+00  0.0000E+00
     -7.070  0.0000E+00  0.0000E+00
     -6.994  0.0000E+00  0.0000E+00
     -6.917  0.0000E+00  0.0000E+00
     -6.841  0.0000E+00  0.0000E+00
     -6.765  0.0000E+00  0.0000E+00
     -6.689  0.0000E+00  0.0000E+00
     -6.613  0.0000E+00  0.0000E+00
     -6.536  0.0000E+00  0.0000E+00
     -6.460  0.0000E+00  0.0000E+00
     -6.384  0.5667E-17  0.4318E-18
     -6.308  0.1631E-10  0.1242E-11
     -6.232  0.5129E-06  0.3908E-07
     -6.156  0.2065E-03  0.1577E-04
     -6.079  0.1697E-02  0.1451E-03
     -6.003  0.5232E-03  0.1849E-03
     -5.927  0.3889E-03  0.2146E-03
     -5.851  0.4751E-02  0.5765E-03
     -5.775  0.2130E-02  0.7388E-03
     -5.698  0.3285E-03  0.7638E-03
     -5.622  0.4535E-02  0.1109E-02
     -5.546  0.2419E-02  0.1294E-02
     -5.470  0.3208E-03  0.1318E-02
     -5.394  0.5496E-02  0.1737E-02
     -5.318  0.3858E-02  0.2031E-02
     -5.241  0.5972E-03  0.2076E-02
     -5.165  0.8746E-02  0.2742E-02
     -5.089  0.5238E-02  0.3141E-02
     -5.013  0.8011E-03  0.3202E-02
     -4.937  0.5159E-02  0.3595E-02
     -4.860  0.1415E-02  0.3703E-02
     -4.784  0.9479E-03  0.3775E-02
     -4.708  0.8487E-02  0.4422E-02
     -4.632  0.5184E-02  0.4817E-02
     -4.556  0.5115E-02  0.5207E-02
     -4.480  0.1290E-01  0.6190E-02
     -4.403  0.3891E-02  0.6486E-02
     -4.327  0.3420E-02  0.6747E-02
     -4.251  0.4594E-02  0.7097E-02
     -4.175  0.2227E-02  0.7266E-02
     -4.099  0.9368E-02  0.7980E-02
     -4.022  0.9299E-02  0.8688E-02
     -3.946  0.9473E-02  0.9410E-02
     -3.870  0.4950E-02  0.9787E-02
     -3.794  0.6927E-02  0.1031E-01
     -3.718  0.3390E-02  0.1057E-01
     -3.642  0.1042E-01  0.1137E-01
     -3.565  0.1702E-01  0.1266E-01
     -3.489  0.8034E-02  0.1328E-01
     -3.413  0.7352E-02  0.1384E-01
     -3.337  0.1529E-01  0.1500E-01
     -3.261  0.7094E-02  0.1554E-01
     -3.184  0.1960E-03  0.1556E-01
     -3.108  0.8105E-05  0.1556E-01
     -3.032  0.1942E-02  0.1570E-01
     -2.956  0.1048E-01  0.1650E-01
     -2.880  0.2147E-02  0.1667E-01
     -2.804  0.1736E-03  0.1668E-01
     -2.727  0.6087E-02  0.1714E-01
     -2.651  0.1111E-01  0.1799E-01
     -2.575  0.1150E-01  0.1887E-01
     -2.499  0.1102E-01  0.1971E-01
     -2.423  0.3832E-02  0.2000E-01
     -2.347  0.3938E-04  0.2000E-01
     -2.270  0.5790E-08  0.2000E-01
     -2.194  0.9670E-14  0.2000E-01
     -2.118  0.0000E+00  0.2000E-01
     -2.042  0.0000E+00  0.2000E-01
     -1.966  0.0000E+00  0.2000E-01
     -1.889  0.0000E+00  0.2000E-01
     -1.813  0.0000E+00  0.2000E-01
     -1.737  0.7198E-15  0.2000E-01
     -1.661  0.1111E-08  0.2000E-01
     -1.585  0.1955E-04  0.2000E-01
     -1.509  0.4719E-02  0.2036E-01
     -1.432  0.2646E-01  0.2238E-01
     -1.356  0.1035E-01  0.2316E-01
     -1.280  0.2184E-02  0.2333E-01
     -1.204  0.7024E-03  0.2338E-01
     -1.128  0.1200E-01  0.2430E-01
     -1.051  0.1785E-01  0.2566E-01
     -0.975  0.1250E-01  0.2661E-01
     -0.899  0.7259E-03  0.2667E-01
     -0.823  0.2234E-03  0.2668E-01
     -0.747  0.8468E-02  0.2733E-01
     -0.671  0.2042E-01  0.2888E-01
     -0.594  0.1516E-01  0.3004E-01
     -0.518  0.1900E-02  0.3018E-01
     -0.442  0.1580E-03  0.3020E-01
     -0.366  0.6172E-02  0.3067E-01
     -0.290  0.7923E-02  0.3127E-01
     -0.213  0.4873E-03  0.3131E-01
     -0.137  0.3796E-02  0.3160E-01
     -0.061  0.5112E-02  0.3199E-01
      0.015  0.1804E-01  0.3336E-01
      0.091  0.9203E-02  0.3406E-01
      0.167  0.1672E-03  0.3407E-01
      0.244  0.5144E-07  0.3407E-01
      0.320  0.1938E-12  0.3407E-01
      0.396  0.2429E-17  0.3407E-01
      0.472  0.1516E-10  0.3407E-01
      0.548  0.9090E-06  0.3407E-01
      0.625  0.6740E-03  0.3413E-01
      0.701  0.9289E-02  0.3483E-01
      0.777  0.7496E-02  0.3540E-01
      0.853  0.1033E-01  0.3619E-01
      0.929  0.1374E-02  0.3630E-01
      1.005  0.3878E-05  0.3630E-01
      1.082  0.9716E-06  0.3630E-01
      1.158  0.4946E-03  0.3633E-01
      1.234  0.4948E-02  0.3671E-01
      1.310  0.1831E-02  0.3685E-01
      1.386  0.9227E-04  0.3686E-01
      1.463  0.5589E-02  0.3728E-01
      1.539  0.1433E-01  0.3838E-01
      1.615  0.7102E-02  0.3892E-01
      1.691  0.2153E-01  0.4056E-01
      1.767  0.1541E-01  0.4173E-01
      1.843  0.1043E-01  0.4252E-01
      1.920  0.3219E-02  0.4277E-01
      1.996  0.1046E-01  0.4357E-01
      2.072  0.1858E-02  0.4371E-01
      2.148  0.5823E-02  0.4415E-01
      2.224  0.2439E-01  0.4601E-01
      2.301  0.1800E-01  0.4738E-01
      2.377  0.7233E-02  0.4793E-01
      2.453  0.1022E-01  0.4871E-01
      2.529  0.1018E-01  0.4949E-01
      2.605  0.4401E-02  0.4982E-01
      2.681  0.8156E-02  0.5044E-01
      2.758  0.2346E-01  0.5223E-01
      2.834  0.2176E-01  0.5389E-01
      2.910  0.9150E-02  0.5459E-01
      2.986  0.3942E-02  0.5489E-01
      3.062  0.1991E-01  0.5640E-01
      3.139  0.2618E-01  0.5840E-01
      3.215  0.9008E-02  0.5908E-01
      3.291  0.2153E-01  0.6072E-01
      3.367  0.9386E-02  0.6144E-01
      3.443  0.3711E-02  0.6172E-01
      3.519  0.2325E-01  0.6349E-01
      3.596  0.1674E-01  0.6477E-01
      3.672  0.2371E-02  0.6495E-01
      3.748  0.1284E-01  0.6593E-01
      3.824  0.1628E-01  0.6717E-01
      3.900  0.1257E-01  0.6812E-01
      3.977  0.1015E-01  0.6890E-01
      4.053  0.1585E-01  0.7011E-01
      4.129  0.2382E-01  0.7192E-01
      4.205  0.9180E-02  0.7262E-01
      4.281  0.9506E-02  0.7334E-01
      4.357  0.1364E-01  0.7438E-01
      4.434  0.5744E-02  0.7482E-01
      4.510  0.3220E-02  0.7507E-01
      4.586  0.2175E-02  0.7523E-01
      4.662  0.1294E-01  0.7622E-01
      4.738  0.1441E-01  0.7732E-01
      4.815  0.4828E-02  0.7768E-01
      4.891  0.8375E-02  0.7832E-01
      4.967  0.2885E-02  0.7854E-01
      5.043  0.4628E-02  0.7889E-01
      5.119  0.2340E-02  0.7907E-01
      5.195  0.1251E-03  0.7908E-01
      5.272  0.3312E-02  0.7933E-01
      5.348  0.3750E-02  0.7962E-01
      5.424  0.3641E-03  0.7965E-01
      5.500  0.3089E-02  0.7988E-01
      5.576  0.1527E-02  0.8000E-01
      5.653  0.2096E-04  0.8000E-01
      5.729  0.4232E-08  0.8000E-01
      5.805  0.9798E-14  0.8000E-01
      5.881  0.0000E+00  0.8000E-01
      5.957  0.0000E+00  0.8000E-01
      6.033  0.0000E+00  0.8000E-01
      6.110  0.0000E+00  0.8000E-01
      6.186  0.5982E-14  0.8000E-01
      6.262  0.3366E-08  0.8000E-01
      6.338  0.2155E-04  0.8000E-01
      6.414  0.1984E-02  0.8015E-01
      6.491  0.5323E-02  0.8056E-01
      6.567  0.5348E-02  0.8097E-01
      6.643  0.1889E-02  0.8111E-01
      6.719  0.1930E-04  0.8111E-01
      6.795  0.2831E-03  0.8113E-01
      6.871  0.6311E-02  0.8161E-01
      6.948  0.8111E-02  0.8223E-01
      7.024  0.5607E-02  0.8266E-01
      7.100  0.2545E-02  0.8285E-01
      7.176  0.1491E-01  0.8399E-01
      7.252  0.8296E-02  0.8462E-01
      7.328  0.3530E-02  0.8489E-01
      7.405  0.1561E-01  0.8608E-01
      7.481  0.4114E-02  0.8639E-01
      7.557  0.6241E-02  0.8687E-01
      7.633  0.1253E-01  0.8782E-01
      7.709  0.1360E-01  0.8886E-01
      7.786  0.2723E-01  0.9093E-01
      7.862  0.1747E-01  0.9226E-01
      7.938  0.9046E-02  0.9295E-01
      8.014  0.1245E-01  0.9390E-01
      8.090  0.4715E-02  0.9426E-01
      8.166  0.5862E-02  0.9471E-01
      8.243  0.2412E-01  0.9654E-01
      8.319  0.2203E-01  0.9822E-01
      8.395  0.1189E-01  0.9913E-01
      8.471  0.8507E-02  0.9978E-01
      8.547  0.3014E-02  0.1000E+00
      8.624  0.1898E-01  0.1015E+00
      8.700  0.2079E-01  0.1030E+00
      8.776  0.8503E-02  0.1037E+00
      8.852  0.2691E-01  0.1057E+00
      8.928  0.2094E-01  0.1073E+00
      9.004  0.5039E-02  0.1077E+00
      9.081  0.1235E-01  0.1087E+00
      9.157  0.1872E-01  0.1101E+00
      9.233  0.2194E-01  0.1118E+00
      9.309  0.1624E-01  0.1130E+00
      9.385  0.2459E-01  0.1149E+00
      9.462  0.1310E-01  0.1159E+00
      9.538  0.1350E-01  0.1169E+00
      9.614  0.1230E-01  0.1178E+00
      9.690  0.1147E-01  0.1187E+00
      9.766  0.1178E-01  0.1196E+00
      9.842  0.1344E-01  0.1206E+00
      9.919  0.1126E-01  0.1215E+00
      9.995  0.7593E-02  0.1221E+00
     10.071  0.1012E-01  0.1228E+00
     10.147  0.2684E-01  0.1249E+00
     10.223  0.1875E-01  0.1263E+00
     10.300  0.7397E-02  0.1269E+00
     10.376  0.1451E-01  0.1280E+00
     10.452  0.9745E-02  0.1287E+00
     10.528  0.2035E-01  0.1303E+00
     10.604  0.8613E-02  0.1309E+00
     10.680  0.2343E-01  0.1327E+00
     10.757  0.1055E-01  0.1335E+00
     10.833  0.2453E-02  0.1337E+00
     10.909  0.1399E-01  0.1348E+00
     10.985  0.7591E-02  0.1353E+00
     11.061  0.4904E-02  0.1357E+00
     11.138  0.4063E-03  0.1357E+00
     11.214  0.1699E-02  0.1359E+00
     11.290  0.1314E-01  0.1369E+00
     11.366  0.2309E-01  0.1386E+00
     11.442  0.9835E-02  0.1394E+00
     11.518  0.1567E-01  0.1406E+00
     11.595  0.2360E-01  0.1424E+00
     11.671  0.2411E-01  0.1442E+00
     11.747  0.5934E-02  0.1447E+00
     11.823  0.8506E-02  0.1453E+00
     11.899  0.1185E-01  0.1462E+00
     11.976  0.1315E-02  0.1463E+00
     12.052  0.6767E-02  0.1468E+00
     12.128  0.7362E-02  0.1474E+00
     12.204  0.4606E-03  0.1474E+00
     12.280  0.7679E-02  0.1480E+00
     12.356  0.1771E-01  0.1494E+00
     12.433  0.5795E-02  0.1498E+00
     12.509  0.2132E-03  0.1498E+00
     12.585  0.2915E-03  0.1498E+00
     12.661  0.1064E-01  0.1506E+00
     12.737  0.1627E-01  0.1519E+00
     12.814  0.4251E-02  0.1522E+00
     12.890  0.4665E-02  0.1526E+00
     12.966  0.8423E-03  0.1526E+00
     13.042  0.1212E-01  0.1536E+00
     13.118  0.2086E-01  0.1551E+00
     13.194  0.1499E-01  0.1563E+00
     13.271  0.2545E-02  0.1565E+00
     13.347  0.1547E-03  0.1565E+00
     13.423  0.1732E-02  0.1566E+00
     13.499  0.6131E-02  0.1571E+00
     13.575  0.8349E-02  0.1577E+00
     13.652  0.6773E-03  0.1578E+00
     13.728  0.1422E-05  0.1578E+00
     13.804  0.4171E-10  0.1578E+00
     13.880  0.1673E-12  0.1578E+00
     13.956  0.4277E-07  0.1578E+00
     14.032  0.1274E-03  0.1578E+00
     14.109  0.5885E-02  0.1582E+00
     14.185  0.8184E-02  0.1589E+00
     14.261  0.3879E-03  0.1589E+00
     14.337  0.3177E-06  0.1589E+00
     14.413  0.2658E-08  0.1589E+00
     14.490  0.1869E-04  0.1589E+00
     14.566  0.1887E-02  0.1590E+00
     14.642  0.6489E-02  0.1595E+00
     14.718  0.5568E-02  0.1600E+00
     14.794  0.6204E-03  0.1600E+00
     14.870  0.1539E-05  0.1600E+00
     14.947  0.4893E-10  0.1600E+00
     15.023  0.1700E-16  0.1600E+00
     15.099  0.0000E+00  0.1600E+00
     15.175  0.0000E+00  0.1600E+00
     15.251  0.0000E+00  0.1600E+00
     15.328  0.0000E+00  0.1600E+00
     15.404  0.0000E+00  0.1600E+00
     15.480  0.0000E+00  0.1600E+00
     15.556  0.0000E+00  0.1600E+00
     15.632  0.0000E+00  0.1600E+00
     15.708  0.0000E+00  0.1600E+00
