    2    2  100    1
  0.2016476E+02  0.3849278E-09  0.3849279E-09  0.3849278E-09  0.5000000E-15
  1.000000000000000E-004
  CAR 
 unknown system                          
      8     28      8
 
  0.8333333E-01  0.8333333E-01  0.8333333E-01  0.9259259E-02
    1       -6.107082   1.000000
    2        4.766144   1.000000
    3        5.483461   1.000000
    4        5.483464   1.000000
    5        8.190588   0.000000
    6        8.388924   0.000000
    7        8.388931   0.000000
    8        9.466399   0.000000
 
  0.2500000E+00  0.8333333E-01  0.8333333E-01  0.2777778E-01
    1       -5.637204   1.000000
    2        2.700023   1.000000
    3        4.266377   1.000000
    4        5.274558   1.000000
    5        8.276699   0.000000
    6        8.781242   0.000000
    7        9.127480   0.000000
    8       11.244762   0.000000
 
  0.4166667E+00  0.8333333E-01  0.8333333E-01  0.2777778E-01
    1       -4.562245   1.000000
    2       -0.025805   1.000000
    3        3.803984   1.000000
    4        4.646357   1.000000
    5        7.767013   0.000000
    6        9.175236   0.000000
    7        9.214961   0.000000
    8       13.032387   0.000000
 
 -0.4166667E+00  0.8333333E-01  0.8333333E-01  0.2777778E-01
    1       -3.878361   1.000000
    2       -1.150201   1.000000
    3        3.867089   1.000000
    4        4.272010   1.000000
    5        7.612533   0.000000
    6        8.897075   0.000000
    7        9.321631   0.000000
    8       13.495760   0.000000
 
 -0.2500000E+00  0.8333333E-01  0.8333333E-01  0.2777778E-01
    1       -4.967065   1.000000
    2        0.808808   1.000000
    3        4.332746   1.000000
    4        4.359413   1.000000
    5        7.867068   0.000000
    6        8.905632   0.000000
    7        9.696683   0.000000
    8       11.563010   0.000000
 
 -0.8333333E-01  0.8333333E-01  0.8333333E-01  0.2777778E-01
    1       -5.869823   1.000000
    2        3.700533   1.000000
    3        4.848470   1.000000
    4        5.027061   1.000000
    5        7.931040   0.000000
    6        8.788052   0.000000
    7        9.276901   0.000000
    8       10.393584   0.000000
 
  0.2500000E+00  0.2500000E+00  0.8333333E-01  0.2777778E-01
    1       -5.399370   1.000000
    2        2.503979   1.000000
    3        4.110374   1.000000
    4        4.129199   1.000000
    5        7.357650   0.000000
    6        9.472869   0.000000
    7       10.275782   0.000000
    8       10.485164   0.000000
 
  0.4166667E+00  0.2500000E+00  0.8333333E-01  0.5555556E-01
    1       -4.502558   1.000000
    2        0.684028   1.000000
    3        2.813734   1.000000
    4        3.746880   1.000000
    5        7.752150   0.000000
    6        9.362355   0.000000
    7       10.136144   0.000000
    8       11.585583   0.000000
 
 -0.4166667E+00  0.2500000E+00  0.8333333E-01  0.5555556E-01
    1       -3.407183   1.000000
    2       -1.035123   1.000000
    3        2.216082   1.000000
    4        3.524411   1.000000
    5        7.997395   0.000000
    6        9.534415   0.000000
    7       11.465033   0.000000
    8       11.848628   0.000000
 
 -0.2500000E+00  0.2500000E+00  0.8333333E-01  0.5555556E-01
    1       -4.114946   1.000000
    2        0.002726   1.000000
    3        2.180085   1.000000
    4        4.002040   1.000000
    5        8.581918   0.000000
    6        9.214753   0.000000
    7       10.869555   0.000000
    8       11.346881   0.000000
 
 -0.8333333E-01  0.2500000E+00  0.8333333E-01  0.5555556E-01
    1       -5.177389   1.000000
    2        1.682127   1.000000
    3        3.500257   1.000000
    4        4.657880   1.000000
    5        8.228796   0.000000
    6        9.077020   0.000000
    7       10.149829   0.000000
    8       10.508562   0.000000
 
  0.4166667E+00  0.4166667E+00  0.8333333E-01  0.2777778E-01
    1       -3.800633   1.000000
    2       -0.140766   1.000000
    3        2.781026   1.000000
    4        3.114163   1.000000
    5        6.544104   0.000000
    6        7.514009   0.000000
    7       13.111774   0.000000
    8       13.177150   0.000000
 
 -0.4166667E+00  0.4166667E+00  0.8333333E-01  0.5555556E-01
    1       -2.623682   1.000000
    2       -1.463973   1.000000
    3        1.954816   1.000000
    4        2.715689   1.000000
    5        7.161743   0.000000
    6        8.271104   0.000000
    7       12.665770   0.000000
    8       14.116452   0.000000
 
 -0.2500000E+00  0.4166667E+00  0.8333333E-01  0.5555556E-01
    1       -2.992921   1.000000
    2       -1.126091   1.000000
    3        1.477544   1.000000
    4        3.252615   1.000000
    5        7.771432   0.000000
    6       10.651329   0.000000
    7       11.626306   0.000000
    8       12.282249   0.000000
 
 -0.8333333E-01  0.4166667E+00  0.8333333E-01  0.5555556E-01
    1       -4.006336   1.000000
    2       -0.661597   1.000000
    3        3.100859   1.000000
    4        4.097760   1.000000
    5        8.183011   0.000000
    6        8.832112   0.000000
    7       10.135690   0.000000
    8       12.334610   0.000000
 
 -0.4166667E+00 -0.4166667E+00  0.8333333E-01  0.2777778E-01
    1       -2.712376   1.000000
    2       -1.471078   1.000000
    3        2.515636   1.000000
    4        2.901603   1.000000
    5        6.435459   0.000000
    6        6.995831   0.000000
    7       14.588476   0.000000
    8       14.669582   0.000000
 
 -0.2500000E+00 -0.4166667E+00  0.8333333E-01  0.5555556E-01
    1       -3.635531   1.000000
    2       -0.359858   1.000000
    3        2.268816   1.000000
    4        3.051297   1.000000
    5        7.368055   0.000000
    6        8.637836   0.000000
    7       11.321929   0.000000
    8       13.118123   0.000000
 
 -0.2500000E+00 -0.2500000E+00  0.8333333E-01  0.2777778E-01
    1       -4.704586   1.000000
    2        1.210547   1.000000
    3        3.316420   1.000000
    4        3.530922   1.000000
    5        6.858755   0.000000
    6        8.417102   0.000000
    7       11.591030   0.000000
    8       11.799402   0.000000
 
  0.2500000E+00  0.2500000E+00  0.2500000E+00  0.9259259E-02
    1       -5.411148   1.000000
    2        1.735768   1.000000
    3        4.877955   1.000000
    4        4.877957   1.000000
    5        7.586150   0.000000
    6        9.116246   0.000000
    7        9.116253   0.000000
    8       12.380721   0.000000
 
  0.4166667E+00  0.2500000E+00  0.2500000E+00  0.2777778E-01
    1       -4.742231   1.000000
    2        0.804303   1.000000
    3        2.777720   1.000000
    4        4.710005   1.000000
    5        8.366963   0.000000
    6        9.605105   0.000000
    7        9.767890   0.000000
    8       11.672775   0.000000
 
 -0.4166667E+00  0.2500000E+00  0.2500000E+00  0.2777778E-01
    1       -3.582936   1.000000
    2       -0.623632   1.000000
    3        1.689424   1.000000
    4        3.936394   1.000000
    5        7.654480   0.000000
    6       10.909611   0.000000
    7       11.004714   0.000000
    8       12.709686   0.000000
 
 -0.2500000E+00  0.2500000E+00  0.2500000E+00  0.2777778E-01
    1       -3.530691   1.000000
    2       -0.702228   1.000000
    3        2.158538   1.000000
    4        3.462066   1.000000
    5        7.166392   0.000000
    6       10.058681   0.000000
    7       11.274957   0.000000
    8       11.505212   0.000000
 
  0.4166667E+00  0.4166667E+00  0.2500000E+00  0.2777778E-01
    1       -4.324993   1.000000
    2        0.009342   1.000000
    3        3.228969   1.000000
    4        3.829955   1.000000
    5        7.637782   0.000000
    6        9.819338   0.000000
    7       10.494464   0.000000
    8       10.650572   0.000000
 
 -0.4166667E+00  0.4166667E+00  0.2500000E+00  0.5555556E-01
    1       -3.338945   1.000000
    2       -0.740899   1.000000
    3        1.788948   1.000000
    4        3.050380   1.000000
    5        8.846986   0.000000
    6        9.372165   0.000000
    7       10.338802   0.000000
    8       13.039103   0.000000
 
 -0.2500000E+00  0.4166667E+00  0.2500000E+00  0.5555556E-01
    1       -2.521049   1.000000
    2       -1.471653   1.000000
    3        1.631354   1.000000
    4        2.394522   1.000000
    5        8.647503   0.000000
    6        9.903936   0.000000
    7       10.674240   0.000000
    8       12.053735   0.000000
 
 -0.4166667E+00 -0.4166667E+00  0.2500000E+00  0.2777778E-01
    1       -2.729054   1.000000
    2       -1.374788   1.000000
    3        1.506850   1.000000
    4        3.270282   1.000000
    5        6.893695   0.000000
    6        9.773933   0.000000
    7       12.659609   0.000000
    8       12.830571   0.000000
 
  0.4166667E+00  0.4166667E+00  0.4166667E+00  0.9259259E-02
    1       -4.239837   1.000000
    2       -0.756071   1.000000
    3        4.493537   1.000000
    4        4.493540   1.000000
    5        7.150562   0.000000
    6        9.026409   0.000000
    7        9.026416   0.000000
    8       13.404513   0.000000
 
 -0.4166667E+00  0.4166667E+00  0.4166667E+00  0.2777778E-01
    1       -3.645723   1.000000
    2       -1.058486   1.000000
    3        2.682089   1.000000
    4        4.061000   1.000000
    5        7.800736   0.000000
    6        9.648146   0.000000
    7       10.009307   0.000000
    8       13.525874   0.000000
