       N       E                     dE             d eps       ncg     rms          rms(c)
DAV:   1     0.220274919680E+01    0.22027E+01   -0.25749E+03   464   0.575E+02
DAV:   2    -0.108750010982E+02   -0.13078E+02   -0.12901E+02   688   0.675E+01
DAV:   3    -0.110207587482E+02   -0.14576E+00   -0.14576E+00   568   0.949E+00
DAV:   4    -0.110213937588E+02   -0.63501E-03   -0.63501E-03   704   0.642E-01
DAV:   5    -0.110213948518E+02   -0.10930E-05   -0.10927E-05   608   0.172E-02    0.486E+00
DAV:   6    -0.108998735834E+02    0.12152E+00   -0.80030E-02   560   0.147E+00    0.297E+00
DAV:   7    -0.108443181544E+02    0.55555E-01   -0.15202E-01   576   0.216E+00    0.186E-01
DAV:   8    -0.108453804771E+02   -0.10623E-02   -0.38483E-03   496   0.462E-01    0.741E-02
DAV:   9    -0.108455736711E+02   -0.19319E-03   -0.19239E-04   720   0.107E-01    0.569E-02
DAV:  10    -0.108455995989E+02   -0.25928E-04   -0.31268E-05   528   0.416E-02    0.106E-02
DAV:  11    -0.108455992500E+02    0.34892E-06   -0.51475E-07   632   0.503E-03
   1 F= -.10845599E+02 E0= -.10845599E+02  d E =-.108456E+02
       N       E                     dE             d eps       ncg     rms          rms(c)
DAV:   1    -0.108493704972E+02   -0.37709E-02   -0.10390E-01   576   0.181E+00    0.303E-01
DAV:   2    -0.108476079345E+02    0.17626E-02   -0.14599E-03   584   0.253E-01    0.182E-01
DAV:   3    -0.108466808091E+02    0.92713E-03   -0.19114E-03   560   0.221E-01    0.609E-02
DAV:   4    -0.108466807290E+02    0.80140E-07   -0.18288E-05   664   0.384E-02    0.542E-02
DAV:   5    -0.108466743423E+02    0.63867E-05   -0.49970E-06   520   0.163E-02    0.120E-02
DAV:   6    -0.108466744755E+02   -0.13319E-06   -0.52377E-08   320   0.216E-03
   2 F= -.10846674E+02 E0= -.10846674E+02  d E =-.107523E-02
       N       E                     dE             d eps       ncg     rms          rms(c)
DAV:   1    -0.108480051304E+02   -0.13308E-02   -0.17442E-02   552   0.746E-01    0.126E-01
DAV:   2    -0.108477148366E+02    0.29029E-03   -0.24417E-04   616   0.104E-01    0.758E-02
DAV:   3    -0.108475680546E+02    0.14678E-03   -0.31874E-04   536   0.902E-02    0.250E-02
DAV:   4    -0.108475686650E+02   -0.61042E-06   -0.32478E-06   640   0.162E-02    0.226E-02
DAV:   5    -0.108475704021E+02   -0.17370E-05   -0.81077E-07   472   0.667E-03    0.598E-03
DAV:   6    -0.108475703632E+02    0.38851E-07   -0.12602E-08   272   0.101E-03
   3 F= -.10847570E+02 E0= -.10847570E+02  d E =-.197111E-02
