 vasp.6.2.0 18Jan21 (build Aug 12 2022 13:00:08) complex                        
  
 executed on             LinuxIFC date 2024.11.03  21:53:05
 running on    4 total cores
 distrk:  each k-point on    4 cores,    1 groups
 distr:  one band on NCORE=   1 cores,    4 groups


--------------------------------------------------------------------------------------------------------


 INCAR:
   ISTART = 0            (Read existing wavefunction, if there)
   ISPIN = 1            (Non-Spin polarised DFT)
   LREAL = .FALSE.       (Projection operators: automatic)
   LWAVE = .FALSE.        (Write WAVECAR or not)
   LCHARG = .FALSE.        (Write CHGCAR or not)
   ADDGRID = .TRUE.        (Increase grid, helps GGA convergence)
   LASPH = .TRUE.        (Give more accurate total energies and band structure calculations)
   PREC = Accurate      (Accurate strictly avoids any aliasing or wrap around errors)
   ENCUT = 350          (Cut-off energy for plane wave basis set, in eV)
   ISMEAR = 0            (Gaussian smearing, metals:1)
   SIGMA = 0.05         (Smearing value in eV, metals:0.2)
   NELM = 90           (Max electronic SCF steps)
   NELMIN = 6            (Min electronic SCF steps)
   EDIFF = 1E-06        (SCF energy convergence, in eV)
   NSW = 100          (Max ionic steps)
   IBRION = 2            (Algorithm: 0-MD, 1-Quasi-New, 2-CG)
   ISIF = 3            (Stress/relaxation: 2-Ions, 3-Shape/Ions/V, 4-Shape/Ions)
   EDIFFG = -2E-03        (Ionic convergence, eV/AA)
   ISYM = 2              (Symmetry: 0\=none, 2\=GGA, 3\=hybrids)

 POTCAR:    PAW_PBE Si 05Jan2001                  
 POTCAR:    PAW_PBE Si 05Jan2001                  
   VRHFIN =Si: s2p2                                                                                 
   LEXCH  = PE                                                                                      
   EATOM  =   103.0669 eV,    7.5752 Ry                                                             
                                                                                                    
   TITEL  = PAW_PBE Si 05Jan2001                                                                    
   LULTRA =        F    use ultrasoft PP ?                                                          
   IUNSCR =        1    unscreen: 0-lin 1-nonlin 2-no                                               
   RPACOR =    1.500    partial core radius                                                         
   POMASS =   28.085; ZVAL   =    4.000    mass and valenz                                          
   RCORE  =    1.900    outmost cutoff radius                                                       
   RWIGS  =    2.480; RWIGS  =    1.312    wigner-seitz radius (au A)                               
   ENMAX  =  245.345; ENMIN  =  184.009 eV                                                          
   ICORE  =        2    local potential                                                             
   LCOR   =        T    correct aug charges                                                         
   LPAW   =        T    paw PP                                                                      
   EAUG   =  322.069                                                                                
   DEXC   =    0.000                                                                                
   RMAX   =    1.950    core radius for proj-oper                                                   
   RAUG   =    1.300    factor for augmentation sphere                                              
   RDEP   =    1.993    radius for radial grids                                                     
   RDEPT  =    1.837    core radius for aug-charge                                                  
                                                                                                    
   Atomic configuration                                                                             
    6 entries                                                                                       
     n  l   j            E        occ.                                                              
     1  0  0.50     -1785.8828   2.0000                                                             
     2  0  0.50      -139.4969   2.0000                                                             
     2  1  1.50       -95.5546   6.0000                                                             
     3  0  0.50       -10.8127   2.0000                                                             
     3  1  0.50        -4.0811   2.0000                                                             
     3  2  1.50        -4.0817   0.0000                                                             
   Description                                                                                      
     l       E           TYP  RCUT    TYP  RCUT                                                     
     0    -10.8127223     23  1.900                                                                 
     0     -7.6451159     23  1.900                                                                 
     1     -4.0811372     23  1.900                                                                 
     1      2.4879257     23  1.900                                                                 
     2     -4.0817478      7  1.900                                                                 
  local pseudopotential read in
  partial core-charges read in
  partial kinetic energy density read in
  atomic valenz-charges read in
  non local Contribution for L=           0  read in
    real space projection operators read in
  non local Contribution for L=           0  read in
    real space projection operators read in
  non local Contribution for L=           1  read in
    real space projection operators read in
  non local Contribution for L=           1  read in
    real space projection operators read in
    PAW grid and wavefunctions read in
 
   number of l-projection  operators is LMAX  =           4
   number of lm-projection operators is LMMAX =           8
 
  PAW_PBE Si 05Jan2001                  :
 energy of atom  1       EATOM= -103.0669
 kinetic energy error for atom=    0.0013 (will be added to EATOM!!)
 
 
 POSCAR: Si2
  positions in direct lattice
  No initial velocities read in
 exchange correlation table for  LEXCH =        8
   RHO(1)=    0.500       N(1)  =     2000
   RHO(2)=  100.500       N(2)  =     4000
 


--------------------------------------------------------------------------------------------------------


 ion  position               nearest neighbor table
   1  0.875  0.875  0.875-   2 2.36   2 2.36   2 2.36   2 2.36
   2  0.125  0.125  0.125-   1 2.36   1 2.36   1 2.36   1 2.36
 
  LATTYP: Found a face centered cubic cell.
 ALAT       =     5.4437031493
  
  Lattice vectors:
  
 A1 = (   3.3335730000,   0.0000000000,   1.9246390000)
 A2 = (   1.1111910000,   3.1429240000,   1.9246390000)
 A3 = (   0.0000000000,   0.0000000000,   3.8492780000)


Analysis of symmetry for initial positions (statically):
=====================================================================
 Subroutine PRICEL returns:
 Original cell was already a primitive cell.
 

 Routine SETGRP: Setting up the symmetry group for a 
 face centered cubic supercell.


 Subroutine GETGRP returns: Found 48 space group operations
 (whereof 12 operations were pure point group operations)
 out of a pool of 48 trial point group operations.


The static configuration has the point symmetry D_3d.
 The point group associated with its full space group is O_h .


Analysis of symmetry for dynamics (positions and initial velocities):
=====================================================================
 Subroutine PRICEL returns:
 Original cell was already a primitive cell.
 

 Routine SETGRP: Setting up the symmetry group for a 
 face centered cubic supercell.


 Subroutine GETGRP returns: Found 48 space group operations
 (whereof 12 operations were pure point group operations)
 out of a pool of 48 trial point group operations.


The dynamic configuration has the point symmetry D_3d.
 The point group associated with its full space group is O_h .


 Subroutine INISYM returns: Found 48 space group operations
 (whereof 12 operations are pure point group operations),
 and found     1 'primitive' translations


----------------------------------------------------------------------------------------

                                     Primitive cell                                     

  volume of cell :      40.3295

  direct lattice vectors                    reciprocal lattice vectors
     3.333573000  0.000000000  1.924639000     0.299978432 -0.106058350  0.000000000
     1.111191000  3.142924000  1.924639000     0.000000000  0.318175050  0.000000000
     0.000000000  0.000000000  3.849278000    -0.149989216 -0.106058350  0.259788979

  length of vectors
     3.849278403  3.849279412  3.849278000     0.318175161  0.318175050  0.318175190

  position of ions in fractional coordinates (direct lattice)
     0.875000000  0.875000000  0.875000000
     0.125000000  0.125000000  0.125000000

  ion indices of the primitive-cell ions
   primitive index   ion index
                 1           1
                 2           2

----------------------------------------------------------------------------------------

 
 
 KPOINTS: Automatic                               

Automatic generation of k-mesh.
 Grid dimensions read from file:
 generate k-points for:    6    6    6

 Generating k-lattice:

  Cartesian coordinates                     Fractional coordinates (reciprocal lattice)
     0.049996405 -0.017676392  0.000000000     0.166666667 -0.000000000  0.000000000
     0.000000000  0.053029175  0.000000000     0.000000000  0.166666667  0.000000000
    -0.024998203 -0.017676392  0.043298163     0.000000000  0.000000000  0.166666667

  Length of vectors
     0.053029193  0.053029175  0.053029198

  Shift w.r.t. Gamma in fractional coordinates (k-lattice)
     0.500000000  0.500000000  0.500000000

 
 Subroutine IBZKPT returns following result:
 ===========================================
 
 Found     28 irreducible k-points:
 
 Following reciprocal coordinates:
            Coordinates               Weight
  0.083333  0.083333  0.083333      8.000000
  0.250000  0.083333  0.083333     24.000000
  0.416667  0.083333  0.083333     24.000000
 -0.416667  0.083333  0.083333     24.000000
 -0.250000  0.083333  0.083333     24.000000
 -0.083333  0.083333  0.083333     24.000000
  0.250000  0.250000  0.083333     24.000000
  0.416667  0.250000  0.083333     48.000000
 -0.416667  0.250000  0.083333     48.000000
 -0.250000  0.250000  0.083333     48.000000
 -0.083333  0.250000  0.083333     48.000000
  0.416667  0.416667  0.083333     24.000000
 -0.416667  0.416667  0.083333     48.000000
 -0.250000  0.416667  0.083333     48.000000
 -0.083333  0.416667  0.083333     48.000000
 -0.416667 -0.416667  0.083333     24.000000
 -0.250000 -0.416667  0.083333     48.000000
 -0.250000 -0.250000  0.083333     24.000000
  0.250000  0.250000  0.250000      8.000000
  0.416667  0.250000  0.250000     24.000000
 -0.416667  0.250000  0.250000     24.000000
 -0.250000  0.250000  0.250000     24.000000
  0.416667  0.416667  0.250000     24.000000
 -0.416667  0.416667  0.250000     48.000000
 -0.250000  0.416667  0.250000     48.000000
 -0.416667 -0.416667  0.250000     24.000000
  0.416667  0.416667  0.416667      8.000000
 -0.416667  0.416667  0.416667     24.000000
 
 Following cartesian coordinates:
            Coordinates               Weight
  0.012499  0.008838  0.021649      8.000000
  0.062496 -0.008838  0.021649     24.000000
  0.112492 -0.026515  0.021649     24.000000
 -0.137490  0.061867  0.021649     24.000000
 -0.087494  0.044191  0.021649     24.000000
 -0.037497  0.026515  0.021649     24.000000
  0.062496  0.044191  0.021649     24.000000
  0.112492  0.026515  0.021649     48.000000
 -0.137490  0.114897  0.021649     48.000000
 -0.087494  0.097220  0.021649     48.000000
 -0.037497  0.079544  0.021649     48.000000
  0.112492  0.079544  0.021649     24.000000
 -0.137490  0.167926  0.021649     48.000000
 -0.087494  0.150249  0.021649     48.000000
 -0.037497  0.132573  0.021649     48.000000
 -0.137490 -0.097220  0.021649     24.000000
 -0.087494 -0.114897  0.021649     48.000000
 -0.087494 -0.061867  0.021649     24.000000
  0.037497  0.026515  0.064947      8.000000
  0.087494  0.008838  0.064947     24.000000
 -0.162488  0.097220  0.064947     24.000000
 -0.112492  0.079544  0.064947     24.000000
  0.087494  0.061867  0.064947     24.000000
 -0.162488  0.150249  0.064947     48.000000
 -0.112492  0.132573  0.064947     48.000000
 -0.162488 -0.114897  0.064947     24.000000
  0.062496  0.044191  0.108245      8.000000
 -0.187487  0.132573  0.108245     24.000000
 


--------------------------------------------------------------------------------------------------------




 Dimension of arrays:
   k-points           NKPTS =     28   k-points in BZ     NKDIM =     28   number of bands    NBANDS=      8
   number of dos      NEDOS =    301   number of ions     NIONS =      2
   non local maximal  LDIM  =      4   non local SUM 2l+1 LMDIM =      8
   total plane-waves  NPLWV =  13824
   max r-space proj   IRMAX =      1   max aug-charges    IRDMAX=  91874
   dimension x,y,z NGX =    24 NGY =   24 NGZ =   24
   dimension x,y,z NGXF=    48 NGYF=   48 NGZF=   48
   support grid    NGXF=    96 NGYF=   96 NGZF=   96
   ions per type =               2
   NGX,Y,Z   is equivalent  to a cutoff of  10.37, 10.37, 10.37 a.u.
   NGXF,Y,Z  is equivalent  to a cutoff of  20.73, 20.73, 20.73 a.u.

 SYSTEM =  unknown system                          
 POSCAR =  Si2                                     

 Startparameter for this run:
   NWRITE =      2    write-flag & timer
   PREC   = accura    normal or accurate (medium, high low for compatibility)
   ISTART =      0    job   : 0-new  1-cont  2-samecut
   ICHARG =      2    charge: 1-file 2-atom 10-const
   ISPIN  =      1    spin polarized calculation?
   LNONCOLLINEAR =      F non collinear calculations
   LSORBIT =      F    spin-orbit coupling
   INIWAV =      1    electr: 0-lowe 1-rand  2-diag
   LASPH  =      T    aspherical Exc in radial PAW
   METAGGA=      F    non-selfconsistent MetaGGA calc.

 Electronic Relaxation 1
   ENCUT  =  350.0 eV  25.72 Ry    5.07 a.u.   5.87  5.87  5.87*2*pi/ulx,y,z
   ENINI  =  350.0     initial cutoff
   ENAUG  =  322.1 eV  augmentation charge cutoff
   NELM   =     90;   NELMIN=  6; NELMDL= -5     # of ELM steps 
   EDIFF  = 0.1E-05   stopping-criterion for ELM
   LREAL  =      F    real-space projection
   NLSPLINE    = F    spline interpolate recip. space projectors
   LCOMPAT=      F    compatible to vasp.4.4
   GGA_COMPAT  = T    GGA compatible to vasp.4.4-vasp.4.6
   LMAXPAW     = -100 max onsite density
   LMAXMIX     =    2 max onsite mixed and CHGCAR
   VOSKOWN=      0    Vosko Wilk Nusair interpolation
   ROPT   =    0.00000
 Ionic relaxation
   EDIFFG = -.2E-02   stopping-criterion for IOM
   NSW    =    100    number of steps for IOM
   NBLOCK =      1;   KBLOCK =    100    inner block; outer block 
   IBRION =      2    ionic relax: 0-MD 1-quasi-New 2-CG
   NFREE  =      1    steps in history (QN), initial steepest desc. (CG)
   ISIF   =      3    stress and relaxation
   IWAVPR =     11    prediction:  0-non 1-charg 2-wave 3-comb
   ISYM   =      2    0-nonsym 1-usesym 2-fastsym
   LCORR  =      T    Harris-Foulkes like correction to forces

   POTIM  = 0.5000    time-step for ionic-motion
   TEIN   =    0.0    initial temperature
   TEBEG  =    0.0;   TEEND  =   0.0 temperature during run
   SMASS  =  -3.00    Nose mass-parameter (am)
   estimated Nose-frequenzy (Omega)   =  0.10E-29 period in steps = 0.13E+47 mass=  -0.339E-27a.u.
   SCALEE = 1.0000    scale energy and forces
   NPACO  =    256;   APACO  = 16.0  distance and # of slots for P.C.
   PSTRESS=    0.0 pullay stress

  Mass of Ions in am
   POMASS =  28.09
  Ionic Valenz
   ZVAL   =   4.00
  Atomic Wigner-Seitz radii
   RWIGS  =  -1.00
  virtual crystal weights 
   VCA    =   1.00
   NELECT =       8.0000    total number of electrons
   NUPDOWN=      -1.0000    fix difference up-down

 DOS related values:
   EMIN   =  10.00;   EMAX   =-10.00  energy-range for DOS
   EFERMI =   0.00
   ISMEAR =     0;   SIGMA  =   0.05  broadening in eV -4-tet -1-fermi 0-gaus

 Electronic relaxation 2 (details)
   IALGO  =     38    algorithm
   LDIAG  =      T    sub-space diagonalisation (order eigenvalues)
   LSUBROT=      F    optimize rotation matrix (better conditioning)
   TURBO    =      0    0=normal 1=particle mesh
   IRESTART =      0    0=no restart 2=restart with 2 vectors
   NREBOOT  =      0    no. of reboots
   NMIN     =      0    reboot dimension
   EREF     =   0.00    reference energy to select bands
   IMIX   =      4    mixing-type and parameters
     AMIX     =   0.40;   BMIX     =  1.00
     AMIX_MAG =   1.60;   BMIX_MAG =  1.00
     AMIN     =   0.10
     WC   =   100.;   INIMIX=   1;  MIXPRE=   1;  MAXMIX= -45

 Intra band minimization:
   WEIMIN = 0.0010     energy-eigenvalue tresh-hold
   EBREAK =  0.31E-07  absolut break condition
   DEPER  =   0.30     relativ break condition  

   TIME   =   0.40     timestep for ELM

  volume/ion in A,a.u.               =      20.16       136.08
  Fermi-wavevector in a.u.,A,eV,Ry     =   0.954766  1.804247 12.402783  0.911579
  Thomas-Fermi vector in A             =   2.083543
 
 Write flags
   LWAVE        =      F    write WAVECAR
   LDOWNSAMPLE  =      F    k-point downsampling of WAVECAR
   LCHARG       =      F    write CHGCAR
   LVTOT        =      F    write LOCPOT, total local potential
   LVHAR        =      F    write LOCPOT, Hartree potential only
   LELF         =      F    write electronic localiz. function (ELF)
   LORBIT       =      0    0 simple, 1 ext, 2 COOP (PROOUT), +10 PAW based schemes


 Dipole corrections
   LMONO  =      F    monopole corrections only (constant potential shift)
   LDIPOL =      F    correct potential (dipole corrections)
   IDIPOL =      0    1-x, 2-y, 3-z, 4-all directions 
   EPSILON=  1.0000000 bulk dielectric constant

 Exchange correlation treatment:
   GGA     =    --    GGA type
   LEXCH   =     8    internal setting for exchange type
   VOSKOWN=      0    Vosko Wilk Nusair interpolation
   LHFCALC =     F    Hartree Fock is set to
   LHFONE  =     F    Hartree Fock one center treatment
   AEXX    =    0.0000 exact exchange contribution

 Linear response parameters
   LEPSILON=     F    determine dielectric tensor
   LRPA    =     F    only Hartree local field effects (RPA)
   LNABLA  =     F    use nabla operator in PAW spheres
   LVEL    =     F    velocity operator in full k-point grid
   LINTERFAST=   F  fast interpolation
   KINTER  =     0    interpolate to denser k-point grid
   CSHIFT  =0.1000    complex shift for real part using Kramers Kronig
   OMEGAMAX=  -1.0    maximum frequency
   DEG_THRESHOLD= 0.2000000E-02 threshold for treating states as degnerate
   RTIME   =   -0.100 relaxation time in fs
  (WPLASMAI=    0.000 imaginary part of plasma frequency in eV, 0.658/RTIME)
   DFIELD  = 0.0000000 0.0000000 0.0000000 field for delta impulse in time
 
 Orbital magnetization related:
   ORBITALMAG=     F  switch on orbital magnetization
   LCHIMAG   =     F  perturbation theory with respect to B field
   DQ        =  0.001000  dq finite difference perturbation B field
   LLRAUG    =     F  two centre corrections for induced B field



--------------------------------------------------------------------------------------------------------


 conjugate gradient relaxation of ions
 charge density and potential will be updated during run
 non-spin polarized calculation
 Variant of blocked Davidson
 Davidson routine will perform the subspace rotation
 perform sub-space diagonalisation
    after iterative eigenvector-optimisation
 modified Broyden-mixing scheme, WC =      100.0
 initial mixing is a Kerker type mixing with AMIX =  0.4000 and BMIX =      1.0000
 Hartree-type preconditioning will be used
 using additional bands            4
 reciprocal scheme for non local part
 use partial core corrections
 calculate Harris-corrections to forces 
   (improved forces if not selfconsistent)
 use gradient corrections 
 use of overlap-Matrix (Vanderbilt PP)
 Gauss-broadening in eV      SIGMA  =   0.05


--------------------------------------------------------------------------------------------------------


  energy-cutoff  :      350.00
  volume of cell :       40.33
      direct lattice vectors                 reciprocal lattice vectors
     3.333573000  0.000000000  1.924639000     0.299978432 -0.106058350  0.000000000
     1.111191000  3.142924000  1.924639000     0.000000000  0.318175050  0.000000000
     0.000000000  0.000000000  3.849278000    -0.149989216 -0.106058350  0.259788979

  length of vectors
     3.849278403  3.849279412  3.849278000     0.318175161  0.318175050  0.318175190


 
 k-points in units of 2pi/SCALE and weight: Automatic                               
   0.01249910  0.00883820  0.02164908       0.009
   0.06249551 -0.00883820  0.02164908       0.028
   0.11249191 -0.02651459  0.02164908       0.028
  -0.13749011  0.06186737  0.02164908       0.028
  -0.08749371  0.04419098  0.02164908       0.028
  -0.03749730  0.02651459  0.02164908       0.028
   0.06249551  0.04419098  0.02164908       0.028
   0.11249191  0.02651459  0.02164908       0.056
  -0.13749011  0.11489655  0.02164908       0.056
  -0.08749371  0.09722015  0.02164908       0.056
  -0.03749730  0.07954376  0.02164908       0.056
   0.11249191  0.07954376  0.02164908       0.028
  -0.13749011  0.16792572  0.02164908       0.056
  -0.08749371  0.15024933  0.02164908       0.056
  -0.03749730  0.13257294  0.02164908       0.056
  -0.13749011 -0.09722015  0.02164908       0.028
  -0.08749371 -0.11489655  0.02164908       0.056
  -0.08749371 -0.06186737  0.02164908       0.028
   0.03749730  0.02651459  0.06494724       0.009
   0.08749371  0.00883820  0.06494724       0.028
  -0.16248832  0.09722015  0.06494724       0.028
  -0.11249191  0.07954376  0.06494724       0.028
   0.08749371  0.06186737  0.06494724       0.028
  -0.16248832  0.15024933  0.06494724       0.056
  -0.11249191  0.13257294  0.06494724       0.056
  -0.16248832 -0.11489655  0.06494724       0.028
   0.06249551  0.04419098  0.10824541       0.009
  -0.18748652  0.13257294  0.10824541       0.028
 
 k-points in reciprocal lattice and weights: Automatic                               
   0.08333333  0.08333333  0.08333333       0.009
   0.25000000  0.08333333  0.08333333       0.028
   0.41666667  0.08333333  0.08333333       0.028
  -0.41666667  0.08333333  0.08333333       0.028
  -0.25000000  0.08333333  0.08333333       0.028
  -0.08333333  0.08333333  0.08333333       0.028
   0.25000000  0.25000000  0.08333333       0.028
   0.41666667  0.25000000  0.08333333       0.056
  -0.41666667  0.25000000  0.08333333       0.056
  -0.25000000  0.25000000  0.08333333       0.056
  -0.08333333  0.25000000  0.08333333       0.056
   0.41666667  0.41666667  0.08333333       0.028
  -0.41666667  0.41666667  0.08333333       0.056
  -0.25000000  0.41666667  0.08333333       0.056
  -0.08333333  0.41666667  0.08333333       0.056
  -0.41666667 -0.41666667  0.08333333       0.028
  -0.25000000 -0.41666667  0.08333333       0.056
  -0.25000000 -0.25000000  0.08333333       0.028
   0.25000000  0.25000000  0.25000000       0.009
   0.41666667  0.25000000  0.25000000       0.028
  -0.41666667  0.25000000  0.25000000       0.028
  -0.25000000  0.25000000  0.25000000       0.028
   0.41666667  0.41666667  0.25000000       0.028
  -0.41666667  0.41666667  0.25000000       0.056
  -0.25000000  0.41666667  0.25000000       0.056
  -0.41666667 -0.41666667  0.25000000       0.028
   0.41666667  0.41666667  0.41666667       0.009
  -0.41666667  0.41666667  0.41666667       0.028
 
 position of ions in fractional coordinates (direct lattice) 
   0.87500000  0.87500000  0.87500000
   0.12500000  0.12500000  0.12500000
 
 position of ions in cartesian coordinates  (Angst):
   3.88916850  2.75005850  6.73623650
   0.55559550  0.39286550  0.96231950
 


--------------------------------------------------------------------------------------------------------


 k-point   1 :   0.0833 0.0833 0.0833  plane waves:     585
 k-point   2 :   0.2500 0.0833 0.0833  plane waves:     591
 k-point   3 :   0.4167 0.0833 0.0833  plane waves:     604
 k-point   4 :  -0.4167 0.0833 0.0833  plane waves:     596
 k-point   5 :  -0.2500 0.0833 0.0833  plane waves:     599
 k-point   6 :  -0.0833 0.0833 0.0833  plane waves:     587
 k-point   7 :   0.2500 0.2500 0.0833  plane waves:     590
 k-point   8 :   0.4167 0.2500 0.0833  plane waves:     602
 k-point   9 :  -0.4167 0.2500 0.0833  plane waves:     598
 k-point  10 :  -0.2500 0.2500 0.0833  plane waves:     600
 k-point  11 :  -0.0833 0.2500 0.0833  plane waves:     598
 k-point  12 :   0.4167 0.4167 0.0833  plane waves:     601
 k-point  13 :  -0.4167 0.4167 0.0833  plane waves:     606
 k-point  14 :  -0.2500 0.4167 0.0833  plane waves:     600
 k-point  15 :  -0.0833 0.4167 0.0833  plane waves:     597
 k-point  16 :  -0.4167-0.4167 0.0833  plane waves:     608
 k-point  17 :  -0.2500-0.4167 0.0833  plane waves:     598
 k-point  18 :  -0.2500-0.2500 0.0833  plane waves:     599
 k-point  19 :   0.2500 0.2500 0.2500  plane waves:     595
 k-point  20 :   0.4167 0.2500 0.2500  plane waves:     601
 k-point  21 :  -0.4167 0.2500 0.2500  plane waves:     599
 k-point  22 :  -0.2500 0.2500 0.2500  plane waves:     602
 k-point  23 :   0.4167 0.4167 0.2500  plane waves:     599
 k-point  24 :  -0.4167 0.4167 0.2500  plane waves:     600
 k-point  25 :  -0.2500 0.4167 0.2500  plane waves:     604
 k-point  26 :  -0.4167-0.4167 0.2500  plane waves:     602
 k-point  27 :   0.4167 0.4167 0.4167  plane waves:     601
 k-point  28 :  -0.4167 0.4167 0.4167  plane waves:     599

 maximum and minimum number of plane-waves per node :       608      585

 maximum number of plane-waves:       608
 maximum index in each direction: 
   IXMAX=    6   IYMAX=    6   IZMAX=    5
   IXMIN=   -6   IYMIN=   -6   IZMIN=   -6


 serial   3D FFT for wavefunctions
 parallel 3D FFT for charge:
    minimum data exchange during FFTs selected (reduces bandwidth)


 total amount of memory used by VASP MPI-rank0    37776. kBytes
=======================================================================

   base      :      30000. kBytes
   nonl-proj :       1108. kBytes
   fftplans  :       4177. kBytes
   grid      :       1926. kBytes
   one-center:          6. kBytes
   wavefun   :        559. kBytes
 
     INWAV:  cpu time    0.0000: real time    0.0008
 Broyden mixing: mesh for mixing (old mesh)
   NGX = 11   NGY = 11   NGZ = 11
  (NGX  = 48   NGY  = 48   NGZ  = 48)
  gives a total of   1331 points

 initial charge density was supplied:
 charge density of overlapping atoms calculated
 number of electron       8.0000000 magnetization 
 keeping initial charge density in first step


--------------------------------------------------------------------------------------------------------


 Maximum index for augmentation-charges        22271 (set IRDMAX)


--------------------------------------------------------------------------------------------------------


 First call to EWALD:  gamma=   0.517
 Maximum number of real-space cells 3x 3x 3
 Maximum number of reciprocal cells 3x 3x 3

    FEWALD:  cpu time    0.0030: real time    0.0036


--------------------------------------- Iteration      1(   1)  ---------------------------------------


    POTLOK:  cpu time    0.0320: real time    0.0350
    SETDIJ:  cpu time    0.1790: real time    0.1793
     EDDAV:  cpu time    0.2390: real time    0.2394
       DOS:  cpu time    0.0000: real time    0.0013
    --------------------------------------------
      LOOP:  cpu time    0.4509: real time    0.4552

 eigenvalue-minimisations  :   464
 total energy-change (2. order) : 0.2202749E+01  (-0.2574887E+03)
 number of electron       8.0000000 magnetization 
 augmentation part        8.0000000 magnetization 

 Free energy of the ion-electron system (eV)
  ---------------------------------------------------
  alpha Z        PSCENC =         3.33880741
  Ewald energy   TEWEN  =      -227.98820643
  -Hartree energ DENC   =       -11.11484531
  -exchange      EXHF   =         0.00000000
  -V(xc)+E(xc)   XCENC  =       -18.63153637
  PAW double counting   =       176.24759923     -141.06103558
  entropy T*S    EENTRO =        -0.00010645
  eigenvalues    EBANDS =        15.28081856
  atomic energy  EATOM  =       206.13125414
  Solvation  Ediel_sol  =         0.00000000
  ---------------------------------------------------
  free energy    TOTEN  =         2.20274920 eV

  energy without entropy =        2.20285564  energy(sigma->0) =        2.20280242


--------------------------------------------------------------------------------------------------------




--------------------------------------- Iteration      1(   2)  ---------------------------------------


     EDDAV:  cpu time    0.3340: real time    0.3467
       DOS:  cpu time    0.0000: real time    0.0009
    --------------------------------------------
      LOOP:  cpu time    0.3330: real time    0.3476

 eigenvalue-minimisations  :   688
 total energy-change (2. order) :-0.1307775E+02  (-0.1290094E+02)
 number of electron       8.0000000 magnetization 
 augmentation part        8.0000000 magnetization 

 Free energy of the ion-electron system (eV)
  ---------------------------------------------------
  alpha Z        PSCENC =         3.33880741
  Ewald energy   TEWEN  =      -227.98820643
  -Hartree energ DENC   =       -11.11484531
  -exchange      EXHF   =         0.00000000
  -V(xc)+E(xc)   XCENC  =       -18.63153637
  PAW double counting   =       176.24759923     -141.06103558
  entropy T*S    EENTRO =        -0.00000000
  eigenvalues    EBANDS =         2.20296182
  atomic energy  EATOM  =       206.13125414
  Solvation  Ediel_sol  =         0.00000000
  ---------------------------------------------------
  free energy    TOTEN  =       -10.87500110 eV

  energy without entropy =      -10.87500110  energy(sigma->0) =      -10.87500110


--------------------------------------------------------------------------------------------------------




--------------------------------------- Iteration      1(   3)  ---------------------------------------


     EDDAV:  cpu time    0.2850: real time    0.2927
       DOS:  cpu time    0.0010: real time    0.0008
    --------------------------------------------
      LOOP:  cpu time    0.2860: real time    0.2935

 eigenvalue-minimisations  :   568
 total energy-change (2. order) :-0.1457576E+00  (-0.1457577E+00)
 number of electron       8.0000000 magnetization 
 augmentation part        8.0000000 magnetization 

 Free energy of the ion-electron system (eV)
  ---------------------------------------------------
  alpha Z        PSCENC =         3.33880741
  Ewald energy   TEWEN  =      -227.98820643
  -Hartree energ DENC   =       -11.11484531
  -exchange      EXHF   =         0.00000000
  -V(xc)+E(xc)   XCENC  =       -18.63153637
  PAW double counting   =       176.24759923     -141.06103558
  entropy T*S    EENTRO =        -0.00000000
  eigenvalues    EBANDS =         2.05720417
  atomic energy  EATOM  =       206.13125414
  Solvation  Ediel_sol  =         0.00000000
  ---------------------------------------------------
  free energy    TOTEN  =       -11.02075875 eV

  energy without entropy =      -11.02075875  energy(sigma->0) =      -11.02075875


--------------------------------------------------------------------------------------------------------




--------------------------------------- Iteration      1(   4)  ---------------------------------------


     EDDAV:  cpu time    0.3439: real time    0.3510
       DOS:  cpu time    0.0000: real time    0.0009
    --------------------------------------------
      LOOP:  cpu time    0.3449: real time    0.3519

 eigenvalue-minimisations  :   704
 total energy-change (2. order) :-0.6350106E-03  (-0.6350106E-03)
 number of electron       8.0000000 magnetization 
 augmentation part        8.0000000 magnetization 

 Free energy of the ion-electron system (eV)
  ---------------------------------------------------
  alpha Z        PSCENC =         3.33880741
  Ewald energy   TEWEN  =      -227.98820643
  -Hartree energ DENC   =       -11.11484531
  -exchange      EXHF   =         0.00000000
  -V(xc)+E(xc)   XCENC  =       -18.63153637
  PAW double counting   =       176.24759923     -141.06103558
  entropy T*S    EENTRO =        -0.00000000
  eigenvalues    EBANDS =         2.05656916
  atomic energy  EATOM  =       206.13125414
  Solvation  Ediel_sol  =         0.00000000
  ---------------------------------------------------
  free energy    TOTEN  =       -11.02139376 eV

  energy without entropy =      -11.02139376  energy(sigma->0) =      -11.02139376


--------------------------------------------------------------------------------------------------------




--------------------------------------- Iteration      1(   5)  ---------------------------------------


     EDDAV:  cpu time    0.2980: real time    0.3052
       DOS:  cpu time    0.0010: real time    0.0008
    CHARGE:  cpu time    0.0400: real time    0.0400
    MIXING:  cpu time    0.0010: real time    0.0013
    --------------------------------------------
      LOOP:  cpu time    0.3389: real time    0.3473

 eigenvalue-minimisations  :   608
 total energy-change (2. order) :-0.1093003E-05  (-0.1092750E-05)
 number of electron       8.0000000 magnetization 
 augmentation part       -0.4703743 magnetization 

 Broyden mixing:
  rms(total) = 0.48591E+00    rms(broyden)= 0.48590E+00
  rms(prec ) = 0.94661E+00
  weight for this iteration     100.00

 Free energy of the ion-electron system (eV)
  ---------------------------------------------------
  alpha Z        PSCENC =         3.33880741
  Ewald energy   TEWEN  =      -227.98820643
  -Hartree energ DENC   =       -11.11484531
  -exchange      EXHF   =         0.00000000
  -V(xc)+E(xc)   XCENC  =       -18.63153637
  PAW double counting   =       176.24759923     -141.06103558
  entropy T*S    EENTRO =        -0.00000000
  eigenvalues    EBANDS =         2.05656806
  atomic energy  EATOM  =       206.13125414
  Solvation  Ediel_sol  =         0.00000000
  ---------------------------------------------------
  free energy    TOTEN  =       -11.02139485 eV

  energy without entropy =      -11.02139485  energy(sigma->0) =      -11.02139485


--------------------------------------------------------------------------------------------------------




--------------------------------------- Iteration      1(   6)  ---------------------------------------


    POTLOK:  cpu time    0.0320: real time    0.0502
    SETDIJ:  cpu time    0.1760: real time    0.1753
     EDDAV:  cpu time    0.2710: real time    0.2723
       DOS:  cpu time    0.0010: real time    0.0007
    CHARGE:  cpu time    0.0340: real time    0.0343
    MIXING:  cpu time    0.0010: real time    0.0028
    --------------------------------------------
      LOOP:  cpu time    0.5159: real time    0.5359

 eigenvalue-minimisations  :   560
 total energy-change (2. order) : 0.1215213E+00  (-0.8002972E-02)
 number of electron       8.0000000 magnetization 
 augmentation part       -0.4646184 magnetization 

 Broyden mixing:
  rms(total) = 0.29725E+00    rms(broyden)= 0.29725E+00
  rms(prec ) = 0.56299E+00
  weight for this iteration     100.00

 eigenvalues of (default mixing * dielectric matrix)
  average eigenvalue GAMMA=   2.5662
  2.5662

 Free energy of the ion-electron system (eV)
  ---------------------------------------------------
  alpha Z        PSCENC =         3.33880741
  Ewald energy   TEWEN  =      -227.98820643
  -Hartree energ DENC   =       -12.60009692
  -exchange      EXHF   =         0.00000000
  -V(xc)+E(xc)   XCENC  =       -18.39629511
  PAW double counting   =       378.74947383     -343.67096093
  entropy T*S    EENTRO =        -0.00000000
  eigenvalues    EBANDS =         3.53615042
  atomic energy  EATOM  =       206.13125414
  Solvation  Ediel_sol  =         0.00000000
  ---------------------------------------------------
  free energy    TOTEN  =       -10.89987358 eV

  energy without entropy =      -10.89987358  energy(sigma->0) =      -10.89987358


--------------------------------------------------------------------------------------------------------




--------------------------------------- Iteration      1(   7)  ---------------------------------------


    POTLOK:  cpu time    0.0330: real time    0.0417
    SETDIJ:  cpu time    0.1730: real time    0.1731
     EDDAV:  cpu time    0.2770: real time    0.2785
       DOS:  cpu time    0.0010: real time    0.0009
    CHARGE:  cpu time    0.0340: real time    0.0344
    MIXING:  cpu time    0.0010: real time    0.0014
    --------------------------------------------
      LOOP:  cpu time    0.5189: real time    0.5298

 eigenvalue-minimisations  :   576
 total energy-change (2. order) : 0.5555543E-01  (-0.1520246E-01)
 number of electron       8.0000000 magnetization 
 augmentation part       -0.4576066 magnetization 

 Broyden mixing:
  rms(total) = 0.18633E-01    rms(broyden)= 0.18633E-01
  rms(prec ) = 0.41299E-01
  weight for this iteration     100.00

 eigenvalues of (default mixing * dielectric matrix)
  average eigenvalue GAMMA=   2.0601
  1.7283  2.3918

 Free energy of the ion-electron system (eV)
  ---------------------------------------------------
  alpha Z        PSCENC =         3.33880741
  Ewald energy   TEWEN  =      -227.98820643
  -Hartree energ DENC   =       -15.02731065
  -exchange      EXHF   =         0.00000000
  -V(xc)+E(xc)   XCENC  =       -18.00430862
  PAW double counting   =       862.86470241     -827.92596817
  entropy T*S    EENTRO =        -0.00000000
  eigenvalues    EBANDS =         5.76671176
  atomic energy  EATOM  =       206.13125414
  Solvation  Ediel_sol  =         0.00000000
  ---------------------------------------------------
  free energy    TOTEN  =       -10.84431815 eV

  energy without entropy =      -10.84431815  energy(sigma->0) =      -10.84431815


--------------------------------------------------------------------------------------------------------




--------------------------------------- Iteration      1(   8)  ---------------------------------------


    POTLOK:  cpu time    0.0320: real time    0.0447
    SETDIJ:  cpu time    0.1730: real time    0.1728
     EDDAV:  cpu time    0.2500: real time    0.2511
       DOS:  cpu time    0.0010: real time    0.0007
    CHARGE:  cpu time    0.0350: real time    0.0360
    MIXING:  cpu time    0.0020: real time    0.0016
    --------------------------------------------
      LOOP:  cpu time    0.4919: real time    0.5069

 eigenvalue-minimisations  :   496
 total energy-change (2. order) :-0.1062323E-02  (-0.3848295E-03)
 number of electron       8.0000000 magnetization 
 augmentation part       -0.4585739 magnetization 

 Broyden mixing:
  rms(total) = 0.74089E-02    rms(broyden)= 0.74086E-02
  rms(prec ) = 0.13142E-01
  weight for this iteration     100.00

 eigenvalues of (default mixing * dielectric matrix)
  average eigenvalue GAMMA=   2.2382
  2.8130  1.9508  1.9508

 Free energy of the ion-electron system (eV)
  ---------------------------------------------------
  alpha Z        PSCENC =         3.33880741
  Ewald energy   TEWEN  =      -227.98820643
  -Hartree energ DENC   =       -14.95578405
  -exchange      EXHF   =         0.00000000
  -V(xc)+E(xc)   XCENC  =       -18.00426963
  PAW double counting   =       872.76448964     -837.79900978
  entropy T*S    EENTRO =        -0.00000000
  eigenvalues    EBANDS =         5.66733821
  atomic energy  EATOM  =       206.13125414
  Solvation  Ediel_sol  =         0.00000000
  ---------------------------------------------------
  free energy    TOTEN  =       -10.84538048 eV

  energy without entropy =      -10.84538048  energy(sigma->0) =      -10.84538048


--------------------------------------------------------------------------------------------------------




--------------------------------------- Iteration      1(   9)  ---------------------------------------


    POTLOK:  cpu time    0.0330: real time    0.0414
    SETDIJ:  cpu time    0.1790: real time    0.1786
     EDDAV:  cpu time    0.3489: real time    0.3504
       DOS:  cpu time    0.0010: real time    0.0008
    CHARGE:  cpu time    0.0330: real time    0.0344
    MIXING:  cpu time    0.0020: real time    0.0014
    --------------------------------------------
      LOOP:  cpu time    0.5969: real time    0.6071

 eigenvalue-minimisations  :   720
 total energy-change (2. order) :-0.1931940E-03  (-0.1923899E-04)
 number of electron       8.0000000 magnetization 
 augmentation part       -0.4586931 magnetization 

 Broyden mixing:
  rms(total) = 0.56911E-02    rms(broyden)= 0.56911E-02
  rms(prec ) = 0.65714E-02
  weight for this iteration     100.00

 eigenvalues of (default mixing * dielectric matrix)
  average eigenvalue GAMMA=   2.1217
  0.9515  2.6116  2.6116  2.3120

 Free energy of the ion-electron system (eV)
  ---------------------------------------------------
  alpha Z        PSCENC =         3.33880741
  Ewald energy   TEWEN  =      -227.98820643
  -Hartree energ DENC   =       -14.99847848
  -exchange      EXHF   =         0.00000000
  -V(xc)+E(xc)   XCENC  =       -17.99591316
  PAW double counting   =       874.98659274     -840.01876293
  entropy T*S    EENTRO =        -0.00000000
  eigenvalues    EBANDS =         5.69913303
  atomic energy  EATOM  =       206.13125414
  Solvation  Ediel_sol  =         0.00000000
  ---------------------------------------------------
  free energy    TOTEN  =       -10.84557367 eV

  energy without entropy =      -10.84557367  energy(sigma->0) =      -10.84557367


--------------------------------------------------------------------------------------------------------




--------------------------------------- Iteration      1(  10)  ---------------------------------------


    POTLOK:  cpu time    0.0330: real time    0.0462
    SETDIJ:  cpu time    0.1870: real time    0.1882
     EDDAV:  cpu time    0.2900: real time    0.2897
       DOS:  cpu time    0.0010: real time    0.0008
    CHARGE:  cpu time    0.0340: real time    0.0340
    MIXING:  cpu time    0.0010: real time    0.0014
    --------------------------------------------
      LOOP:  cpu time    0.5459: real time    0.5601

 eigenvalue-minimisations  :   528
 total energy-change (2. order) :-0.2592788E-04  (-0.3126756E-05)
 number of electron       8.0000000 magnetization 
 augmentation part       -0.4586702 magnetization 

 Broyden mixing:
  rms(total) = 0.10555E-02    rms(broyden)= 0.10555E-02
  rms(prec ) = 0.11297E-02
  weight for this iteration     100.00

 eigenvalues of (default mixing * dielectric matrix)
  average eigenvalue GAMMA=   1.9094
  2.8919  2.4489  2.0564  1.0749  1.0749

 Free energy of the ion-electron system (eV)
  ---------------------------------------------------
  alpha Z        PSCENC =         3.33880741
  Ewald energy   TEWEN  =      -227.98820643
  -Hartree energ DENC   =       -15.00605662
  -exchange      EXHF   =         0.00000000
  -V(xc)+E(xc)   XCENC  =       -17.99563784
  PAW double counting   =       863.24554839     -828.27756231
  entropy T*S    EENTRO =        -0.00000000
  eigenvalues    EBANDS =         5.70625366
  atomic energy  EATOM  =       206.13125414
  Solvation  Ediel_sol  =         0.00000000
  ---------------------------------------------------
  free energy    TOTEN  =       -10.84559960 eV

  energy without entropy =      -10.84559960  energy(sigma->0) =      -10.84559960


--------------------------------------------------------------------------------------------------------




--------------------------------------- Iteration      1(  11)  ---------------------------------------


    POTLOK:  cpu time    0.0310: real time    0.0404
    SETDIJ:  cpu time    0.1780: real time    0.1775
     EDDAV:  cpu time    0.3170: real time    0.3183
       DOS:  cpu time    0.0010: real time    0.0006
    --------------------------------------------
      LOOP:  cpu time    0.5279: real time    0.5369

 eigenvalue-minimisations  :   632
 total energy-change (2. order) : 0.3489156E-06  (-0.5147523E-07)
 number of electron       8.0000000 magnetization 
 augmentation part       -0.4586702 magnetization 

 Free energy of the ion-electron system (eV)
  ---------------------------------------------------
  alpha Z        PSCENC =         3.33880741
  Ewald energy   TEWEN  =      -227.98820643
  -Hartree energ DENC   =       -15.00477505
  -exchange      EXHF   =         0.00000000
  -V(xc)+E(xc)   XCENC  =       -17.99566008
  PAW double counting   =       864.82117243     -829.85274108
  entropy T*S    EENTRO =        -0.00000000
  eigenvalues    EBANDS =         5.70454941
  atomic energy  EATOM  =       206.13125414
  Solvation  Ediel_sol  =         0.00000000
  ---------------------------------------------------
  free energy    TOTEN  =       -10.84559925 eV

  energy without entropy =      -10.84559925  energy(sigma->0) =      -10.84559925


--------------------------------------------------------------------------------------------------------




 average (electrostatic) potential at core
  the test charge radii are     0.9892
  (the norm of the test charge is              1.0000)
       1 -83.3297       2 -83.3297
 
 
 
 E-fermi :   5.8727     XC(G=0):  -9.3816     alpha+bet :-11.8943

 Fermi energy:         5.8726554416

 k-point     1 :       0.0833    0.0833    0.0833
  band No.  band energies     occupation 
      1      -6.0646      2.00000
      2       4.8966      2.00000
      3       5.6116      2.00000
      4       5.6116      2.00000
      5       8.3505      0.00000
      6       8.5276      0.00000
      7       8.5276      0.00000
      8       9.7191      0.00000

 k-point     2 :       0.2500    0.0833    0.0833
  band No.  band energies     occupation 
      1      -5.5893      2.00000
      2       2.8197      2.00000
      3       4.3793      2.00000
      4       5.4023      2.00000
      5       8.4512      0.00000
      6       8.9222      0.00000
      7       9.2775      0.00000
      8      11.4553      0.00000

 k-point     3 :       0.4167    0.0833    0.0833
  band No.  band energies     occupation 
      1      -4.5003      2.00000
      2       0.0636      2.00000
      3       3.9163      2.00000
      4       4.7672      2.00000
      5       7.9417      0.00000
      6       9.3074      0.00000
      7       9.3471      0.00000
      8      13.2155      0.00000

 k-point     4 :      -0.4167    0.0833    0.0833
  band No.  band energies     occupation 
      1      -3.8043      2.00000
      2      -1.0773      2.00000
      3       3.9827      2.00000
      4       4.3877      2.00000
      5       7.7836      0.00000
      6       9.0244      0.00000
      7       9.4514      0.00000
      8      13.6597      0.00000

 k-point     5 :      -0.2500    0.0833    0.0833
  band No.  band energies     occupation 
      1      -4.9108      2.00000
      2       0.9081      2.00000
      3       4.4472      2.00000
      4       4.4806      2.00000
      5       8.0323      0.00000
      6       9.0483      0.00000
      7       9.8395      0.00000
      8      11.7147      0.00000

 k-point     6 :      -0.0833    0.0833    0.0833
  band No.  band energies     occupation 
      1      -5.8246      2.00000
      2       3.8295      2.00000
      3       4.9674      2.00000
      4       5.1537      2.00000
      5       8.0658      0.00000
      6       8.9609      0.00000
      7       9.4270      0.00000
      8      10.6118      0.00000

 k-point     7 :       0.2500    0.2500    0.0833
  band No.  band energies     occupation 
      1      -5.3488      2.00000
      2       2.6323      2.00000
      3       4.2244      2.00000
      4       4.2394      2.00000
      5       7.4836      0.00000
      6       9.6377      0.00000
      7      10.4267      0.00000
      8      10.6474      0.00000

 k-point     8 :       0.4167    0.2500    0.0833
  band No.  band energies     occupation 
      1      -4.4410      2.00000
      2       0.7962      2.00000
      3       2.9090      2.00000
      4       3.8536      2.00000
      5       7.8807      0.00000
      6       9.5008      0.00000
      7      10.3000      0.00000
      8      11.7571      0.00000

 k-point     9 :      -0.4167    0.2500    0.0833
  band No.  band energies     occupation 
      1      -3.3282      2.00000
      2      -0.9500      2.00000
      3       2.3085      2.00000
      4       3.6270      2.00000
      5       8.1287      0.00000
      6       9.6831      0.00000
      7      11.6332      0.00000
      8      12.0161      0.00000

 k-point    10 :      -0.2500    0.2500    0.0833
  band No.  band energies     occupation 
      1      -4.0477      2.00000
      2       0.1050      2.00000
      3       2.2670      2.00000
      4       4.1123      2.00000
      5       8.7293      0.00000
      6       9.3558      0.00000
      7      11.0324      0.00000
      8      11.5067      0.00000

 k-point    11 :      -0.0833    0.2500    0.0833
  band No.  band energies     occupation 
      1      -5.1240      2.00000
      2       1.7970      2.00000
      3       3.6044      2.00000
      4       4.7789      2.00000
      5       8.3699      0.00000
      6       9.2501      0.00000
      7      10.3058      0.00000
      8      10.6473      0.00000

 k-point    12 :       0.4167    0.4167    0.0833
  band No.  band energies     occupation 
      1      -3.7313      2.00000
      2      -0.0294      2.00000
      3       2.8738      2.00000
      4       3.2134      2.00000
      5       6.6558      0.00000
      6       7.6276      0.00000
      7      13.3097      0.00000
      8      13.3616      0.00000

 k-point    13 :      -0.4167    0.4167    0.0833
  band No.  band energies     occupation 
      1      -2.5388      2.00000
      2      -1.3664      2.00000
      3       2.0334      2.00000
      4       2.8074      2.00000
      5       7.2778      0.00000
      6       8.3984      0.00000
      7      12.8491      0.00000
      8      14.3230      0.00000

 k-point    14 :      -0.2500    0.4167    0.0833
  band No.  band energies     occupation 
      1      -2.9092      2.00000
      2      -1.0311      2.00000
      3       1.5510      2.00000
      4       3.3516      2.00000
      5       7.8966      0.00000
      6      10.8025      0.00000
      7      11.7910      0.00000
      8      12.4651      0.00000

 k-point    15 :      -0.0833    0.4167    0.0833
  band No.  band energies     occupation 
      1      -3.9362      2.00000
      2      -0.5776      2.00000
      3       3.2069      2.00000
      4       4.2101      2.00000
      5       8.3451      0.00000
      6       8.9594      0.00000
      7      10.2856      0.00000
      8      12.4994      0.00000

 k-point    16 :      -0.4167   -0.4167    0.0833
  band No.  band energies     occupation 
      1      -2.6302      2.00000
      2      -1.3744      2.00000
      3       2.6049      2.00000
      4       2.9986      2.00000
      5       6.5420      0.00000
      6       7.1081      0.00000
      7      14.7918      0.00000
      8      14.8860      0.00000

 k-point    17 :      -0.2500   -0.4167    0.0833
  band No.  band energies     occupation 
      1      -3.5633      2.00000
      2      -0.2522      2.00000
      3       2.3542      2.00000
      4       3.1470      2.00000
      5       7.4886      0.00000
      6       8.7663      0.00000
      7      11.4962      0.00000
      8      13.3075      0.00000

 k-point    18 :      -0.2500   -0.2500    0.0833
  band No.  band energies     occupation 
      1      -4.6459      2.00000
      2       1.3336      2.00000
      3       3.4172      2.00000
      4       3.6345      2.00000
      5       6.9770      0.00000
      6       8.5401      0.00000
      7      11.7738      0.00000
      8      11.9726      0.00000

 k-point    19 :       0.2500    0.2500    0.2500
  band No.  band energies     occupation 
      1      -5.3604      2.00000
      2       1.8427      2.00000
      3       4.9998      2.00000
      4       4.9998      2.00000
      5       7.7616      0.00000
      6       9.2573      0.00000
      7       9.2573      0.00000
      8      12.6181      0.00000

 k-point    20 :       0.4167    0.2500    0.2500
  band No.  band energies     occupation 
      1      -4.6832      2.00000
      2       0.9109      2.00000
      3       2.8729      2.00000
      4       4.8311      2.00000
      5       8.5261      0.00000
      6       9.7510      0.00000
      7       9.9203      0.00000
      8      11.8598      0.00000

 k-point    21 :      -0.4167    0.2500    0.2500
  band No.  band energies     occupation 
      1      -3.5078      2.00000
      2      -0.5273      2.00000
      3       1.7685      2.00000
      4       4.0468      2.00000
      5       7.7822      0.00000
      6      11.0658      0.00000
      7      11.1738      0.00000
      8      12.9048      0.00000

 k-point    22 :      -0.2500    0.2500    0.2500
  band No.  band energies     occupation 
      1      -3.4556      2.00000
      2      -0.6064      2.00000
      3       2.2461      2.00000
      4       3.5659      2.00000
      5       7.2837      0.00000
      6      10.1989      0.00000
      7      11.4679      0.00000
      8      11.6619      0.00000

 k-point    23 :       0.4167    0.4167    0.2500
  band No.  band energies     occupation 
      1      -4.2605      2.00000
      2       0.1051      2.00000
      3       3.3366      2.00000
      4       3.9381      2.00000
      5       7.7676      0.00000
      6       9.9925      0.00000
      7      10.6422      0.00000
      8      10.7978      0.00000

 k-point    24 :      -0.4167    0.4167    0.2500
  band No.  band energies     occupation 
      1      -3.2613      2.00000
      2      -0.6404      2.00000
      3       1.8684      2.00000
      4       3.1445      2.00000
      5       8.9815      0.00000
      6       9.5159      0.00000
      7      10.4972      0.00000
      8      13.2230      0.00000

 k-point    25 :      -0.2500    0.4167    0.2500
  band No.  band energies     occupation 
      1      -2.4326      2.00000
      2      -1.3742      2.00000
      3       1.7047      2.00000
      4       2.4785      2.00000
      5       8.7791      0.00000
      6      10.0393      0.00000
      7      10.8454      0.00000
      8      12.2291      0.00000

 k-point    26 :      -0.4167   -0.4167    0.2500
  band No.  band energies     occupation 
      1      -2.6427      2.00000
      2      -1.2800      2.00000
      3       1.5787      2.00000
      4       3.3719      2.00000
      5       7.0062      0.00000
      6       9.9144      0.00000
      7      12.8335      0.00000
      8      13.0326      0.00000

 k-point    27 :       0.4167    0.4167    0.4167
  band No.  band energies     occupation 
      1      -4.1722      2.00000
      2      -0.6780      2.00000
      3       4.6126      2.00000
      4       4.6126      2.00000
      5       7.3266      0.00000
      6       9.1534      0.00000
      7       9.1534      0.00000
      8      13.5552      0.00000

 k-point    28 :      -0.4167    0.4167    0.4167
  band No.  band energies     occupation 
      1      -3.5692      2.00000
      2      -0.9796      2.00000
      3       2.7823      2.00000
      4       4.1733      2.00000
      5       7.9394      0.00000
      6       9.8081      0.00000
      7      10.1481      0.00000
      8      13.7072      0.00000


--------------------------------------------------------------------------------------------------------


 soft charge-density along one line, spin component           1
         0         1         2         3         4         5         6         7         8         9
 total charge-density along one line
 
 pseudopotential strength for first ion, spin component:           1
 18.422  25.702   0.000   0.000   0.000   0.000   0.000   0.000
 25.702  35.863   0.000   0.000   0.000   0.000   0.000   0.000
  0.000   0.000   4.179  -0.000  -0.000   7.788  -0.000  -0.000
  0.000   0.000  -0.000   4.179  -0.000  -0.000   7.788  -0.000
  0.000   0.000  -0.000  -0.000   4.179  -0.000  -0.000   7.788
  0.000   0.000   7.788  -0.000  -0.000  14.523  -0.000  -0.000
  0.000   0.000  -0.000   7.788  -0.000  -0.000  14.523  -0.000
  0.000   0.000  -0.000  -0.000   7.788  -0.000  -0.000  14.523
 total augmentation occupancy for first ion, spin component:           1
  5.642  -2.126   0.000   0.000   0.000   0.000   0.000  -0.000
 -2.126   0.916  -0.000  -0.000  -0.000  -0.000  -0.000  -0.000
 -0.000   0.000   2.988   0.000   0.000  -0.677  -0.000  -0.000
  0.000   0.000   0.000   2.988   0.000  -0.000  -0.677  -0.000
  0.000   0.000   0.000   0.000   2.988  -0.000  -0.000  -0.677
  0.000   0.000  -0.677  -0.000  -0.000   0.162   0.000   0.000
  0.000  -0.000  -0.000  -0.677  -0.000   0.000   0.162   0.000
 -0.000  -0.000  -0.000  -0.000  -0.677   0.000   0.000   0.162


------------------------ aborting loop because EDIFF is reached ----------------------------------------


    CHARGE:  cpu time    0.0350: real time    0.0361
    FORLOC:  cpu time    0.0010: real time    0.0018
    FORNL :  cpu time    0.1060: real time    0.1064
    STRESS:  cpu time    0.4649: real time    0.4660
    FORCOR:  cpu time    0.0350: real time    0.0351
    FORHAR:  cpu time    0.0060: real time    0.0062
    MIXING:  cpu time    0.0010: real time    0.0013
    OFIELD:  cpu time    0.0010: real time    0.0002

  FORCE on cell =-STRESS in cart. coord.  units (eV):
  Direction    XX          YY          ZZ          XY          YZ          ZX
  --------------------------------------------------------------------------------------
  Alpha Z     3.33881     3.33881     3.33881
  Ewald     -75.99608   -75.99616   -75.99607     0.00001     0.00000    -0.00000
  Hartree     5.00216     5.00216     5.00216     0.00000     0.00000     0.00000
  E(xc)     -25.32712   -25.32712   -25.32712    -0.00000    -0.00000    -0.00000
  Local     -29.34118   -29.34117   -29.34116    -0.00000     0.00001     0.00001
  n-local    75.49190    77.95460    79.73038    -0.69348    -1.58193     0.11710
  augment   -11.65197   -11.65197   -11.65198    -0.00000    -0.00001    -0.00001
  Kinetic    55.25685    56.81836    57.58923    -0.03230     0.42663    -1.05321
  Fock        0.00000     0.00000     0.00000     0.00000     0.00000     0.00000
  -------------------------------------------------------------------------------------
  Total       0.30503     0.30503     0.30503     0.00000    -0.00000    -0.00000
  in kB      12.11812    12.11813    12.11811     0.00000    -0.00000    -0.00000
  external pressure =       12.12 kB  Pullay stress =        0.00 kB


 VOLUME and BASIS-vectors are now :
 -----------------------------------------------------------------------------
  energy-cutoff  :      350.00
  volume of cell :       40.33
      direct lattice vectors                 reciprocal lattice vectors
     3.333573000  0.000000000  1.924639000     0.299978432 -0.106058350  0.000000000
     1.111191000  3.142924000  1.924639000     0.000000000  0.318175050  0.000000000
     0.000000000  0.000000000  3.849278000    -0.149989216 -0.106058350  0.259788979

  length of vectors
     3.849278403  3.849279412  3.849278000     0.318175161  0.318175050  0.318175190


 FORCES acting on ions
    electron-ion (+dipol)            ewald-force                    non-local-force                 convergence-correction
 -----------------------------------------------------------------------------------------------
   0.522E-05 0.243E-04 0.433E-07   -.892E-05 -.418E-04 0.782E-16   0.163E-16 0.304E-16 0.101E-15   0.645E-07 0.475E-07 0.111E-06
   -.522E-05 -.243E-04 -.433E-07   0.892E-05 0.418E-04 -.194E-15   -.308E-16 -.260E-16 -.118E-15   -.645E-07 -.475E-07 -.111E-06
 -----------------------------------------------------------------------------------------------
   0.425E-13 -.493E-13 0.126E-12   -.365E-15 -.270E-16 -.116E-15   -.145E-16 0.434E-17 -.173E-16   -.196E-16 0.379E-16 0.702E-16
 
 
 POSITION                                       TOTAL-FORCE (eV/Angst)
 -----------------------------------------------------------------------------------
      3.88917      2.75006      6.73624        -0.000000     -0.000000     -0.000000
      0.55560      0.39287      0.96232         0.000000      0.000000      0.000000
 -----------------------------------------------------------------------------------
    total drift:                                0.000000     -0.000000      0.000000


--------------------------------------------------------------------------------------------------------



  FREE ENERGIE OF THE ION-ELECTRON SYSTEM (eV)
  ---------------------------------------------------
  free  energy   TOTEN  =       -10.84559925 eV

  energy  without entropy=      -10.84559925  energy(sigma->0) =      -10.84559925
 


--------------------------------------------------------------------------------------------------------


    POTLOK:  cpu time    0.2070: real time    0.2149


--------------------------------------------------------------------------------------------------------




--------------------------------------------------------------------------------------------------------


    WAVPRE:  cpu time    0.0090: real time    0.0244
    FEWALD:  cpu time    0.0000: real time    0.0003
    GENKIN:  cpu time    0.0150: real time    0.0151
    ORTHCH:  cpu time    0.0070: real time    0.0071
     LOOP+:  cpu time    6.0381: real time    6.2404


--------------------------------------- Iteration      2(   1)  ---------------------------------------


    POTLOK:  cpu time    0.0300: real time    0.0343
    SETDIJ:  cpu time    0.1730: real time    0.1730
     EDDAV:  cpu time    0.2810: real time    0.2822
       DOS:  cpu time    0.0010: real time    0.0006
    CHARGE:  cpu time    0.0330: real time    0.0338
    MIXING:  cpu time    0.0020: real time    0.0015
    --------------------------------------------
      LOOP:  cpu time    0.5199: real time    0.5258

 eigenvalue-minimisations  :   576
 total energy-change (2. order) :-0.3770898E-02  (-0.1039019E-01)
 number of electron       8.0000000 magnetization 
 augmentation part       -0.4601463 magnetization 

 Broyden mixing:
  rms(total) = 0.30303E-01    rms(broyden)= 0.30302E-01
  rms(prec ) = 0.77558E-01
  weight for this iteration     100.00

 Free energy of the ion-electron system (eV)
  ---------------------------------------------------
  alpha Z        PSCENC =         3.26617979
  Ewald energy   TEWEN  =      -226.32296373
  -Hartree energ DENC   =       -14.89677732
  -exchange      EXHF   =         0.00000000
  -V(xc)+E(xc)   XCENC  =       -18.10311991
  PAW double counting   =       864.84243648     -829.87400737
  entropy T*S    EENTRO =        -0.00000000
  eigenvalues    EBANDS =         4.10762741
  atomic energy  EATOM  =       206.13125414
  Solvation  Ediel_sol  =         0.00000000
  ---------------------------------------------------
  free energy    TOTEN  =       -10.84937050 eV

  energy without entropy =      -10.84937050  energy(sigma->0) =      -10.84937050


--------------------------------------------------------------------------------------------------------




--------------------------------------- Iteration      2(   2)  ---------------------------------------


    POTLOK:  cpu time    0.0330: real time    0.0397
    SETDIJ:  cpu time    0.1720: real time    0.1732
     EDDAV:  cpu time    0.2850: real time    0.2849
       DOS:  cpu time    0.0010: real time    0.0007
    CHARGE:  cpu time    0.0320: real time    0.0334
    MIXING:  cpu time    0.0010: real time    0.0014
    --------------------------------------------
      LOOP:  cpu time    0.5249: real time    0.5333

 eigenvalue-minimisations  :   584
 total energy-change (2. order) : 0.1762563E-02  (-0.1459881E-03)
 number of electron       8.0000000 magnetization 
 augmentation part       -0.4595008 magnetization 

 Broyden mixing:
  rms(total) = 0.18234E-01    rms(broyden)= 0.18234E-01
  rms(prec ) = 0.44745E-01
  weight for this iteration     100.00

 eigenvalues of (default mixing * dielectric matrix)
  average eigenvalue GAMMA=   2.4762
  2.4762

 Free energy of the ion-electron system (eV)
  ---------------------------------------------------
  alpha Z        PSCENC =         3.26617979
  Ewald energy   TEWEN  =      -226.32296373
  -Hartree energ DENC   =       -15.05848989
  -exchange      EXHF   =         0.00000000
  -V(xc)+E(xc)   XCENC  =       -18.09792850
  PAW double counting   =       844.04503814     -809.07193506
  entropy T*S    EENTRO =        -0.00000000
  eigenvalues    EBANDS =         4.26123716
  atomic energy  EATOM  =       206.13125414
  Solvation  Ediel_sol  =         0.00000000
  ---------------------------------------------------
  free energy    TOTEN  =       -10.84760793 eV

  energy without entropy =      -10.84760793  energy(sigma->0) =      -10.84760793


--------------------------------------------------------------------------------------------------------




--------------------------------------- Iteration      2(   3)  ---------------------------------------


    POTLOK:  cpu time    0.0350: real time    0.0481
    SETDIJ:  cpu time    0.1730: real time    0.1729
     EDDAV:  cpu time    0.2700: real time    0.2696
       DOS:  cpu time    0.0000: real time    0.0007
    CHARGE:  cpu time    0.0330: real time    0.0340
    MIXING:  cpu time    0.0020: real time    0.0014
    --------------------------------------------
      LOOP:  cpu time    0.5129: real time    0.5266

 eigenvalue-minimisations  :   560
 total energy-change (2. order) : 0.9271254E-03  (-0.1911414E-03)
 number of electron       8.0000000 magnetization 
 augmentation part       -0.4582060 magnetization 

 Broyden mixing:
  rms(total) = 0.60861E-02    rms(broyden)= 0.60860E-02
  rms(prec ) = 0.67807E-02
  weight for this iteration     100.00

 eigenvalues of (default mixing * dielectric matrix)
  average eigenvalue GAMMA=   1.3449
  2.2534  0.4365

 Free energy of the ion-electron system (eV)
  ---------------------------------------------------
  alpha Z        PSCENC =         3.26617979
  Ewald energy   TEWEN  =      -226.32296373
  -Hartree energ DENC   =       -15.27229596
  -exchange      EXHF   =         0.00000000
  -V(xc)+E(xc)   XCENC  =       -18.09344252
  PAW double counting   =       813.77428711     -778.79166493
  entropy T*S    EENTRO =        -0.00000000
  eigenvalues    EBANDS =         4.46196529
  atomic energy  EATOM  =       206.13125414
  Solvation  Ediel_sol  =         0.00000000
  ---------------------------------------------------
  free energy    TOTEN  =       -10.84668081 eV

  energy without entropy =      -10.84668081  energy(sigma->0) =      -10.84668081


--------------------------------------------------------------------------------------------------------




--------------------------------------- Iteration      2(   4)  ---------------------------------------


    POTLOK:  cpu time    0.0320: real time    0.0395
    SETDIJ:  cpu time    0.1730: real time    0.1731
     EDDAV:  cpu time    0.3150: real time    0.3150
       DOS:  cpu time    0.0000: real time    0.0011
    CHARGE:  cpu time    0.0330: real time    0.0334
    MIXING:  cpu time    0.0000: real time    0.0015
    --------------------------------------------
      LOOP:  cpu time    0.5539: real time    0.5636

 eigenvalue-minimisations  :   664
 total energy-change (2. order) : 0.8013990E-07  (-0.1828768E-05)
 number of electron       8.0000000 magnetization 
 augmentation part       -0.4582099 magnetization 

 Broyden mixing:
  rms(total) = 0.54233E-02    rms(broyden)= 0.54233E-02
  rms(prec ) = 0.59760E-02
  weight for this iteration     100.00

 eigenvalues of (default mixing * dielectric matrix)
  average eigenvalue GAMMA=   1.8929
  2.5377  1.5705  1.5705

 Free energy of the ion-electron system (eV)
  ---------------------------------------------------
  alpha Z        PSCENC =         3.26617979
  Ewald energy   TEWEN  =      -226.32296373
  -Hartree energ DENC   =       -15.26870913
  -exchange      EXHF   =         0.00000000
  -V(xc)+E(xc)   XCENC  =       -18.09402268
  PAW double counting   =       816.14683719     -781.16336667
  entropy T*S    EENTRO =        -0.00000000
  eigenvalues    EBANDS =         4.45811034
  atomic energy  EATOM  =       206.13125414
  Solvation  Ediel_sol  =         0.00000000
  ---------------------------------------------------
  free energy    TOTEN  =       -10.84668073 eV

  energy without entropy =      -10.84668073  energy(sigma->0) =      -10.84668073


--------------------------------------------------------------------------------------------------------




--------------------------------------- Iteration      2(   5)  ---------------------------------------


    POTLOK:  cpu time    0.0330: real time    0.0499
    SETDIJ:  cpu time    0.1760: real time    0.1755
     EDDAV:  cpu time    0.2550: real time    0.2555
       DOS:  cpu time    0.0010: real time    0.0009
    CHARGE:  cpu time    0.0330: real time    0.0341
    MIXING:  cpu time    0.0020: real time    0.0017
    --------------------------------------------
      LOOP:  cpu time    0.4979: real time    0.5176

 eigenvalue-minimisations  :   520
 total energy-change (2. order) : 0.6386713E-05  (-0.4996997E-06)
 number of electron       8.0000000 magnetization 
 augmentation part       -0.4581927 magnetization 

 Broyden mixing:
  rms(total) = 0.11962E-02    rms(broyden)= 0.11962E-02
  rms(prec ) = 0.12225E-02
  weight for this iteration     100.00

 eigenvalues of (default mixing * dielectric matrix)
  average eigenvalue GAMMA=   1.7332
  2.6835  2.2388  1.0053  1.0053

 Free energy of the ion-electron system (eV)
  ---------------------------------------------------
  alpha Z        PSCENC =         3.26617979
  Ewald energy   TEWEN  =      -226.32296373
  -Hartree energ DENC   =       -15.26889926
  -exchange      EXHF   =         0.00000000
  -V(xc)+E(xc)   XCENC  =       -18.09591828
  PAW double counting   =       827.66096597     -792.67347640
  entropy T*S    EENTRO =        -0.00000000
  eigenvalues    EBANDS =         4.45618341
  atomic energy  EATOM  =       206.13125414
  Solvation  Ediel_sol  =         0.00000000
  ---------------------------------------------------
  free energy    TOTEN  =       -10.84667434 eV

  energy without entropy =      -10.84667434  energy(sigma->0) =      -10.84667434


--------------------------------------------------------------------------------------------------------




--------------------------------------- Iteration      2(   6)  ---------------------------------------


    POTLOK:  cpu time    0.0320: real time    0.0395
    SETDIJ:  cpu time    0.1740: real time    0.1735
     EDDAV:  cpu time    0.1810: real time    0.1825
       DOS:  cpu time    0.0010: real time    0.0006
    --------------------------------------------
      LOOP:  cpu time    0.3889: real time    0.3959

 eigenvalue-minimisations  :   320
 total energy-change (2. order) :-0.1331932E-06  (-0.5237714E-08)
 number of electron       8.0000000 magnetization 
 augmentation part       -0.4581927 magnetization 

 Free energy of the ion-electron system (eV)
  ---------------------------------------------------
  alpha Z        PSCENC =         3.26617979
  Ewald energy   TEWEN  =      -226.32296373
  -Hartree energ DENC   =       -15.26868509
  -exchange      EXHF   =         0.00000000
  -V(xc)+E(xc)   XCENC  =       -18.09589131
  PAW double counting   =       826.77961263     -791.79224832
  entropy T*S    EENTRO =        -0.00000000
  eigenvalues    EBANDS =         4.45606741
  atomic energy  EATOM  =       206.13125414
  Solvation  Ediel_sol  =         0.00000000
  ---------------------------------------------------
  free energy    TOTEN  =       -10.84667448 eV

  energy without entropy =      -10.84667448  energy(sigma->0) =      -10.84667448


--------------------------------------------------------------------------------------------------------




 average (electrostatic) potential at core
  the test charge radii are     0.9892
  (the norm of the test charge is              1.0000)
       1 -83.5733       2 -83.5733
 
 
 
 E-fermi :   5.6368     XC(G=0):  -9.2956     alpha+bet :-11.6355

 Fermi energy:         5.6367606259

 k-point     1 :       0.0833    0.0833    0.0833
  band No.  band energies     occupation 
      1      -6.1361      2.00000
      2       4.6771      2.00000
      3       5.3964      2.00000
      4       5.3964      2.00000
      5       8.0800      0.00000
      6       8.2947      0.00000
      7       8.2947      0.00000
      8       9.2969      0.00000

 k-point     2 :       0.2500    0.0833    0.0833
  band No.  band energies     occupation 
      1      -5.6700      2.00000
      2       2.6183      2.00000
      3       4.1896      2.00000
      4       5.1878      2.00000
      5       8.1573      0.00000
      6       8.6854      0.00000
      7       9.0254      0.00000
      8      11.1011      0.00000

 k-point     3 :       0.4167    0.0833    0.0833
  band No.  band energies     occupation 
      1      -4.6045      2.00000
      2      -0.0869      2.00000
      3       3.7277      2.00000
      4       4.5643      2.00000
      5       7.6479      0.00000
      6       9.0853      0.00000
      7       9.1249      0.00000
      8      12.9068      0.00000

 k-point     4 :      -0.4167    0.0833    0.0833
  band No.  band energies     occupation 
      1      -3.9288      2.00000
      2      -1.2001      2.00000
      3       3.7886      2.00000
      4       4.1935      2.00000
      5       7.4957      0.00000
      6       8.8105      0.00000
      7       9.2333      0.00000
      8      13.3833      0.00000

 k-point     5 :      -0.2500    0.0833    0.0833
  band No.  band energies     occupation 
      1      -5.0055      2.00000
      2       0.7410      2.00000
      3       4.2550      2.00000
      4       4.2771      2.00000
      5       7.7539      0.00000
      6       8.8089      0.00000
      7       9.5995      0.00000
      8      11.4592      0.00000

 k-point     6 :      -0.0833    0.0833    0.0833
  band No.  band energies     occupation 
      1      -5.9007      2.00000
      2       3.6124      2.00000
      3       4.7677      2.00000
      4       4.9411      2.00000
      5       7.8392      0.00000
      6       8.6694      0.00000
      7       9.1749      0.00000
      8      10.2451      0.00000

 k-point     7 :       0.2500    0.2500    0.0833
  band No.  band energies     occupation 
      1      -5.4339      2.00000
      2       2.4164      2.00000
      3       4.0330      2.00000
      4       4.0543      2.00000
      5       7.2719      0.00000
      6       9.3585      0.00000
      7      10.1739      0.00000
      8      10.3748      0.00000

 k-point     8 :       0.4167    0.2500    0.0833
  band No.  band energies     occupation 
      1      -4.5446      2.00000
      2       0.6075      2.00000
      3       2.7491      2.00000
      4       3.6744      2.00000
      5       7.6644      0.00000
      6       9.2664      0.00000
      7      10.0257      0.00000
      8      11.4689      0.00000

 k-point     9 :      -0.4167    0.2500    0.0833
  band No.  band energies     occupation 
      1      -3.4609      2.00000
      2      -1.0934      2.00000
      3       2.1534      2.00000
      4       3.4547      2.00000
      5       7.9074      0.00000
      6       9.4330      0.00000
      7      11.3495      0.00000
      8      11.7357      0.00000

 k-point    10 :      -0.2500    0.2500    0.0833
  band No.  band energies     occupation 
      1      -4.1608      2.00000
      2      -0.0671      2.00000
      3       2.1210      2.00000
      4       3.9271      2.00000
      5       8.4808      0.00000
      6       9.1188      0.00000
      7      10.7582      0.00000
      8      11.2383      0.00000

 k-point    11 :      -0.0833    0.2500    0.0833
  band No.  band energies     occupation 
      1      -5.2139      2.00000
      2       1.6037      2.00000
      3       3.4296      2.00000
      4       4.5757      2.00000
      5       8.1323      0.00000
      6       8.9590      0.00000
      7      10.0437      0.00000
      8      10.4136      0.00000

 k-point    12 :       0.4167    0.4167    0.0833
  band No.  band energies     occupation 
      1      -3.8479      2.00000
      2      -0.2166      2.00000
      3       2.7180      2.00000
      4       3.0468      2.00000
      5       6.4678      0.00000
      6       7.4362      0.00000
      7      12.9769      0.00000
      8      13.0514      0.00000

 k-point    13 :      -0.4167    0.4167    0.0833
  band No.  band energies     occupation 
      1      -2.6815      2.00000
      2      -1.5304      2.00000
      3       1.9013      2.00000
      4       2.6534      2.00000
      5       7.0825      0.00000
      6       8.1841      0.00000
      7      12.5407      0.00000
      8      13.9751      0.00000

 k-point    14 :      -0.2500    0.4167    0.0833
  band No.  band energies     occupation 
      1      -3.0499      2.00000
      2      -1.1909      2.00000
      3       1.4275      2.00000
      4       3.1853      2.00000
      5       7.6858      0.00000
      6      10.5479      0.00000
      7      11.5138      0.00000
      8      12.1574      0.00000

 k-point    15 :      -0.0833    0.4167    0.0833
  band No.  band energies     occupation 
      1      -4.0541      2.00000
      2      -0.7190      2.00000
      3       3.0288      2.00000
      4       4.0215      2.00000
      5       8.0720      0.00000
      6       8.7456      0.00000
      7      10.0338      0.00000
      8      12.2223      0.00000

 k-point    16 :      -0.4167   -0.4167    0.0833
  band No.  band energies     occupation 
      1      -2.7684      2.00000
      2      -1.5369      2.00000
      3       2.4550      2.00000
      4       2.8357      2.00000
      5       6.3626      0.00000
      6       6.9191      0.00000
      7      14.4495      0.00000
      8      14.5218      0.00000

 k-point    17 :      -0.2500   -0.4167    0.0833
  band No.  band energies     occupation 
      1      -3.6848      2.00000
      2      -0.4332      2.00000
      3       2.2107      2.00000
      4       2.9863      2.00000
      5       7.2857      0.00000
      6       8.5500      0.00000
      7      11.2033      0.00000
      8      12.9891      0.00000

 k-point    18 :      -0.2500   -0.2500    0.0833
  band No.  band energies     occupation 
      1      -4.7446      2.00000
      2       1.1267      2.00000
      3       3.2480      2.00000
      4       3.4606      2.00000
      5       6.7781      0.00000
      6       8.3326      0.00000
      7      11.4667      0.00000
      8      11.6815      0.00000

 k-point    19 :       0.2500    0.2500    0.2500
  band No.  band energies     occupation 
[...]
  ---------------------------------------------------
  alpha Z        PSCENC =         3.29549501
  Ewald energy   TEWEN  =      -226.99805976
  -Hartree energ DENC   =       -15.16223724
  -exchange      EXHF   =         0.00000000
  -V(xc)+E(xc)   XCENC  =       -18.05522749
  PAW double counting   =       840.31315620     -805.33352881
  entropy T*S    EENTRO =        -0.00000000
  eigenvalues    EBANDS =         4.96157753
  atomic energy  EATOM  =       206.13125414
  Solvation  Ediel_sol  =         0.00000000
  ---------------------------------------------------
  free energy    TOTEN  =       -10.84757040 eV

  energy without entropy =      -10.84757040  energy(sigma->0) =      -10.84757040


--------------------------------------------------------------------------------------------------------




--------------------------------------- Iteration      3(   6)  ---------------------------------------


    POTLOK:  cpu time    0.0320: real time    0.0440
    SETDIJ:  cpu time    0.1740: real time    0.1737
     EDDAV:  cpu time    0.1630: real time    0.1631
       DOS:  cpu time    0.0000: real time    0.0007
    --------------------------------------------
      LOOP:  cpu time    0.3689: real time    0.3815

 eigenvalue-minimisations  :   272
 total energy-change (2. order) : 0.3885054E-07  (-0.1260234E-08)
 number of electron       8.0000000 magnetization 
 augmentation part       -0.4583695 magnetization 

 Free energy of the ion-electron system (eV)
  ---------------------------------------------------
  alpha Z        PSCENC =         3.29549501
  Ewald energy   TEWEN  =      -226.99805976
  -Hartree energ DENC   =       -15.16237980
  -exchange      EXHF   =         0.00000000
  -V(xc)+E(xc)   XCENC  =       -18.05523843
  PAW double counting   =       840.77997694     -805.80028992
  entropy T*S    EENTRO =        -0.00000000
  eigenvalues    EBANDS =         4.96167144
  atomic energy  EATOM  =       206.13125414
  Solvation  Ediel_sol  =         0.00000000
  ---------------------------------------------------
  free energy    TOTEN  =       -10.84757036 eV

  energy without entropy =      -10.84757036  energy(sigma->0) =      -10.84757036


--------------------------------------------------------------------------------------------------------




 average (electrostatic) potential at core
  the test charge radii are     0.9892
  (the norm of the test charge is              1.0000)
       1 -83.4744       2 -83.4744
 
 
 
 E-fermi :   5.7335     XC(G=0):  -9.3302     alpha+bet :-11.7400

 Fermi energy:         5.7334521625

 k-point     1 :       0.0833    0.0833    0.0833
  band No.  band energies     occupation 
      1      -6.1071      2.00000
      2       4.7661      2.00000
      3       5.4835      2.00000
      4       5.4835      2.00000
      5       8.1906      0.00000
      6       8.3889      0.00000
      7       8.3889      0.00000
      8       9.4664      0.00000

 k-point     2 :       0.2500    0.0833    0.0833
  band No.  band energies     occupation 
      1      -5.6372      2.00000
      2       2.7000      2.00000
      3       4.2664      2.00000
      4       5.2746      2.00000
      5       8.2767      0.00000
      6       8.7812      0.00000
      7       9.1275      0.00000
      8      11.2448      0.00000

 k-point     3 :       0.4167    0.0833    0.0833
  band No.  band energies     occupation 
      1      -4.5622      2.00000
      2      -0.0258      2.00000
      3       3.8040      2.00000
      4       4.6464      2.00000
      5       7.7670      0.00000
      6       9.1752      0.00000
      7       9.2150      0.00000
      8      13.0324      0.00000

 k-point     4 :      -0.4167    0.0833    0.0833
  band No.  band energies     occupation 
      1      -3.8784      2.00000
      2      -1.1502      2.00000
      3       3.8671      2.00000
      4       4.2720      2.00000
      5       7.6125      0.00000
      6       8.8971      0.00000
      7       9.3216      0.00000
      8      13.4958      0.00000

 k-point     5 :      -0.2500    0.0833    0.0833
  band No.  band energies     occupation 
      1      -4.9671      2.00000
      2       0.8088      2.00000
      3       4.3327      2.00000
      4       4.3594      2.00000
      5       7.8671      0.00000
      6       8.9056      0.00000
      7       9.6967      0.00000
      8      11.5630      0.00000

 k-point     6 :      -0.0833    0.0833    0.0833
  band No.  band energies     occupation 
      1      -5.8698      2.00000
      2       3.7005      2.00000
      3       4.8485      2.00000
      4       5.0271      2.00000
      5       7.9310      0.00000
      6       8.7881      0.00000
      7       9.2769      0.00000
      8      10.3936      0.00000

 k-point     7 :       0.2500    0.2500    0.0833
  band No.  band energies     occupation 
      1      -5.3994      2.00000
      2       2.5040      2.00000
      3       4.1104      2.00000
      4       4.1292      2.00000
      5       7.3577      0.00000
      6       9.4729      0.00000
      7      10.2758      0.00000
      8      10.4852      0.00000

 k-point     8 :       0.4167    0.2500    0.0833
  band No.  band energies     occupation 
      1      -4.5026      2.00000
      2       0.6840      2.00000
      3       2.8137      2.00000
      4       3.7469      2.00000
      5       7.7521      0.00000
      6       9.3624      0.00000
      7      10.1361      0.00000
      8      11.5856      0.00000

 k-point     9 :      -0.4167    0.2500    0.0833
  band No.  band energies     occupation 
      1      -3.4072      2.00000
      2      -1.0351      2.00000
      3       2.2161      2.00000
      4       3.5244      2.00000
      5       7.9974      0.00000
      6       9.5344      0.00000
      7      11.4650      0.00000
      8      11.8486      0.00000

 k-point    10 :      -0.2500    0.2500    0.0833
  band No.  band energies     occupation 
      1      -4.1149      2.00000
      2       0.0027      2.00000
      3       2.1801      2.00000
      4       4.0020      2.00000
      5       8.5819      0.00000
      6       9.2148      0.00000
      7      10.8696      0.00000
      8      11.3469      0.00000

 k-point    11 :      -0.0833    0.2500    0.0833
  band No.  band energies     occupation 
      1      -5.1774      2.00000
      2       1.6821      2.00000
      3       3.5003      2.00000
      4       4.6579      2.00000
      5       8.2288      0.00000
      6       9.0770      0.00000
      7      10.1498      0.00000
      8      10.5086      0.00000

 k-point    12 :       0.4167    0.4167    0.0833
  band No.  band energies     occupation 
      1      -3.8006      2.00000
      2      -0.1408      2.00000
      3       2.7810      2.00000
      4       3.1142      2.00000
      5       6.5441      0.00000
      6       7.5140      0.00000
      7      13.1118      0.00000
      8      13.1771      0.00000

 k-point    13 :      -0.4167    0.4167    0.0833
  band No.  band energies     occupation 
      1      -2.6237      2.00000
      2      -1.4640      2.00000
      3       1.9548      2.00000
      4       2.7157      2.00000
      5       7.1617      0.00000
      6       8.2711      0.00000
      7      12.6658      0.00000
      8      14.1165      0.00000

 k-point    14 :      -0.2500    0.4167    0.0833
  band No.  band energies     occupation 
      1      -2.9929      2.00000
      2      -1.1261      2.00000
      3       1.4775      2.00000
      4       3.2526      2.00000
      5       7.7714      0.00000
      6      10.6513      0.00000
      7      11.6263      0.00000
      8      12.2822      0.00000

 k-point    15 :      -0.0833    0.4167    0.0833
  band No.  band energies     occupation 
      1      -4.0063      2.00000
      2      -0.6616      2.00000
      3       3.1009      2.00000
      4       4.0978      2.00000
      5       8.1830      0.00000
      6       8.8321      0.00000
      7      10.1357      0.00000
      8      12.3346      0.00000

 k-point    16 :      -0.4167   -0.4167    0.0833
  band No.  band energies     occupation 
      1      -2.7124      2.00000
      2      -1.4711      2.00000
      3       2.5156      2.00000
      4       2.9016      2.00000
      5       6.4355      0.00000
      6       6.9958      0.00000
      7      14.5885      0.00000
      8      14.6696      0.00000

 k-point    17 :      -0.2500   -0.4167    0.0833
  band No.  band energies     occupation 
      1      -3.6355      2.00000
      2      -0.3599      2.00000
      3       2.2688      2.00000
      4       3.0513      2.00000
      5       7.3681      0.00000
      6       8.6378      0.00000
      7      11.3219      0.00000
      8      13.1181      0.00000

 k-point    18 :      -0.2500   -0.2500    0.0833
  band No.  band energies     occupation 
      1      -4.7046      2.00000
      2       1.2105      2.00000
      3       3.3164      2.00000
      4       3.5309      2.00000
      5       6.8588      0.00000
      6       8.4171      0.00000
      7      11.5910      0.00000
      8      11.7994      0.00000

 k-point    19 :       0.2500    0.2500    0.2500
  band No.  band energies     occupation 
      1      -5.4111      2.00000
      2       1.7358      2.00000
      3       4.8780      2.00000
      4       4.8780      2.00000
      5       7.5861      0.00000
      6       9.1162      0.00000
      7       9.1163      0.00000
      8      12.3807      0.00000

 k-point    20 :       0.4167    0.2500    0.2500
  band No.  band energies     occupation 
      1      -4.7422      2.00000
      2       0.8043      2.00000
      3       2.7777      2.00000
      4       4.7100      2.00000
      5       8.3670      0.00000
      6       9.6051      0.00000
      7       9.7679      0.00000
      8      11.6728      0.00000

 k-point    21 :      -0.4167    0.2500    0.2500
  band No.  band energies     occupation 
      1      -3.5829      2.00000
      2      -0.6236      2.00000
      3       1.6894      2.00000
      4       3.9364      2.00000
      5       7.6545      0.00000
      6      10.9096      0.00000
      7      11.0047      0.00000
      8      12.7097      0.00000

 k-point    22 :      -0.2500    0.2500    0.2500
  band No.  band energies     occupation 
      1      -3.5307      2.00000
      2      -0.7022      2.00000
      3       2.1585      2.00000
      4       3.4621      2.00000
      5       7.1664      0.00000
      6      10.0587      0.00000
      7      11.2750      0.00000
      8      11.5052      0.00000

 k-point    23 :       0.4167    0.4167    0.2500
  band No.  band energies     occupation 
      1      -4.3250      2.00000
      2       0.0093      2.00000
      3       3.2290      2.00000
      4       3.8300      2.00000
      5       7.6378      0.00000
      6       9.8193      0.00000
      7      10.4945      0.00000
      8      10.6506      0.00000

 k-point    24 :      -0.4167    0.4167    0.2500
  band No.  band energies     occupation 
      1      -3.3389      2.00000
      2      -0.7409      2.00000
      3       1.7889      2.00000
      4       3.0504      2.00000
      5       8.8470      0.00000
      6       9.3722      0.00000
      7      10.3388      0.00000
      8      13.0391      0.00000

 k-point    25 :      -0.2500    0.4167    0.2500
  band No.  band energies     occupation 
      1      -2.5210      2.00000
      2      -1.4717      2.00000
      3       1.6314      2.00000
      4       2.3945      2.00000
      5       8.6475      0.00000
      6       9.9039      0.00000
      7      10.6742      0.00000
      8      12.0537      0.00000

 k-point    26 :      -0.4167   -0.4167    0.2500
  band No.  band energies     occupation 
      1      -2.7291      2.00000
      2      -1.3748      2.00000
      3       1.5068      2.00000
      4       3.2703      2.00000
      5       6.8937      0.00000
      6       9.7739      0.00000
      7      12.6596      0.00000
      8      12.8306      0.00000

 k-point    27 :       0.4167    0.4167    0.4167
  band No.  band energies     occupation 
      1      -4.2398      2.00000
      2      -0.7561      2.00000
      3       4.4935      2.00000
      4       4.4935      2.00000
      5       7.1506      0.00000
      6       9.0264      0.00000
      7       9.0264      0.00000
      8      13.4045      0.00000

 k-point    28 :      -0.4167    0.4167    0.4167
  band No.  band energies     occupation 
      1      -3.6457      2.00000
      2      -1.0585      2.00000
      3       2.6821      2.00000
      4       4.0610      2.00000
      5       7.8007      0.00000
      6       9.6481      0.00000
      7      10.0093      0.00000
      8      13.5259      0.00000


--------------------------------------------------------------------------------------------------------


 soft charge-density along one line, spin component           1
         0         1         2         3         4         5         6         7         8         9
 total charge-density along one line
 
 pseudopotential strength for first ion, spin component:           1
 18.437  25.722   0.000  -0.000   0.000   0.000  -0.000   0.000
 25.722  35.892   0.000  -0.000   0.000   0.000  -0.000   0.000
  0.000   0.000   4.181  -0.000  -0.000   7.791  -0.000  -0.000
 -0.000  -0.000  -0.000   4.181  -0.000  -0.000   7.791  -0.000
  0.000   0.000  -0.000  -0.000   4.181  -0.000  -0.000   7.791
  0.000   0.000   7.791  -0.000  -0.000  14.528  -0.000  -0.000
 -0.000  -0.000  -0.000   7.791  -0.000  -0.000  14.528  -0.000
  0.000   0.000  -0.000  -0.000   7.791  -0.000  -0.000  14.528
 total augmentation occupancy for first ion, spin component:           1
  5.531  -2.065   0.000   0.000   0.000  -0.000   0.000   0.000
 -2.065   0.887   0.000  -0.000   0.000   0.000   0.000   0.000
 -0.000   0.000   2.942  -0.000   0.000  -0.663   0.000  -0.000
 -0.000  -0.000  -0.000   2.942  -0.000   0.000  -0.663   0.000
  0.000  -0.000   0.000  -0.000   2.942  -0.000   0.000  -0.663
 -0.000  -0.000  -0.663   0.000  -0.000   0.158  -0.000   0.000
  0.000   0.000   0.000  -0.663   0.000  -0.000   0.158  -0.000
  0.000  -0.000  -0.000   0.000  -0.663   0.000  -0.000   0.158


------------------------ aborting loop because EDIFF is reached ----------------------------------------


    CHARGE:  cpu time    0.0340: real time    0.0338
    FORLOC:  cpu time    0.0020: real time    0.0017
    FORNL :  cpu time    0.1000: real time    0.1017
    STRESS:  cpu time    0.4599: real time    0.4605
    FORCOR:  cpu time    0.0310: real time    0.0311
    FORHAR:  cpu time    0.0060: real time    0.0060
    MIXING:  cpu time    0.0010: real time    0.0012
    OFIELD:  cpu time    0.0010: real time    0.0002

  FORCE on cell =-STRESS in cart. coord.  units (eV):
  Direction    XX          YY          ZZ          XY          YZ          ZX
  --------------------------------------------------------------------------------------
  Alpha Z     3.29550     3.29550     3.29550
  Ewald     -75.66603   -75.66611   -75.66602     0.00001     0.00000     0.00000
  Hartree     5.05405     5.05404     5.05405     0.00000     0.00000     0.00000
  E(xc)     -25.25232   -25.25231   -25.25232    -0.00000    -0.00000    -0.00000
  Local     -29.52407   -29.52405   -29.52405    -0.00000     0.00001     0.00001
  n-local    75.27356    77.71418    79.47453    -0.69799    -1.57483     0.12454
  augment   -11.64836   -11.64836   -11.64838    -0.00000    -0.00001    -0.00001
  Kinetic    54.91232    56.51835    57.33608    -0.06688     0.36221    -1.01868
  Fock        0.00000     0.00000     0.00000     0.00000     0.00000     0.00000
  -------------------------------------------------------------------------------------
  Total       0.00175     0.00175     0.00175    -0.00000     0.00000    -0.00000
  in kB       0.06863     0.06863     0.06863    -0.00000     0.00000    -0.00000
  external pressure =        0.07 kB  Pullay stress =        0.00 kB


 VOLUME and BASIS-vectors are now :
 -----------------------------------------------------------------------------
  energy-cutoff  :      350.00
  volume of cell :       40.86
      direct lattice vectors                 reciprocal lattice vectors
     3.348113766 -0.000000000  1.933034112     0.298675633 -0.105597741  0.000000000
     1.116037922  3.156633182  1.933034112     0.000000000  0.316793223  0.000000000
    -0.000000000 -0.000000000  3.866068223    -0.149337817 -0.105597741  0.258660723

  length of vectors
     3.866068632  3.866069653  3.866068223     0.316793335  0.316793223  0.316793365


 FORCES acting on ions
    electron-ion (+dipol)            ewald-force                    non-local-force                 convergence-correction
 -----------------------------------------------------------------------------------------------
   0.525E-05 0.245E-04 0.591E-07   -.892E-05 -.418E-04 -.132E-13   0.282E-17 0.522E-17 0.139E-16   -.463E-07 -.325E-07 -.803E-07
   -.525E-05 -.245E-04 -.591E-07   0.892E-05 0.418E-04 0.133E-13   -.282E-17 -.312E-16 0.000E+00   0.463E-07 0.325E-07 0.803E-07
 -----------------------------------------------------------------------------------------------
   0.643E-13 -.541E-13 0.120E-12   -.378E-16 -.969E-16 0.906E-16   0.268E-28 -.260E-16 0.139E-16   0.265E-15 -.105E-15 -.458E-15
 
 
 POSITION                                       TOTAL-FORCE (eV/Angst)
 -----------------------------------------------------------------------------------
      3.90613      2.76205      6.76562        -0.000000      0.000000      0.000000
      0.55802      0.39458      0.96652         0.000000     -0.000000     -0.000000
 -----------------------------------------------------------------------------------
    total drift:                                0.000000     -0.000000      0.000000


--------------------------------------------------------------------------------------------------------



  FREE ENERGIE OF THE ION-ELECTRON SYSTEM (eV)
  ---------------------------------------------------
  free  energy   TOTEN  =       -10.84757036 eV

  energy  without entropy=      -10.84757036  energy(sigma->0) =      -10.84757036
 
 d Force = 0.0000000E+00[ 0.000E+00, 0.000E+00]  d Energy = 0.8958877E-03-0.896E-03
 d Force = 0.0000000E+00[ 0.000E+00, 0.000E+00]  d Ewald  = 0.6750960E+00-0.675E+00


--------------------------------------------------------------------------------------------------------


    POTLOK:  cpu time    0.2060: real time    0.2138


--------------------------------------------------------------------------------------------------------




--------------------------------------------------------------------------------------------------------


  
 reached required accuracy - stopping structural energy minimisation
     LOOP+:  cpu time    3.9724: real time    4.1092
    4ORBIT:  cpu time    0.0000: real time    0.0000

 total amount of memory used by VASP MPI-rank0    37776. kBytes
=======================================================================

   base      :      30000. kBytes
   nonl-proj :       1108. kBytes
   fftplans  :       4177. kBytes
   grid      :       1926. kBytes
   one-center:          6. kBytes
   wavefun   :        559. kBytes
 
  
  
 General timing and accounting informations for this job:
 ========================================================
  
                  Total CPU time used (sec):       14.735
                            User time (sec):       14.380
                          System time (sec):        0.355
                         Elapsed time (sec):       15.740
  
                   Maximum memory used (kb):       61008.
                   Average memory used (kb):          N/A
  
                          Minor page faults:        13779
                          Major page faults:            1
                 Voluntary context switches:        11391
